<event>
 7    1  0.2490079E-009  0.2793857E+03  0.7561462E-02  0.1096025E+00
         -1   -1    0    0    0  501 -0.00000000000E+00  0.00000000000E+00  0.26639111803E+03  0.26639111803E+03  0.00000000000E+00 0.  1.
          1   -1    0    0  501    0  0.00000000000E+00 -0.00000000000E+00 -0.31903804131E+03  0.31903804131E+03  0.00000000000E+00 0. -1.
         25    2    1    2    0    0 -0.19621404928E+03  0.18243475932E+03 -0.61247559375E+02  0.30196329485E+03  0.12509265913E+03 0.  0.
          5    1    3    3  502    0 -0.42425768510E+02  0.11353675228E+03  0.36564409432E+01  0.12133170201E+03  0.41800000000E+01 0.  1.
         -5    1    3    3    0  502 -0.15378828077E+03  0.68898007035E+02 -0.64904000318E+02  0.18063159284E+03  0.41800000000E+01 0.  1.
        -11    1    1    2    0    0  0.58067802455E+02 -0.40058571085E+02 -0.37363884332E+02  0.79828683139E+02  0.00000000000E+00 0. -1.
         11    1    1    2    0    0  0.13814624683E+03 -0.14237618823E+03  0.45964520431E+02  0.20363718134E+03  0.00000000000E+00 0.  1.
</event>
<event>
 7    1  0.2490079E-009  0.8425387E+02  0.7561462E-02  0.1317395E+00
         -4   -1    0    0    0  501 -0.00000000000E+00  0.00000000000E+00  0.14687611976E+03  0.14687611976E+03  0.00000000000E+00 0.  1.
          4   -1    0    0  501    0  0.00000000000E+00 -0.00000000000E+00 -0.94139824763E+02  0.94139824763E+02  0.00000000000E+00 0. -1.
         25    2    1    2    0    0 -0.33758142151E+02 -0.28598078201E+02  0.41634677124E+02  0.13906422928E+03  0.12509177147E+03 0.  0.
          5    1    3    3  502    0 -0.28234129934E+02 -0.69823939699E+02 -0.60203743124E+01  0.75672094957E+02  0.41800000000E+01 0. -1.
         -5    1    3    3    0  502 -0.55240122162E+01  0.41225861498E+02  0.47655051436E+02  0.63392134328E+02  0.41800000000E+01 0. -1.
        -11    1    1    2    0    0  0.29365955974E+02  0.83177714640E+01  0.49587793141E+02  0.58227947937E+02  0.00000000000E+00 0.  1.
         11    1    1    2    0    0  0.43921861771E+01  0.20280306737E+02 -0.38486175265E+02  0.43723767304E+02  0.00000000000E+00 0. -1.
</event>
<event>
 7    1  0.2490079E-009  0.1145865E+03  0.7561462E-02  0.1252305E+00
          1   -1    0    0  501    0  0.00000000000E+00  0.00000000000E+00  0.31801721066E+03  0.31801721066E+03  0.00000000000E+00 0. -1.
         -1   -1    0    0    0  501 -0.00000000000E+00 -0.00000000000E+00 -0.63448715119E+02  0.63448715119E+02  0.00000000000E+00 0.  1.
         25    2    1    2    0    0 -0.49824082211E+02 -0.77203635406E+02  0.14786540982E+03  0.21437211681E+03  0.12509350325E+03 0.  0.
          5    1    3    3  502    0 -0.41105794617E+02 -0.13474712378E+02 -0.93517079682E+01  0.44454258139E+02  0.41800000000E+01 0. -1.
         -5    1    3    3    0  502 -0.87182875934E+01 -0.63728923028E+02  0.15721711779E+03  0.16991785867E+03  0.41800000000E+01 0. -1.
        -11    1    1    2    0    0  0.47953079673E+02  0.41003950647E+01  0.70849369079E+02  0.85650126613E+02  0.00000000000E+00 0.  1.
         11    1    1    2    0    0  0.18710025379E+01  0.73103240341E+02  0.35853716639E+02  0.81443682356E+02  0.00000000000E+00 0. -1.
</event>
<event>
 7    1  0.2490079E-009  0.1039266E+03  0.7561462E-02  0.1272249E+00
          4   -1    0    0  501    0  0.00000000000E+00  0.00000000000E+00  0.10304512258E+03  0.10304512258E+03  0.00000000000E+00 0. -1.
         -4   -1    0    0    0  501 -0.00000000000E+00 -0.00000000000E+00 -0.13237225825E+03  0.13237225825E+03  0.00000000000E+00 0.  1.
         25    2    1    2    0    0  0.56979647519E+02 -0.76162389610E+01 -0.13144400014E+02  0.13829512054E+03  0.12509227709E+03 0.  0.
          5    1    3    3  502    0  0.17671155538E+02 -0.59933577227E+02  0.18759215200E+02  0.65373419462E+02  0.41800000000E+01 0. -1.
         -5    1    3    3    0  502  0.39308491981E+02  0.52317338266E+02 -0.31903615214E+02  0.72921701083E+02  0.41800000000E+01 0. -1.
        -11    1    1    2    0    0  0.91701783404E+01  0.98647502725E+01 -0.26889270291E+02  0.30073881118E+02  0.00000000000E+00 0.  1.
         11    1    1    2    0    0 -0.66149825860E+02 -0.22485113115E+01  0.10706534638E+02  0.67048379163E+02  0.00000000000E+00 0. -1.
</event>
<event>
 7    1  0.2490079E-009  0.1032453E+03  0.7561462E-02  0.1273616E+00
         -2   -1    0    0    0  501 -0.00000000000E+00  0.00000000000E+00  0.28904050781E+02  0.28904050781E+02  0.00000000000E+00 0.  1.
          2   -1    0    0  501    0  0.00000000000E+00 -0.00000000000E+00 -0.55006213834E+03  0.55006213834E+03  0.00000000000E+00 0. -1.
         25    2    1    2    0    0 -0.42077071072E+02 -0.45620466154E+02 -0.30941031640E+03  0.33946120342E+03  0.12508979930E+03 0.  0.
          5    1    3    3  502    0  0.73128055084E+01 -0.68300394525E+02 -0.89515446614E+02  0.11291106500E+03  0.41800000000E+01 0.  1.
         -5    1    3    3    0  502 -0.49389876580E+02  0.22679928371E+02 -0.21989486978E+03  0.22655013842E+03  0.41800000000E+01 0.  1.
        -11    1    1    2    0    0  0.39966227322E+02  0.58093551512E+02 -0.21514554200E+03  0.22640619315E+03  0.00000000000E+00 0. -1.
         11    1    1    2    0    0  0.21108437497E+01 -0.12473085358E+02  0.33977708405E+01  0.13098792554E+02  0.00000000000E+00 0.  1.
</event>
<event>
 7    1  0.2490079E-009  0.1053239E+03  0.7561462E-02  0.1269483E+00
          1   -1    0    0  501    0  0.00000000000E+00  0.00000000000E+00  0.42560092235E+03  0.42560092235E+03  0.00000000000E+00 0. -1.
         -1   -1    0    0    0  501 -0.00000000000E+00 -0.00000000000E+00 -0.34533437757E+02  0.34533437757E+02  0.00000000000E+00 0.  1.
         25    2    1    2    0    0  0.48120599584E+02 -0.16256132399E+00  0.16752575423E+03  0.21453917542E+03  0.12508621397E+03 0.  0.
          5    1    3    3  502    0  0.64771132249E+02 -0.45995005738E+02  0.13179400305E+03  0.15394145564E+03  0.41800000000E+01 0. -1.
         -5    1    3    3    0  502 -0.16650532665E+02  0.45832444414E+02  0.35731751185E+02  0.60597719773E+02  0.41800000000E+01 0. -1.
        -11    1    1    2    0    0 -0.63577255049E+02 -0.89622913356E+01  0.21730749904E+03  0.22659421697E+03  0.00000000000E+00 0. -1.
         11    1    1    2    0    0  0.15456655465E+02  0.91248526596E+01  0.62342313208E+01  0.19000967722E+02  0.00000000000E+00 0.  1.
</event>
<event>
 7    1  0.2490079E-009  0.9006830E+02  0.7561462E-02  0.1302686E+00
         -3   -1    0    0    0  501 -0.00000000000E+00  0.00000000000E+00  0.32275341772E+03  0.32275341772E+03  0.00000000000E+00 0.  1.
          3   -1    0    0  501    0  0.00000000000E+00 -0.00000000000E+00 -0.40936492341E+02  0.40936492341E+02  0.00000000000E+00 0. -1.
         25    2    1    2    0    0 -0.27736982196E+02  0.13901910556E+02  0.18235330549E+03  0.22330216694E+03  0.12509407035E+03 0.  0.
          5    1    3    3  502    0 -0.24049669341E+02 -0.48869221911E+02  0.13126174973E+03  0.14217491617E+03  0.41800000000E+01 0. -1.
         -5    1    3    3    0  502 -0.36873128550E+01  0.62771132467E+02  0.51091555767E+02  0.81127250773E+02  0.41800000000E+01 0. -1.
        -11    1    1    2    0    0  0.40576205963E+02  0.36558810386E+01  0.10920328196E+03  0.11655535486E+03  0.00000000000E+00 0.  1.
         11    1    1    2    0    0 -0.12839223767E+02 -0.17557791594E+02 -0.97396620770E+01  0.23832388256E+02  0.00000000000E+00 0. -1.
</event>
<event>
 7    1  0.2490079E-009  0.1158921E+03  0.7561462E-02  0.1250032E+00
         -1   -1    0    0    0  501 -0.00000000000E+00  0.00000000000E+00  0.66549445541E+02  0.66549445541E+02  0.00000000000E+00 0.  1.
          1   -1    0    0  501    0  0.00000000000E+00 -0.00000000000E+00 -0.30823124506E+03  0.30823124506E+03  0.00000000000E+00 0. -1.
         25    2    1    2    0    0  0.83394849055E+02  0.13109124009E+01 -0.79655678977E+02  0.17014642295E+03  0.12509339995E+03 0.  0.
          5    1    3    3  502    0  0.11481671689E+03  0.15143556035E+01 -0.77039789717E+02  0.13833934129E+03  0.41800000000E+01 0. -1.
         -5    1    3    3    0  502 -0.31421867832E+02 -0.20344320258E+00 -0.26158892601E+01  0.31807081661E+02  0.41800000000E+01 0. -1.
        -11    1    1    2    0    0 -0.63790008175E+02  0.64110353735E+01 -0.17032244803E+03  0.18198901841E+03  0.00000000000E+00 0. -1.
         11    1    1    2    0    0 -0.19604840880E+02 -0.77219477744E+01  0.82963274884E+01  0.22645249240E+02  0.00000000000E+00 0.  1.
</event>
<event>
 7    1  0.2490079E-009  0.9746435E+02  0.7561462E-02  0.1285720E+00
          2   -1    0    0  501    0  0.00000000000E+00  0.00000000000E+00  0.45695913127E+03  0.45695913127E+03  0.00000000000E+00 0.  1.
         -2   -1    0    0    0  501 -0.00000000000E+00 -0.00000000000E+00 -0.26647836694E+02  0.26647836694E+02  0.00000000000E+00 0. -1.
         25    2    1    2    0    0 -0.36363053497E+01  0.24855874510E+02  0.23266227552E+03  0.26534929741E+03  0.12508987958E+03 0.  0.
          5    1    3    3  502    0 -0.26034137786E+02 -0.31942069802E+02  0.23939235179E+02  0.47839643962E+02  0.41800000000E+01 0.  1.
         -5    1    3    3    0  502  0.22397832437E+02  0.56797944312E+02  0.20872304034E+03  0.21750965345E+03  0.41800000000E+01 0.  1.
        -11    1    1    2    0    0  0.19394924907E+02 -0.54987851537E+02  0.13271614633E+03  0.14496000285E+03  0.00000000000E+00 0. -1.
         11    1    1    2    0    0 -0.15758619557E+02  0.30131977027E+02  0.64932872725E+02  0.73297667700E+02  0.00000000000E+00 0.  1.
</event>
<event>
 7    1  0.2490079E-009  0.7246247E+02  0.7561462E-02  0.1351914E+00
         -2   -1    0    0    0  501 -0.00000000000E+00  0.00000000000E+00  0.10802381595E+03  0.10802381595E+03  0.00000000000E+00 0.  1.
          2   -1    0    0  501    0  0.00000000000E+00 -0.00000000000E+00 -0.17561845543E+03  0.17561845543E+03  0.00000000000E+00 0. -1.
         25    2    1    2    0    0  0.22280382479E+02  0.39296558830E+02  0.36594040449E+02  0.13793896242E+03  0.12508956222E+03 0.  0.
          5    1    3    3  502    0  0.26210332078E+02  0.12097605698E+02  0.80696937789E+02  0.85806769779E+02  0.41800000000E+01 0. -1.
         -5    1    3    3    0  502 -0.39299495999E+01  0.27198953132E+02 -0.44102897340E+02  0.52132192636E+02  0.41800000000E+01 0. -1.
        -11    1    1    2    0    0 -0.47581684993E+02 -0.40706719915E+02 -0.10274348974E+03  0.12032156281E+03  0.00000000000E+00 0. -1.
         11    1    1    2    0    0  0.25301302514E+02  0.14101610854E+01 -0.14451901784E+01  0.25381746154E+02  0.00000000000E+00 0.  1.
</event>
<event>
 7    1  0.2490079E-009  0.1024969E+03  0.7561462E-02  0.1275131E+00
         -2   -1    0    0    0  501 -0.00000000000E+00  0.00000000000E+00  0.10037560662E+03  0.10037560662E+03  0.00000000000E+00 0.  1.
          2   -1    0    0  501    0  0.00000000000E+00 -0.00000000000E+00 -0.14951202889E+03  0.14951202889E+03  0.00000000000E+00 0. -1.
         25    2    1    2    0    0 -0.13006265890E+02 -0.41407469856E+02  0.11020712708E+02  0.13286135687E+03  0.12508773933E+03 0.  0.
          5    1    3    3  502    0  0.18652358456E+02  0.37351513243E+02  0.21646253840E+02  0.47213120240E+02  0.41800000000E+01 0.  1.
         -5    1    3    3    0  502 -0.31658624346E+02 -0.78758983099E+02 -0.10625541132E+02  0.85648236634E+02  0.41800000000E+01 0.  1.
        -11    1    1    2    0    0  0.33978119572E+02  0.45393221063E+02 -0.38773051647E+01  0.56833886226E+02  0.00000000000E+00 0.  1.
         11    1    1    2    0    0 -0.20971853682E+02 -0.39857512076E+01 -0.56279829815E+02  0.60192392406E+02  0.00000000000E+00 0. -1.
</event>
<event>
 7    1  0.2490079E-009  0.3059099E+03  0.7561462E-02  0.1082323E+00
         -2   -1    0    0    0  501 -0.00000000000E+00  0.00000000000E+00  0.56424787201E+02  0.56424787201E+02  0.00000000000E+00 0. -1.
          2   -1    0    0  501    0  0.00000000000E+00 -0.00000000000E+00 -0.18106564865E+04  0.18106564865E+04  0.00000000000E+00 0.  1.
         25    2    1    2    0    0  0.21009181453E+03 -0.19433238183E+03 -0.10400949275E+04  0.10859783042E+04  0.12509106165E+03 0.  0.
          5    1    3    3  502    0  0.59086672476E+02 -0.13757970656E+02 -0.38691920057E+03  0.39166881008E+03  0.41800000000E+01 0. -1.
         -5    1    3    3    0  502  0.15100514205E+03 -0.18057441117E+03 -0.65317572694E+03  0.69430949408E+03  0.41800000000E+01 0. -1.
        -11    1    1    2    0    0 -0.83372407763E+02 -0.24893931461E+00 -0.21489772016E+03  0.23050390556E+03  0.00000000000E+00 0. -1.
         11    1    1    2    0    0 -0.12671940677E+03  0.19458132114E+03 -0.49923905157E+03  0.55059906393E+03  0.00000000000E+00 0.  1.
</event>
<event>
 7    1  0.2490079E-009  0.1517978E+03  0.7561462E-02  0.1198281E+00
          2   -1    0    0  501    0  0.00000000000E+00  0.00000000000E+00  0.87280999572E+03  0.87280999572E+03  0.00000000000E+00 0. -1.
         -2   -1    0    0    0  501 -0.00000000000E+00 -0.00000000000E+00 -0.28767269517E+02  0.28767269517E+02  0.00000000000E+00 0.  1.
         25    2    1    2    0    0 -0.10649238264E+03  0.11600919404E+02  0.34005825690E+03  0.37783862400E+03  0.12508876372E+03 0.  0.
          5    1    3    3  502    0 -0.11991061023E+03 -0.24425705296E+02  0.28834148564E+03  0.31326259634E+03  0.41800000000E+01 0.  1.
         -5    1    3    3    0  502  0.13418227587E+02  0.36026624700E+02  0.51716771254E+02  0.64576027656E+02  0.41800000000E+01 0.  1.
        -11    1    1    2    0    0  0.90027400994E+02 -0.48365833943E+02  0.35967134628E+03  0.37390863076E+03  0.00000000000E+00 0.  1.
         11    1    1    2    0    0  0.16464981651E+02  0.36764914539E+02  0.14431312303E+03  0.14983001048E+03  0.00000000000E+00 0. -1.
</event>
<event>
 7    1  0.2978367E-009  0.9920511E+02  0.7561462E-02  0.1281976E+00
          1   -1    0    0  501    0  0.00000000000E+00  0.00000000000E+00  0.12690985394E+03  0.12690985394E+03  0.00000000000E+00 0. -1.
         -1   -1    0    0    0  501 -0.00000000000E+00 -0.00000000000E+00 -0.16060653975E+03  0.16060653975E+03  0.00000000000E+00 0.  1.
         25    2    1    2    0    0 -0.12176951293E+02  0.48925067649E+02  0.59429602325E+02  0.14738183282E+03  0.12509031388E+03 0.  0.
          5    1    3    3  502    0 -0.68427523654E+02  0.26471833804E+02  0.39817841805E+02  0.83582395900E+02  0.41800000000E+01 0.  1.
         -5    1    3    3    0  502  0.56250572361E+02  0.22453233845E+02  0.19611760519E+02  0.63799436923E+02  0.41800000000E+01 0.  1.
        -11    1    1    2    0    0  0.26876891198E+02 -0.30960871282E+02  0.31304133019E+01  0.41118637118E+02  0.00000000000E+00 0. -1.
         11    1    1    2    0    0 -0.14699939904E+02 -0.17964196367E+02 -0.96256701442E+02  0.99015923753E+02  0.00000000000E+00 0.  1.
</event>
<event>
 7    1  0.2490079E-009  0.7780386E+02  0.7561462E-02  0.1335402E+00
          1   -1    0    0  501    0  0.00000000000E+00  0.00000000000E+00  0.27054163493E+02  0.27054163493E+02  0.00000000000E+00 0. -1.
         -1   -1    0    0    0  501 -0.00000000000E+00 -0.00000000000E+00 -0.46275061606E+03  0.46275061606E+03  0.00000000000E+00 0.  1.
         25    2    1    2    0    0 -0.80242535448E+01 -0.40590416633E+02 -0.40686319775E+03  0.42766609477E+03  0.12509458966E+03 0.  0.
          5    1    3    3  502    0 -0.50824124222E+02 -0.48506527795E+02 -0.13436430800E+03  0.15168129254E+03  0.41800000000E+01 0. -1.
         -5    1    3    3    0  502  0.42799870677E+02  0.79161111623E+01 -0.27249888975E+03  0.27598480223E+03  0.41800000000E+01 0. -1.
        -11    1    1    2    0    0  0.39761857960E+01  0.27863169027E+02  0.23224247186E+01  0.28241102993E+02  0.00000000000E+00 0. -1.
         11    1    1    2    0    0  0.40480677488E+01  0.12727247606E+02 -0.31155679530E+02  0.33897581788E+02  0.00000000000E+00 0.  1.
</event>
<event>
 7    1  0.2549679E-009  0.9601385E+02  0.7561462E-02  0.1288909E+00
          4   -1    0    0  501    0  0.00000000000E+00  0.00000000000E+00  0.49566305562E+03  0.49566305562E+03  0.00000000000E+00 0.  1.
         -4   -1    0    0    0  501 -0.00000000000E+00 -0.00000000000E+00 -0.28213960536E+02  0.28213960536E+02  0.00000000000E+00 0. -1.
         25    2    1    2    0    0 -0.29190222833E+02  0.35002833454E+02  0.29636017088E+03  0.32489113435E+03  0.12509049059E+03 0.  0.
          5    1    3    3  502    0 -0.72200991967E+02  0.45850256143E+02  0.22523215441E+03  0.24096104459E+03  0.41800000000E+01 0.  1.
         -5    1    3    3    0  502  0.43010769133E+02 -0.10847422688E+02  0.71128016471E+02  0.83930089763E+02  0.41800000000E+01 0.  1.
        -11    1    1    2    0    0 -0.10660314044E+02 -0.11016834756E+02 -0.55667897426E+01  0.16309570553E+02  0.00000000000E+00 0. -1.
         11    1    1    2    0    0  0.39850536878E+02 -0.23985998698E+02  0.17665571395E+03  0.18267631125E+03  0.00000000000E+00 0.  1.
</event>
<event>
 7    1  0.2490079E-009  0.9690450E+02  0.7561462E-02  0.1286943E+00
          1   -1    0    0  501    0  0.00000000000E+00  0.00000000000E+00  0.62164279193E+02  0.62164279193E+02  0.00000000000E+00 0. -1.
         -1   -1    0    0    0  501 -0.00000000000E+00 -0.00000000000E+00 -0.25051613651E+03  0.25051613651E+03  0.00000000000E+00 0.  1.
         25    2    1    2    0    0 -0.17781153736E+02  0.23872627958E+02 -0.37466169494E+02  0.13392321708E+03  0.12508254244E+03 0.  0.
          5    1    3    3  502    0 -0.60122294536E+02  0.16725698480E+02  0.16641064481E+02  0.64721223080E+02  0.41800000000E+01 0.  1.
         -5    1    3    3    0  502  0.42341140800E+02  0.71469294782E+01 -0.54107233975E+02  0.69201994001E+02  0.41800000000E+01 0.  1.
        -11    1    1    2    0    0  0.32853721303E+02  0.22196130314E+02 -0.10407688927E+03  0.11137339935E+03  0.00000000000E+00 0.  1.
         11    1    1    2    0    0 -0.15072567567E+02 -0.46068758271E+02 -0.46808798560E+02  0.67383799272E+02  0.00000000000E+00 0. -1.
</event>
<event>
 7    1  0.2490079E-009  0.1200530E+03  0.7561462E-02  0.1243010E+00
         -2   -1    0    0    0  501 -0.00000000000E+00  0.00000000000E+00  0.26810581239E+02  0.26810581239E+02  0.00000000000E+00 0.  1.
          2   -1    0    0  501    0  0.00000000000E+00 -0.00000000000E+00 -0.72376983707E+03  0.72376983707E+03  0.00000000000E+00 0. -1.
         25    2    1    2    0    0  0.14759289002E+02 -0.77571715756E+02 -0.47662591837E+03  0.49905181775E+03  0.12508094595E+03 0.  0.
          5    1    3    3  502    0  0.61139668738E+02 -0.52557599420E+02 -0.38407654029E+03  0.39246989891E+03  0.41800000000E+01 0. -1.
         -5    1    3    3    0  502 -0.46380379735E+02 -0.25014116336E+02 -0.92549378082E+02  0.10658191884E+03  0.41800000000E+01 0. -1.
        -11    1    1    2    0    0 -0.41890986565E+02  0.29244268381E+02 -0.46529048620E+02  0.69101623382E+02  0.00000000000E+00 0.  1.
         11    1    1    2    0    0  0.27131697563E+02  0.48327447374E+02 -0.17380428884E+03  0.18242697718E+03  0.00000000000E+00 0. -1.
</event>
<event>
 7    1  0.2490079E-009  0.2335836E+03  0.7561462E-02  0.1124143E+00
          1   -1    0    0  501    0  0.00000000000E+00  0.00000000000E+00  0.89204300553E+03  0.89204300553E+03  0.00000000000E+00 0. -1.
         -1   -1    0    0    0  501 -0.00000000000E+00 -0.00000000000E+00 -0.79256396825E+02  0.79256396825E+02  0.00000000000E+00 0.  1.
         25    2    1    2    0    0 -0.20949218526E+03 -0.92986176929E+02  0.54565155698E+03  0.60491017793E+03  0.12508915598E+03 0.  0.
          5    1    3    3  502    0 -0.15137762932E+03 -0.35868642301E+02  0.46431856067E+03  0.48970495642E+03  0.41800000000E+01 0. -1.
         -5    1    3    3    0  502 -0.58114555940E+02 -0.57117534628E+02  0.81332996303E+02  0.11520522150E+03  0.41800000000E+01 0. -1.
        -11    1    1    2    0    0  0.66795305146E+02  0.39231496878E+02  0.27203298289E+02  0.82102025399E+02  0.00000000000E+00 0.  1.
         11    1    1    2    0    0  0.14269688012E+03  0.53754680051E+02  0.23993175344E+03  0.28428719903E+03  0.00000000000E+00 0. -1.
</event>
<event>
 7    1  0.2490079E-009  0.8983847E+02  0.7561462E-02  0.1303243E+00
         -1   -1    0    0    0  501 -0.00000000000E+00  0.00000000000E+00  0.45679640155E+02  0.45679640155E+02  0.00000000000E+00 0.  1.
          1   -1    0    0  501    0  0.00000000000E+00 -0.00000000000E+00 -0.35238928291E+03  0.35238928291E+03  0.00000000000E+00 0. -1.
         25    2    1    2    0    0 -0.13331665391E+02  0.64115541188E+02 -0.15509923716E+03  0.20974167002E+03  0.12508900372E+03 0.  0.
          5    1    3    3  502    0  0.28810000420E+02  0.24578826382E+02 -0.14625336656E+03  0.15113455747E+03  0.41800000000E+01 0.  1.
         -5    1    3    3    0  502 -0.42141665811E+02  0.39536714806E+02 -0.88458706012E+01  0.58607112552E+02  0.41800000000E+01 0.  1.
        -11    1    1    2    0    0 -0.17417413486E+02 -0.42851307751E+02 -0.14253965018E+03  0.14985710775E+03  0.00000000000E+00 0. -1.
         11    1    1    2    0    0  0.30749078878E+02 -0.21264233436E+02 -0.90707554101E+01  0.38470145297E+02  0.00000000000E+00 0.  1.
</event>
<event>
 7    1  0.2490079E-009  0.1702461E+03  0.7561462E-02  0.1177591E+00
         -2   -1    0    0    0  501 -0.00000000000E+00  0.00000000000E+00  0.73046032238E+02  0.73046032238E+02  0.00000000000E+00 0.  1.
          2   -1    0    0  501    0  0.00000000000E+00 -0.00000000000E+00 -0.46772266910E+03  0.46772266910E+03  0.00000000000E+00 0. -1.
         25    2    1    2    0    0 -0.97107486784E+02 -0.10552626612E+03 -0.24168858634E+03  0.30761479645E+03  0.12509130023E+03 0.  0.
          5    1    3    3  502    0 -0.15893693814E+02 -0.10748876408E+03 -0.13097618785E+03  0.17023124886E+03  0.41800000000E+01 0.  1.
         -5    1    3    3    0  502 -0.81213792970E+02  0.19624979567E+01 -0.11071239849E+03  0.13738354758E+03  0.41800000000E+01 0.  1.
        -11    1    1    2    0    0  0.50248397729E+02  0.86085439378E+02 -0.15278105239E+03  0.18242163884E+03  0.00000000000E+00 0. -1.
         11    1    1    2    0    0  0.46859089055E+02  0.19440826742E+02 -0.20699813803E+00  0.50732266061E+02  0.00000000000E+00 0.  1.
</event>
<event>
 7    1  0.2490079E-009  0.1390196E+03  0.7561462E-02  0.1214654E+00
          3   -1    0    0  501    0  0.00000000000E+00  0.00000000000E+00  0.61076773284E+02  0.61076773284E+02  0.00000000000E+00 0. -1.
         -3   -1    0    0    0  501 -0.00000000000E+00 -0.00000000000E+00 -0.52932519767E+03  0.52932519767E+03  0.00000000000E+00 0.  1.
         25    2    1    2    0    0 -0.69198498756E+02  0.97998939030E+02 -0.12043811308E+03  0.21105213724E+03  0.12508173836E+03 0.  0.
          5    1    3    3  502    0  0.76625189409E+01  0.33547546250E+02  0.18769133556E+02  0.39419599571E+02  0.41800000000E+01 0. -1.
         -5    1    3    3    0  502 -0.76861017697E+02  0.64451392780E+02 -0.13920724663E+03  0.17163253767E+03  0.41800000000E+01 0. -1.
        -11    1    1    2    0    0 -0.13062283773E+02  0.22990660569E+01 -0.76861021564E+01  0.15329224653E+02  0.00000000000E+00 0.  1.
         11    1    1    2    0    0  0.82260782529E+02 -0.10029800509E+03 -0.34012420915E+03  0.36402060906E+03  0.00000000000E+00 0. -1.
</event>
<event>
 7    1  0.2490079E-009  0.1650024E+03  0.7561462E-02  0.1183162E+00
          4   -1    0    0  501    0  0.00000000000E+00  0.00000000000E+00  0.10462301169E+04  0.10462301169E+04  0.00000000000E+00 0. -1.
         -4   -1    0    0    0  501 -0.00000000000E+00 -0.00000000000E+00 -0.32421418482E+02  0.32421418482E+02  0.00000000000E+00 0.  1.
         25    2    1    2    0    0  0.58953060477E+02 -0.13574560846E+03  0.53867043552E+03  0.57246750614E+03  0.12510345290E+03 0.  0.
          5    1    3    3  502    0 -0.10279447265E+02  0.11467229907E+02  0.89109855410E+01  0.18276828531E+02  0.41800000000E+01 0. -1.
         -5    1    3    3    0  502  0.69232507742E+02 -0.14721283837E+03  0.52975944998E+03  0.55419067761E+03  0.41800000000E+01 0. -1.
        -11    1    1    2    0    0 -0.17316213887E+02  0.79325144059E+02  0.37653961416E+03  0.38519399109E+03  0.00000000000E+00 0. -1.
         11    1    1    2    0    0 -0.41636846590E+02  0.56420464402E+02  0.98598648730E+02  0.12099003814E+03  0.00000000000E+00 0.  1.
</event>
<event>
 7    1  0.2490079E-009  0.1086174E+03  0.7561462E-02  0.1263152E+00
          1   -1    0    0  501    0  0.00000000000E+00  0.00000000000E+00  0.64450191783E+02  0.64450191783E+02  0.00000000000E+00 0. -1.
         -1   -1    0    0    0  501 -0.00000000000E+00 -0.00000000000E+00 -0.24043217184E+03  0.24043217184E+03  0.00000000000E+00 0.  1.
         25    2    1    2    0    0  0.25135723842E+02  0.47843884296E+02 -0.13311362205E+03  0.19049325202E+03  0.12509037058E+03 0.  0.
          5    1    3    3  502    0 -0.41647379722E+02 -0.62314905870E+01 -0.76744462450E+02  0.87638579572E+02  0.41800000000E+01 0. -1.
         -5    1    3    3    0  502  0.66783103564E+02  0.54075374883E+02 -0.56369159601E+02  0.10285467245E+03  0.41800000000E+01 0. -1.
        -11    1    1    2    0    0  0.23369935451E+02 -0.44265749056E+01 -0.43170720506E+02  0.49289548156E+02  0.00000000000E+00 0.  1.
         11    1    1    2    0    0 -0.48505659293E+02 -0.43417309390E+02  0.30236249769E+00  0.65099563449E+02  0.00000000000E+00 0. -1.
</event>
<event>
 7    1  0.2490079E-009  0.9331661E+02  0.7561462E-02  0.1295013E+00
         -2   -1    0    0    0  501 -0.00000000000E+00  0.00000000000E+00  0.98958676880E+02  0.98958676880E+02  0.00000000000E+00 0.  1.
          2   -1    0    0  501    0  0.00000000000E+00 -0.00000000000E+00 -0.15016708099E+03  0.15016708099E+03  0.00000000000E+00 0. -1.
         25    2    1    2    0    0 -0.54701715287E+02 -0.66089247293E+01 -0.31339622300E+02  0.14023359301E+03  0.12508930067E+03 0.  0.
          5    1    3    3  502    0  0.21902130236E+01 -0.42121205139E+02 -0.54604780860E+02  0.69124145190E+02  0.41800000000E+01 0. -1.
         -5    1    3    3    0  502 -0.56891928310E+02  0.35512280409E+02  0.23265158560E+02  0.71109447822E+02  0.41800000000E+01 0. -1.
        -11    1    1    2    0    0  0.84801084254E+01  0.25685445848E+02 -0.45324362053E+02  0.52782119727E+02  0.00000000000E+00 0. -1.
         11    1    1    2    0    0  0.46221606861E+02 -0.19076521119E+02  0.25455580245E+02  0.56110045130E+02  0.00000000000E+00 0.  1.
</event>
<event>
 7    1  0.2490079E-009  0.8892894E+02  0.7561462E-02  0.1305466E+00
          1   -1    0    0  501    0  0.00000000000E+00  0.00000000000E+00  0.48658860770E+02  0.48658860770E+02  0.00000000000E+00 0. -1.
         -1   -1    0    0    0  501 -0.00000000000E+00 -0.00000000000E+00 -0.26958561156E+03  0.26958561156E+03  0.00000000000E+00 0.  1.
         25    2    1    2    0    0  0.28174134960E+02 -0.56003772729E+01 -0.90622298712E+02  0.15711650720E+03  0.12509216484E+03 0.  0.
          5    1    3    3  502    0  0.63564832014E+02 -0.17423125420E+02 -0.82049676525E+01  0.66549583489E+02  0.41800000000E+01 0. -1.
         -5    1    3    3    0  502 -0.35390697054E+02  0.11822748147E+02 -0.82417331059E+02  0.90566923712E+02  0.41800000000E+01 0. -1.
        -11    1    1    2    0    0 -0.47766365108E+02  0.18042443820E+02 -0.32313822200E+02  0.60426306521E+02  0.00000000000E+00 0. -1.
         11    1    1    2    0    0  0.19592230148E+02 -0.12442066547E+02 -0.97990629876E+02  0.10070165860E+03  0.00000000000E+00 0.  1.
</event>
<event>
 7    1  0.2490079E-009  0.1979578E+03  0.7561462E-02  0.1151473E+00
         -1   -1    0    0    0  501 -0.00000000000E+00  0.00000000000E+00  0.14579902651E+03  0.14579902651E+03  0.00000000000E+00 0.  1.
          1   -1    0    0  501    0  0.00000000000E+00 -0.00000000000E+00 -0.29646948360E+03  0.29646948360E+03  0.00000000000E+00 0. -1.
         25    2    1    2    0    0 -0.16824052979E+03 -0.51912736807E+02 -0.65819402941E+02  0.22578841420E+03  0.12509358928E+03 0.  0.
          5    1    3    3  502    0 -0.10869198660E+03 -0.76038486029E+02 -0.86202085229E+02  0.15825318704E+03  0.41800000000E+01 0.  1.
         -5    1    3    3    0  502 -0.59548543187E+02  0.24125749222E+02  0.20382682288E+02  0.67535227167E+02  0.41800000000E+01 0.  1.
        -11    1    1    2    0    0  0.13562916403E+03 -0.21861286669E+01 -0.51921357450E+02  0.14524419662E+03  0.00000000000E+00 0.  1.
         11    1    1    2    0    0  0.32611365763E+02  0.54098865474E+02 -0.32929696701E+02  0.71235899287E+02  0.00000000000E+00 0. -1.
</event>
<event>
 7    1  0.2490079E-009  0.1311351E+03  0.7561462E-02  0.1225781E+00
         -1   -1    0    0    0  501 -0.00000000000E+00  0.00000000000E+00  0.91082270030E+03  0.91082270030E+03  0.00000000000E+00 0.  1.
          1   -1    0    0  501    0  0.00000000000E+00 -0.00000000000E+00 -0.25298090778E+02  0.25298090778E+02  0.00000000000E+00 0. -1.
         25    2    1    2    0    0  0.26244728003E+02 -0.10324857618E+03  0.48145070460E+03  0.50871591910E+03  0.12509217064E+03 0.  0.
          5    1    3    3  502    0  0.42217642170E+02 -0.10247075085E+03  0.47939846151E+03  0.49205989614E+03  0.41800000000E+01 0. -1.
         -5    1    3    3    0  502 -0.15972914167E+02 -0.77782533300E+00  0.20522430904E+01  0.16656022963E+02  0.41800000000E+01 0. -1.
        -11    1    1    2    0    0 -0.37359073503E+02  0.11363791748E+03  0.31320250438E+03  0.33526867646E+03  0.00000000000E+00 0.  1.
         11    1    1    2    0    0  0.11114345501E+02 -0.10389341304E+02  0.90871400534E+02  0.92136195513E+02  0.00000000000E+00 0. -1.
</event>
<event>
 7    1  0.2490079E-009  0.1246508E+03  0.7561462E-02  0.1235616E+00
         -2   -1    0    0    0  501 -0.00000000000E+00  0.00000000000E+00  0.26386917205E+03  0.26386917205E+03  0.00000000000E+00 0. -1.
          2   -1    0    0  501    0  0.00000000000E+00 -0.00000000000E+00 -0.11102784840E+03  0.11102784840E+03  0.00000000000E+00 0.  1.
         25    2    1    2    0    0 -0.26124825531E+02  0.11045726495E+03  0.15625007599E+03  0.23009726529E+03  0.12508937347E+03 0.  0.
          5    1    3    3  502    0  0.24080628857E+01  0.87960779051E+02  0.16963952938E+03  0.19114899881E+03  0.41800000000E+01 0. -1.
         -5    1    3    3    0  502 -0.28532888417E+02  0.22496485904E+02 -0.13389453387E+02  0.38948266476E+02  0.41800000000E+01 0. -1.
        -11    1    1    2    0    0 -0.15126819342E+02 -0.42781543989E+02 -0.37164243161E+02  0.58653747870E+02  0.00000000000E+00 0.  1.
         11    1    1    2    0    0  0.41251644873E+02 -0.67675720966E+02  0.33755490816E+02  0.86146007297E+02  0.00000000000E+00 0. -1.
</event>
<event>
 7    1  0.2490079E-009  0.1116082E+03  0.7561462E-02  0.1257620E+00
         -1   -1    0    0    0  501 -0.00000000000E+00  0.00000000000E+00  0.15480263430E+03  0.15480263430E+03  0.00000000000E+00 0.  1.
          1   -1    0    0  501    0  0.00000000000E+00 -0.00000000000E+00 -0.12410864951E+03  0.12410864951E+03  0.00000000000E+00 0. -1.
         25    2    1    2    0    0 -0.44325455396E+02 -0.69997122092E+02  0.40066085790E+02  0.15529182165E+03  0.12508363419E+03 0.  0.
          5    1    3    3  502    0 -0.93140506154E+01 -0.86220503017E+02 -0.14809968761E+02  0.88076865601E+02  0.41800000000E+01 0. -1.
         -5    1    3    3    0  502 -0.35011404780E+02  0.16223380925E+02  0.54876054550E+02  0.67214956047E+02  0.41800000000E+01 0. -1.
        -11    1    1    2    0    0  0.15430945675E+02  0.66742586934E+02  0.29908563892E+02  0.74747636679E+02  0.00000000000E+00 0.  1.
         11    1    1    2    0    0  0.28894509720E+02  0.32545351580E+01 -0.39280664891E+02  0.48871825476E+02  0.00000000000E+00 0. -1.
</event>
<event>
 7    1  0.2490079E-009  0.1709848E+03  0.7561462E-02  0.1176825E+00
          2   -1    0    0  501    0  0.00000000000E+00  0.00000000000E+00  0.17036824419E+03  0.17036824419E+03  0.00000000000E+00 0. -1.
         -2   -1    0    0    0  501 -0.00000000000E+00 -0.00000000000E+00 -0.25606616827E+03  0.25606616827E+03  0.00000000000E+00 0.  1.
         25    2    1    2    0    0 -0.76215593691E+02 -0.13490838203E+03 -0.13375911695E+03  0.23989085468E+03  0.12508809906E+03 0.  0.
          5    1    3    3  502    0 -0.88302599472E+02 -0.12848038625E+03 -0.15127529579E+03  0.21726998468E+03  0.41800000000E+01 0.  1.
         -5    1    3    3    0  502  0.12087005781E+02 -0.64279957760E+01  0.17516178839E+02  0.22620870000E+02  0.41800000000E+01 0.  1.
        -11    1    1    2    0    0  0.78011585581E+01  0.88929990223E+02  0.53257705962E+02  0.10395087532E+03  0.00000000000E+00 0. -1.
         11    1    1    2    0    0  0.68414435133E+02  0.45978391808E+02 -0.51965130796E+01  0.82592682460E+02  0.00000000000E+00 0.  1.
</event>
<event>
 7    1  0.2490079E-009  0.9843230E+02  0.7561462E-02  0.1283628E+00
          1   -1    0    0  501    0  0.00000000000E+00  0.00000000000E+00  0.12447633406E+03  0.12447633406E+03  0.00000000000E+00 0. -1.
         -1   -1    0    0    0  501 -0.00000000000E+00 -0.00000000000E+00 -0.10576208750E+03  0.10576208750E+03  0.00000000000E+00 0.  1.
         25    2    1    2    0    0  0.77218913624E+01 -0.33231911185E+02 -0.16603514074E+01  0.12966815929E+03  0.12508831775E+03 0.  0.
          5    1    3    3  502    0 -0.32664423388E+01 -0.80348616185E+02 -0.69329620999E+01  0.80821458362E+02  0.41800000000E+01 0. -1.
         -5    1    3    3    0  502  0.10988333701E+02  0.47116705000E+02  0.52726106926E+01  0.48846700923E+02  0.41800000000E+01 0. -1.
        -11    1    1    2    0    0 -0.31682613125E+02  0.73785470720E+01 -0.26474048791E+02  0.41941699902E+02  0.00000000000E+00 0.  1.
         11    1    1    2    0    0  0.23960721762E+02  0.25853364113E+02  0.46848646751E+02  0.58628562371E+02  0.00000000000E+00 0. -1.
</event>
<event>
 7    1  0.2490079E-009  0.1374620E+03  0.7561462E-02  0.1216785E+00
         -1   -1    0    0    0  501 -0.00000000000E+00  0.00000000000E+00  0.13313769120E+02  0.13313769120E+02  0.00000000000E+00 0.  1.
          1   -1    0    0  501    0  0.00000000000E+00 -0.00000000000E+00 -0.14377171767E+04  0.14377171767E+04  0.00000000000E+00 0. -1.
         25    2    1    2    0    0  0.56232337792E+02 -0.65086533665E+02 -0.74565786093E+03  0.76095466828E+03  0.12509208184E+03 0.  0.
          5    1    3    3  502    0  0.37306627777E+02  0.33282048006E+02 -0.29927124021E+03  0.30344723893E+03  0.41800000000E+01 0. -1.
         -5    1    3    3    0  502  0.18925710015E+02 -0.98368581670E+02 -0.44638662072E+03  0.45750742935E+03  0.41800000000E+01 0. -1.
        -11    1    1    2    0    0 -0.79232971298E+02  0.63320628315E+02 -0.54576783966E+03  0.55511251159E+03  0.00000000000E+00 0.  1.
         11    1    1    2    0    0  0.23000633506E+02  0.17659053493E+01 -0.13297770695E+03  0.13496376591E+03  0.00000000000E+00 0. -1.
</event>
<event>
 7    1  0.2490079E-009  0.9164779E+02  0.7561462E-02  0.1298910E+00
         -4   -1    0    0    0  501 -0.00000000000E+00  0.00000000000E+00  0.17086871737E+03  0.17086871737E+03  0.00000000000E+00 0.  1.
          4   -1    0    0  501    0  0.00000000000E+00 -0.00000000000E+00 -0.86405309745E+02  0.86405309745E+02  0.00000000000E+00 0. -1.
         25    2    1    2    0    0  0.38772767344E+02 -0.36371868003E+02  0.30464871462E+02  0.13928498461E+03  0.12508380501E+03 0.  0.
          5    1    3    3  502    0 -0.32687967037E+02 -0.34279985067E+01 -0.26189433727E+02  0.42232845058E+02  0.41800000000E+01 0.  1.
         -5    1    3    3    0  502  0.71460734381E+02 -0.32943869496E+02  0.56654305188E+02  0.97052139554E+02  0.41800000000E+01 0.  1.
        -11    1    1    2    0    0 -0.20252097075E+02 -0.91465527569E+01  0.64079865804E+02  0.67823565703E+02  0.00000000000E+00 0.  1.
         11    1    1    2    0    0 -0.18520670269E+02  0.45518420760E+02 -0.10081329637E+02  0.50165476804E+02  0.00000000000E+00 0. -1.
</event>
<event>
 7    1  0.2490079E-009  0.1812142E+03  0.7561462E-02  0.1166633E+00
          2   -1    0    0  501    0  0.00000000000E+00  0.00000000000E+00  0.24420494804E+04  0.24420494804E+04  0.00000000000E+00 0. -1.
         -2   -1    0    0    0  501 -0.00000000000E+00 -0.00000000000E+00 -0.18681694310E+02  0.18681694310E+02  0.00000000000E+00 0.  1.
         25    2    1    2    0    0 -0.93211974259E+02 -0.11824528568E+03  0.18899350947E+04  0.19000452665E+04  0.12508770058E+03 0.  0.
          5    1    3    3  502    0 -0.82628325969E+02 -0.14157026778E+03  0.17545261609E+04  0.17621717006E+04  0.41800000000E+01 0.  1.
         -5    1    3    3    0  502 -0.10583648290E+02  0.23324982098E+02  0.13540893387E+03  0.13787356590E+03  0.41800000000E+01 0.  1.
        -11    1    1    2    0    0  0.32482674215E+01  0.70650514963E+02  0.20633245191E+03  0.21811723274E+03  0.00000000000E+00 0.  1.
         11    1    1    2    0    0  0.89963706837E+02  0.47594770718E+02  0.32710023947E+03  0.34256867547E+03  0.00000000000E+00 0. -1.
</event>
<event>
 7    1  0.2490079E-009  0.1339547E+03  0.7561462E-02  0.1221703E+00
         -2   -1    0    0    0  501 -0.00000000000E+00  0.00000000000E+00  0.98455552172E+02  0.98455552172E+02  0.00000000000E+00 0.  1.
          2   -1    0    0  501    0  0.00000000000E+00 -0.00000000000E+00 -0.23613034917E+03  0.23613034917E+03  0.00000000000E+00 0. -1.
         25    2    1    2    0    0 -0.11264277040E+01 -0.10851960590E+03 -0.35640296687E+02  0.16939519304E+03  0.12508687770E+03 0.  0.
          5    1    3    3  502    0  0.30108312065E+02 -0.11389744086E+03  0.46342614398E+01  0.11797493916E+03  0.41800000000E+01 0.  1.
         -5    1    3    3    0  502 -0.31234739769E+02  0.53778349604E+01 -0.40274558127E+02  0.51420253885E+02  0.41800000000E+01 0.  1.
        -11    1    1    2    0    0  0.13690982638E+02  0.63052287102E+01  0.57349804233E+01  0.16127272402E+02  0.00000000000E+00 0.  1.
         11    1    1    2    0    0 -0.12564554934E+02  0.10221437719E+03 -0.10776948073E+03  0.14906343590E+03  0.00000000000E+00 0. -1.
</event>
<event>
 7    1  0.2490079E-009  0.1120268E+03  0.7561462E-02  0.1256862E+00
          2   -1    0    0  501    0  0.00000000000E+00  0.00000000000E+00  0.67111646289E+03  0.67111646289E+03  0.00000000000E+00 0.  1.
         -2   -1    0    0    0  501 -0.00000000000E+00 -0.00000000000E+00 -0.22724317949E+02  0.22724317949E+02  0.00000000000E+00 0. -1.
         25    2    1    2    0    0  0.27591124365E+02 -0.56000338244E+02  0.40139608557E+03  0.42504598369E+03  0.12509181713E+03 0.  0.
          5    1    3    3  502    0  0.33843538321E+02 -0.92677879656E+02  0.32957170360E+03  0.34404876788E+03  0.41800000000E+01 0.  1.
         -5    1    3    3    0  502 -0.62524139564E+01  0.36677541412E+02  0.71824381968E+02  0.80997215812E+02  0.41800000000E+01 0.  1.
        -11    1    1    2    0    0 -0.42167140315E+02  0.15683069130E+02  0.50314185607E+02  0.67494767597E+02  0.00000000000E+00 0. -1.
         11    1    1    2    0    0  0.14576015950E+02  0.40317269115E+02  0.19668187376E+03  0.20130002955E+03  0.00000000000E+00 0.  1.
</event>
<event>
 7    1  0.2490079E-009  0.9579405E+02  0.7561462E-02  0.1289398E+00
          2   -1    0    0  501    0  0.00000000000E+00  0.00000000000E+00  0.51510955623E+03  0.51510955623E+03  0.00000000000E+00 0. -1.
         -2   -1    0    0    0  501 -0.00000000000E+00 -0.00000000000E+00 -0.36310973196E+02  0.36310973196E+02  0.00000000000E+00 0.  1.
         25    2    1    2    0    0 -0.76272780410E+02  0.57665464693E+00  0.19714779112E+03  0.24562556378E+03  0.12508715552E+03 0.  0.
          5    1    3    3  502    0 -0.14489245219E+02 -0.13938121770E+02  0.17803138104E+03  0.17921175882E+03  0.41800000000E+01 0.  1.
         -5    1    3    3    0  502 -0.61783535190E+02  0.14514776417E+02  0.19116410087E+02  0.66413804963E+02  0.41800000000E+01 0.  1.
        -11    1    1    2    0    0  0.67473676996E+02  0.31300917706E+02  0.12305398016E+03  0.14378708764E+03  0.00000000000E+00 0.  1.
         11    1    1    2    0    0  0.87991034139E+01 -0.31877572353E+02  0.15859681174E+03  0.16200787800E+03  0.00000000000E+00 0. -1.
</event>
<event>
 7    1  0.2490079E-009  0.9813545E+02  0.7561462E-02  0.1284266E+00
          4   -1    0    0  501    0  0.00000000000E+00  0.00000000000E+00  0.40234451674E+03  0.40234451674E+03  0.00000000000E+00 0. -1.
         -4   -1    0    0    0  501 -0.00000000000E+00 -0.00000000000E+00 -0.43611154171E+02  0.43611154171E+02  0.00000000000E+00 0.  1.
         25    2    1    2    0    0 -0.29424486571E+02 -0.40964130502E+02  0.10104310768E+03  0.16852730607E+03  0.12509149805E+03 0.  0.
          5    1    3    3  502    0 -0.72650711768E+02 -0.49319512591E+01  0.32794425307E+02  0.79971224792E+02  0.41800000000E+01 0.  1.
         -5    1    3    3    0  502  0.43226225196E+02 -0.36032179243E+02  0.68248682375E+02  0.88556081280E+02  0.41800000000E+01 0.  1.
        -11    1    1    2    0    0 -0.10016682612E+02 -0.29788904936E-01 -0.31159626100E+01  0.10490187840E+02  0.00000000000E+00 0.  1.
         11    1    1    2    0    0  0.39441169183E+02  0.40993919407E+02  0.26080621750E+03  0.26693817700E+03  0.00000000000E+00 0. -1.
</event>
<event>
 7    1  0.2490079E-009  0.1197150E+03  0.7561462E-02  0.1243568E+00
         -2   -1    0    0    0  501 -0.00000000000E+00  0.00000000000E+00  0.14816054943E+02  0.14816054943E+02  0.00000000000E+00 0. -1.
          2   -1    0    0  501    0  0.00000000000E+00 -0.00000000000E+00 -0.16153529782E+04  0.16153529782E+04  0.00000000000E+00 0.  1.
         25    2    1    2    0    0  0.80287162746E+02 -0.10198000413E+02 -0.12614250578E+04  0.12701933280E+04  0.12509151169E+03 0.  0.
          5    1    3    3  502    0  0.10865891337E+03 -0.19440400642E+02 -0.11286335685E+04  0.11340264075E+04  0.41800000000E+01 0. -1.
         -5    1    3    3    0  502 -0.28371750626E+02  0.92424002294E+01 -0.13279148934E+03  0.13616692050E+03  0.41800000000E+01 0. -1.
        -11    1    1    2    0    0 -0.37955963118E+02 -0.23576441738E+02 -0.26179085793E+03  0.26557665002E+03  0.00000000000E+00 0.  1.
         11    1    1    2    0    0 -0.42331199628E+02  0.33774442151E+02 -0.77321007498E+02  0.94399055107E+02  0.00000000000E+00 0. -1.
</event>
<event>
 7    1  0.2490079E-009  0.1506124E+03  0.7561462E-02  0.1199723E+00
         -2   -1    0    0    0  501 -0.00000000000E+00  0.00000000000E+00  0.14457470893E+04  0.14457470893E+04  0.00000000000E+00 0. -1.
          2   -1    0    0  501    0  0.00000000000E+00 -0.00000000000E+00 -0.23027465833E+02  0.23027465833E+02  0.00000000000E+00 0.  1.
         25    2    1    2    0    0 -0.11218656811E+03  0.94791464034E+02  0.75127974240E+03  0.77565434427E+03  0.12508861945E+03 0.  0.
          5    1    3    3  502    0 -0.38473593024E+02  0.16030261597E+02  0.50522724925E+03  0.50696077997E+03  0.41800000000E+01 0.  1.
         -5    1    3    3    0  502 -0.73712975088E+02  0.78761202436E+02  0.24605249316E+03  0.26869356430E+03  0.41800000000E+01 0.  1.
        -11    1    1    2    0    0  0.85268342533E+02 -0.49224827611E+02  0.57260121914E+03  0.58100424272E+03  0.00000000000E+00 0. -1.
         11    1    1    2    0    0  0.26918225579E+02 -0.45566636423E+02  0.98838661906E+02  0.11211596813E+03  0.00000000000E+00 0.  1.
</event>
<event>
 7    1  0.2490079E-009  0.1852435E+03  0.7561462E-02  0.1162823E+00
         -2   -1    0    0    0  501 -0.00000000000E+00  0.00000000000E+00  0.25389332981E+02  0.25389332981E+02  0.00000000000E+00 0.  1.
          2   -1    0    0  501    0  0.00000000000E+00 -0.00000000000E+00 -0.19113856972E+04  0.19113856972E+04  0.00000000000E+00 0. -1.
         25    2    1    2    0    0  0.13142782213E+03 -0.78168853043E+02 -0.14858782328E+04  0.14989549094E+04  0.12509218856E+03 0.  0.
          5    1    3    3  502    0  0.13452621298E+03 -0.10275697947E+03 -0.13670778634E+04  0.13775251925E+04  0.41800000000E+01 0.  1.
         -5    1    3    3    0  502 -0.30983908495E+01  0.24588126429E+02 -0.11880036934E+03  0.12142971689E+03  0.41800000000E+01 0.  1.
        -11    1    1    2    0    0 -0.28343773600E+02 -0.19189750759E+02 -0.55974243816E+02  0.65610456536E+02  0.00000000000E+00 0.  1.
         11    1    1    2    0    0 -0.10308404853E+03  0.97358603802E+02 -0.34414388762E+03  0.37220966427E+03  0.00000000000E+00 0. -1.
</event>
<event>
 7    1  0.2490079E-009  0.1270467E+03  0.7561462E-02  0.1231905E+00
          1   -1    0    0  501    0  0.00000000000E+00  0.00000000000E+00  0.30699074418E+03  0.30699074418E+03  0.00000000000E+00 0. -1.
         -1   -1    0    0    0  501 -0.00000000000E+00 -0.00000000000E+00 -0.73576487402E+02  0.73576487402E+02  0.00000000000E+00 0.  1.
         25    2    1    2    0    0  0.88910543669E+02 -0.53224824758E+02  0.13897542934E+03  0.21377406115E+03  0.12508881849E+03 0.  0.
          5    1    3    3  502    0  0.48457099021E+02  0.28772684969E+02  0.98792608594E+02  0.11381304740E+03  0.41800000000E+01 0.  1.
         -5    1    3    3    0  502  0.40453444648E+02 -0.81997509728E+02  0.40182820751E+02  0.99961013745E+02  0.41800000000E+01 0.  1.
        -11    1    1    2    0    0 -0.61181409019E+02  0.23869578218E+02  0.10608375031E+03  0.12476651656E+03  0.00000000000E+00 0. -1.
         11    1    1    2    0    0 -0.27729134650E+02  0.29355246540E+02 -0.11644922873E+02  0.42026653883E+02  0.00000000000E+00 0.  1.
</event>
<event>
 7    1  0.2490079E-009  0.1469544E+03  0.7561462E-02  0.1204266E+00
          1   -1    0    0  501    0  0.00000000000E+00  0.00000000000E+00  0.70261250432E+02  0.70261250432E+02  0.00000000000E+00 0. -1.
         -1   -1    0    0    0  501 -0.00000000000E+00 -0.00000000000E+00 -0.41351052109E+03  0.41351052109E+03  0.00000000000E+00 0.  1.
         25    2    1    2    0    0  0.14292280266E+02  0.12273432560E+03 -0.12052170031E+03  0.21317247276E+03  0.12509611880E+03 0.  0.
          5    1    3    3  502    0 -0.27896155338E+02  0.10973123434E+02 -0.82282974379E+02  0.87673058537E+02  0.41800000000E+01 0.  1.
         -5    1    3    3    0  502  0.42188435604E+02  0.11176120217E+03 -0.38238725933E+02  0.12549941422E+03  0.41800000000E+01 0.  1.
        -11    1    1    2    0    0  0.30532194849E+02 -0.54495615933E+02 -0.14495487261E+03  0.15784138295E+03  0.00000000000E+00 0.  1.
         11    1    1    2    0    0 -0.44824475116E+02 -0.68238709668E+02 -0.77772697745E+02  0.11275791582E+03  0.00000000000E+00 0. -1.
</event>
<event>
 7    1  0.2490079E-009  0.1128435E+03  0.7561462E-02  0.1255393E+00
         -3   -1    0    0    0  501 -0.00000000000E+00  0.00000000000E+00  0.31563681550E+02  0.31563681550E+02  0.00000000000E+00 0.  1.
          3   -1    0    0  501    0  0.00000000000E+00 -0.00000000000E+00 -0.59023047407E+03  0.59023047407E+03  0.00000000000E+00 0. -1.
         25    2    1    2    0    0  0.73358890622E+02 -0.42422595408E+01 -0.40367142473E+03  0.42895060045E+03  0.12509386430E+03 0.  0.
          5    1    3    3  502    0 -0.39234751964E+01 -0.36912329579E+02 -0.25881530234E+03  0.26149712591E+03  0.41800000000E+01 0. -1.
         -5    1    3    3    0  502  0.77282365818E+02  0.32670070038E+02 -0.14485612238E+03  0.16745347454E+03  0.41800000000E+01 0. -1.
        -11    1    1    2    0    0 -0.25067844834E+02  0.37914764896E+02 -0.29392007393E+02  0.54127777899E+02  0.00000000000E+00 0.  1.
         11    1    1    2    0    0 -0.48291045788E+02 -0.33672505355E+02 -0.12560336040E+03  0.13871577727E+03  0.00000000000E+00 0. -1.
</event>
<event>
 7    1  0.2932877E-009  0.9139318E+02  0.7561462E-02  0.1299513E+00
          1   -1    0    0  501    0  0.00000000000E+00  0.00000000000E+00  0.13500511411E+04  0.13500511411E+04  0.00000000000E+00 0. -1.
         -1   -1    0    0    0  501 -0.00000000000E+00 -0.00000000000E+00 -0.14028781519E+02  0.14028781519E+02  0.00000000000E+00 0.  1.
         25    2    1    2    0    0  0.17308808906E+02  0.43626263951E+02  0.10817468460E+04  0.10899662377E+04  0.12508922722E+03 0.  0.
          5    1    3    3  502    0 -0.41235121337E+02  0.70715461406E+00  0.70798610041E+03  0.70919858014E+03  0.41800000000E+01 0.  1.
         -5    1    3    3    0  502  0.58543930243E+02  0.42919109337E+02  0.37376074561E+03  0.38076765760E+03  0.41800000000E+01 0.  1.
        -11    1    1    2    0    0 -0.34256004678E+02 -0.20397693723E+02  0.23750211490E+03  0.24082523611E+03  0.00000000000E+00 0. -1.
         11    1    1    2    0    0  0.16947195772E+02 -0.23228570228E+02  0.16773398680E+02  0.33288448787E+02  0.00000000000E+00 0.  1.
</event>
<event>
 7    1  0.2490079E-009  0.1566693E+03  0.7561462E-02  0.1192509E+00
          1   -1    0    0  501    0  0.00000000000E+00  0.00000000000E+00  0.20916967061E+03  0.20916967061E+03  0.00000000000E+00 0. -1.
         -1   -1    0    0    0  501 -0.00000000000E+00 -0.00000000000E+00 -0.15321751749E+03  0.15321751749E+03  0.00000000000E+00 0.  1.
         25    2    1    2    0    0  0.72294480743E+02 -0.91388632864E+02  0.11062279027E+03  0.20362601005E+03  0.12509107114E+03 0.  0.
          5    1    3    3  502    0  0.58849277800E+02  0.11933689775E+02  0.14748708635E+02  0.61972955841E+02  0.41800000000E+01 0. -1.
         -5    1    3    3    0  502  0.13445202943E+02 -0.10332232264E+03  0.95874081637E+02  0.14165305421E+03  0.41800000000E+01 0. -1.
        -11    1    1    2    0    0 -0.69356964348E+02  0.13171371085E+02 -0.29847361523E+02  0.76646842791E+02  0.00000000000E+00 0.  1.
         11    1    1    2    0    0 -0.29375163950E+01  0.78217261778E+02 -0.24823275627E+02  0.82114335262E+02  0.00000000000E+00 0. -1.
</event>
<event>
 7    1  0.2490079E-009  0.2942806E+03  0.7561462E-02  0.1088135E+00
         -2   -1    0    0    0  501 -0.00000000000E+00  0.00000000000E+00  0.24389166091E+03  0.24389166091E+03  0.00000000000E+00 0.  1.
          2   -1    0    0  501    0  0.00000000000E+00 -0.00000000000E+00 -0.40087667203E+03  0.40087667203E+03  0.00000000000E+00 0. -1.
         25    2    1    2    0    0 -0.15715070559E+03 -0.23898939501E+03 -0.14289617372E+03  0.34333499539E+03  0.12508927770E+03 0.  0.
          5    1    3    3  502    0 -0.72088013362E+02 -0.15857498385E+03 -0.23056369752E+02  0.17576056372E+03  0.41800000000E+01 0.  1.
         -5    1    3    3    0  502 -0.85062692228E+02 -0.80414411163E+02 -0.11983980397E+03  0.16757443166E+03  0.41800000000E+01 0.  1.
        -11    1    1    2    0    0  0.86433037379E+01  0.76781459567E+02  0.17583717760E+02  0.79241948254E+02  0.00000000000E+00 0.  1.
         11    1    1    2    0    0  0.14850740185E+03  0.16220793545E+03 -0.31672555159E+02  0.22219138930E+03  0.00000000000E+00 0. -1.
</event>
<event>
 7    1  0.2490079E-009  0.1348577E+03  0.7561462E-02  0.1220421E+00
         -1   -1    0    0    0  501 -0.00000000000E+00  0.00000000000E+00  0.26306567726E+02  0.26306567726E+02  0.00000000000E+00 0.  1.
          1   -1    0    0  501    0  0.00000000000E+00 -0.00000000000E+00 -0.10648278322E+04  0.10648278322E+04  0.00000000000E+00 0. -1.
         25    2    1    2    0    0 -0.11942048891E+03 -0.68331242002E+00 -0.47669818278E+03  0.50710000114E+03  0.12509010192E+03 0.  0.
          5    1    3    3  502    0 -0.29550718938E+02 -0.78115521601E+01 -0.35102982010E+03  0.35238284909E+03  0.41800000000E+01 0.  1.
         -5    1    3    3    0  502 -0.89869769972E+02  0.71282397401E+01 -0.12566836268E+03  0.15471715204E+03  0.41800000000E+01 0.  1.
        -11    1    1    2    0    0  0.71785880285E+02 -0.43256027924E+02 -0.20667484668E+03  0.22302194692E+03  0.00000000000E+00 0.  1.
         11    1    1    2    0    0  0.47634608625E+02  0.43939340344E+02 -0.35514823503E+03  0.36101245188E+03  0.00000000000E+00 0. -1.
</event>
<event>
 7    1  0.2490079E-009  0.6718248E+02  0.7561462E-02  0.1369945E+00
          2   -1    0    0  501    0  0.00000000000E+00  0.00000000000E+00  0.61083621781E+03  0.61083621781E+03  0.00000000000E+00 0. -1.
         -2   -1    0    0    0  501 -0.00000000000E+00 -0.00000000000E+00 -0.20314407629E+02  0.20314407629E+02  0.00000000000E+00 0.  1.
         25    2    1    2    0    0  0.11251189821E+02  0.85712696471E+01  0.30872733359E+03  0.33340712841E+03  0.12509073041E+03 0.  0.
          5    1    3    3  502    0  0.27369277370E+02  0.14830920047E+02  0.83448256480E+01  0.32498339162E+02  0.41800000000E+01 0.  1.
         -5    1    3    3    0  502 -0.16118087549E+02 -0.62596504002E+01  0.30038250794E+03  0.30090878925E+03  0.41800000000E+01 0.  1.
        -11    1    1    2    0    0  0.29719690203E+02  0.19460847408E+02  0.19088875394E+03  0.19416616840E+03  0.00000000000E+00 0. -1.
         11    1    1    2    0    0 -0.40970880024E+02 -0.28032117056E+02  0.90905722649E+02  0.10357732863E+03  0.00000000000E+00 0.  1.
</event>
<event>
 7    1  0.2490079E-009  0.9064654E+02  0.7561462E-02  0.1301294E+00
         -2   -1    0    0    0  501 -0.00000000000E+00  0.00000000000E+00  0.10589093760E+03  0.10589093760E+03  0.00000000000E+00 0.  1.
          2   -1    0    0  501    0  0.00000000000E+00 -0.00000000000E+00 -0.36452293969E+03  0.36452293969E+03  0.00000000000E+00 0. -1.
         25    2    1    2    0    0 -0.57011057778E+02 -0.73909744915E+01 -0.31777450400E+03  0.34631380482E+03  0.12509088218E+03 0.  0.
          5    1    3    3  502    0 -0.25187671552E+02 -0.44831184530E+02 -0.27858910232E+03  0.28332598581E+03  0.41800000000E+01 0.  1.
         -5    1    3    3    0  502 -0.31823386225E+02  0.37440210038E+02 -0.39185401679E+02  0.62987819008E+02  0.41800000000E+01 0.  1.
        -11    1    1    2    0    0  0.29595495735E+02 -0.24435670187E+02  0.70776034534E+02  0.80512374264E+02  0.00000000000E+00 0.  1.
         11    1    1    2    0    0  0.27415562043E+02  0.31826644678E+02 -0.11633532626E+02  0.43587698207E+02  0.00000000000E+00 0. -1.
</event>
<event>
 7    1  0.2490079E-009  0.9836579E+02  0.7561462E-02  0.1283770E+00
         -2   -1    0    0    0  501 -0.00000000000E+00  0.00000000000E+00  0.19765018118E+03  0.19765018118E+03  0.00000000000E+00 0.  1.
          2   -1    0    0  501    0  0.00000000000E+00 -0.00000000000E+00 -0.81872587647E+02  0.81872587647E+02  0.00000000000E+00 0. -1.
         25    2    1    2    0    0  0.53190126938E+02 -0.10386998787E+02  0.30890115362E+02  0.13978020990E+03  0.12508888242E+03 0.  0.
          5    1    3    3  502    0 -0.12007143044E+02  0.30450162896E+02  0.50457912584E+02  0.60289777300E+02  0.41800000000E+01 0.  1.
         -5    1    3    3    0  502  0.65197269982E+02 -0.40837161683E+02 -0.19567797222E+02  0.79490432604E+02  0.41800000000E+01 0.  1.
        -11    1    1    2    0    0 -0.40325979476E+02  0.38512270305E+02  0.73244210766E+01  0.56240792392E+02  0.00000000000E+00 0. -1.
         11    1    1    2    0    0 -0.12864147462E+02 -0.28125271518E+02  0.77563057091E+02  0.83501766528E+02  0.00000000000E+00 0.  1.
</event>
<event>
 7    1  0.2490079E-009  0.1031151E+03  0.7561462E-02  0.1273878E+00
          2   -1    0    0  501    0  0.00000000000E+00  0.00000000000E+00  0.28678540968E+03  0.28678540968E+03  0.00000000000E+00 0. -1.
         -2   -1    0    0    0  501 -0.00000000000E+00 -0.00000000000E+00 -0.43722971210E+02  0.43722971210E+02  0.00000000000E+00 0.  1.
         25    2    1    2    0    0  0.22871547535E+02  0.41829661333E+01  0.16933522735E+03  0.21180488002E+03  0.12508510337E+03 0.  0.
          5    1    3    3  502    0  0.32452436282E+02  0.60277559125E+02  0.10882065768E+03  0.12863107204E+03  0.41800000000E+01 0. -1.
         -5    1    3    3    0  502 -0.95808887464E+01 -0.56094592992E+02  0.60514569666E+02  0.83173807980E+02  0.41800000000E+01 0. -1.
        -11    1    1    2    0    0  0.23371915695E+02 -0.20957710172E+02  0.59863600073E+02  0.67595285875E+02  0.00000000000E+00 0. -1.
         11    1    1    2    0    0 -0.46243463230E+02  0.16774744039E+02  0.13863611049E+02  0.51108214999E+02  0.00000000000E+00 0.  1.
</event>
<event>
 7    1  0.2490079E-009  0.1678062E+03  0.7561462E-02  0.1180155E+00
          1   -1    0    0  501    0  0.00000000000E+00  0.00000000000E+00  0.15438153420E+04  0.15438153420E+04  0.00000000000E+00 0. -1.
         -1   -1    0    0    0  501 -0.00000000000E+00 -0.00000000000E+00 -0.19783950126E+02  0.19783950126E+02  0.00000000000E+00 0.  1.
         25    2    1    2    0    0  0.92274235835E+02  0.96039827538E+02  0.68602499142E+03  0.70994016787E+03  0.12508625035E+03 0.  0.
          5    1    3    3  502    0  0.51939943906E+02 -0.16247877974E+02  0.12571886375E+03  0.13705639866E+03  0.41800000000E+01 0. -1.
         -5    1    3    3    0  502  0.40334291929E+02  0.11228770551E+03  0.56030612767E+03  0.57288376921E+03  0.41800000000E+01 0. -1.
        -11    1    1    2    0    0  0.18873286975E+02 -0.13927723018E+02  0.90729432008E+02  0.93712391188E+02  0.00000000000E+00 0.  1.
         11    1    1    2    0    0 -0.11114752281E+03 -0.82112104520E+02  0.74727696844E+03  0.75994673306E+03  0.00000000000E+00 0. -1.
</event>
<event>
 7    1  0.2490079E-009  0.1162543E+03  0.7561462E-02  0.1249407E+00
          1   -1    0    0  501    0  0.00000000000E+00  0.00000000000E+00  0.10627606682E+04  0.10627606682E+04  0.00000000000E+00 0. -1.
         -1   -1    0    0    0  501 -0.00000000000E+00 -0.00000000000E+00 -0.13379942870E+02  0.13379942870E+02  0.00000000000E+00 0.  1.
         25    2    1    2    0    0  0.30467392860E+02 -0.37889201911E+02  0.64852906353E+03  0.66227020679E+03  0.12509207374E+03 0.  0.
          5    1    3    3  502    0  0.76921218813E+02 -0.27706113072E+02  0.48703800802E+03  0.49387042457E+03  0.41800000000E+01 0. -1.
         -5    1    3    3    0  502 -0.46453825954E+02 -0.10183088839E+02  0.16149105550E+03  0.16839978222E+03  0.41800000000E+01 0. -1.
        -11    1    1    2    0    0  0.21738720591E+02  0.45230135971E+02  0.18704681177E+03  0.19366168172E+03  0.00000000000E+00 0.  1.
         11    1    1    2    0    0 -0.52206113450E+02 -0.73409340607E+01  0.21380485003E+03  0.22020872256E+03  0.00000000000E+00 0. -1.
</event>
<event>
 7    1  0.2490079E-009  0.1392169E+03  0.7561462E-02  0.1214387E+00
          2   -1    0    0  501    0  0.00000000000E+00  0.00000000000E+00  0.56674177690E+03  0.56674177690E+03  0.00000000000E+00 0.  1.
         -2   -1    0    0    0  501 -0.00000000000E+00 -0.00000000000E+00 -0.37417160775E+02  0.37417160775E+02  0.00000000000E+00 0. -1.
         25    2    1    2    0    0  0.46139317614E+01 -0.87538049471E+02  0.36866589599E+03  0.39905610707E+03  0.12508810993E+03 0.  0.
          5    1    3    3  502    0 -0.59631273290E+02 -0.50617277682E+02  0.19949570511E+03  0.21432220210E+03  0.41800000000E+01 0. -1.
         -5    1    3    3    0  502  0.64245205051E+02 -0.36920771789E+02  0.16917019088E+03  0.18473390497E+03  0.41800000000E+01 0. -1.
        -11    1    1    2    0    0  0.37269561363E+02  0.11371915925E+02  0.65551608813E+02  0.76258468998E+02  0.00000000000E+00 0. -1.
         11    1    1    2    0    0 -0.41883493124E+02  0.76166133546E+02  0.95107111319E+02  0.12884436161E+03  0.00000000000E+00 0.  1.
</event>
<event>
 7    1  0.2490079E-009  0.1024496E+03  0.7561462E-02  0.1275227E+00
          2   -1    0    0  501    0  0.00000000000E+00  0.00000000000E+00  0.23874531152E+03  0.23874531152E+03  0.00000000000E+00 0. -1.
         -2   -1    0    0    0  501 -0.00000000000E+00 -0.00000000000E+00 -0.52536143143E+02  0.52536143143E+02  0.00000000000E+00 0.  1.
         25    2    1    2    0    0  0.11037256395E+02  0.18285102880E+02  0.15072160130E+03  0.19703479010E+03  0.12509812706E+03 0.  0.
          5    1    3    3  502    0 -0.54036312607E+02  0.13327349747E+00  0.94955755506E+02  0.10933438958E+03  0.41800000000E+01 0.  1.
         -5    1    3    3    0  502  0.65073569002E+02  0.18151829382E+02  0.55765845797E+02  0.87700400513E+02  0.41800000000E+01 0.  1.
        -11    1    1    2    0    0  0.22644083027E+02 -0.37817975788E+02  0.41636919860E+01  0.44275163690E+02  0.00000000000E+00 0.  1.
         11    1    1    2    0    0 -0.33681339423E+02  0.19532872908E+02  0.31323875090E+02  0.49971500878E+02  0.00000000000E+00 0. -1.
</event>
<event>
 7    1  0.2490079E-009  0.1772283E+03  0.7561462E-02  0.1170513E+00
          3   -1    0    0  501    0  0.00000000000E+00  0.00000000000E+00  0.31995852284E+03  0.31995852284E+03  0.00000000000E+00 0. -1.
         -3   -1    0    0    0  501 -0.00000000000E+00 -0.00000000000E+00 -0.12228981989E+03  0.12228981989E+03  0.00000000000E+00 0.  1.
         25    2    1    2    0    0  0.15557049203E+03 -0.55587258786E+02  0.10581389009E+03  0.23267103938E+03  0.12508841633E+03 0.  0.
          5    1    3    3  502    0  0.42416980505E+02 -0.24604380784E+02 -0.26410929268E+02  0.55853248551E+02  0.41800000000E+01 0. -1.
         -5    1    3    3    0  502  0.11315351153E+03 -0.30982878002E+02  0.13222481936E+03  0.17681779083E+03  0.41800000000E+01 0. -1.
        -11    1    1    2    0    0 -0.52398777055E+02  0.65866606533E+02  0.33397500712E+02  0.90550730239E+02  0.00000000000E+00 0.  1.
         11    1    1    2    0    0 -0.10317171498E+03 -0.10279347747E+02  0.58457312148E+02  0.11902657310E+03  0.00000000000E+00 0. -1.
</event>
<event>
 7    1  0.2490079E-009  0.4120694E+03  0.7561462E-02  0.1039679E+00
          1   -1    0    0  501    0  0.00000000000E+00  0.00000000000E+00  0.29292445265E+04  0.29292445265E+04  0.00000000000E+00 0. -1.
         -1   -1    0    0    0  501 -0.00000000000E+00 -0.00000000000E+00 -0.64243066076E+02  0.64243066076E+02  0.00000000000E+00 0.  1.
         25    2    1    2    0    0 -0.96158642219E+02  0.39614540488E+03  0.11052780700E+04  0.11846789829E+04  0.12508802528E+03 0.  0.
          5    1    3    3  502    0 -0.60273137619E+02  0.97202736237E+02  0.43619095253E+03  0.45095592082E+03  0.41800000000E+01 0.  1.
         -5    1    3    3    0  502 -0.35885504600E+02  0.29894266865E+03  0.66908711751E+03  0.73372306206E+03  0.41800000000E+01 0.  1.
        -11    1    1    2    0    0  0.62361623524E+01 -0.69352561224E+02  0.17708480686E+03  0.19028320023E+03  0.00000000000E+00 0.  1.
         11    1    1    2    0    0  0.89922479866E+02 -0.32679284366E+03  0.15826385835E+04  0.16185254095E+04  0.00000000000E+00 0. -1.
</event>
<event>
 7    1  0.2490079E-009  0.9944224E+02  0.7561462E-02  0.1281473E+00
          2   -1    0    0  501    0  0.00000000000E+00  0.00000000000E+00  0.66246898822E+03  0.66246898822E+03  0.00000000000E+00 0. -1.
         -2   -1    0    0    0  501 -0.00000000000E+00 -0.00000000000E+00 -0.24599274038E+02  0.24599274038E+02  0.00000000000E+00 0.  1.
         25    2    1    2    0    0 -0.77007468046E+00  0.42836197982E+02  0.21750381893E+03  0.25454013066E+03  0.12508890437E+03 0.  0.
          5    1    3    3  502    0 -0.17618212982E+02 -0.22835994729E+02  0.27194721680E+01  0.29270326490E+02  0.41800000000E+01 0. -1.
         -5    1    3    3    0  502  0.16848138302E+02  0.65672192711E+02  0.21478434676E+03  0.22526980417E+03  0.41800000000E+01 0. -1.
        -11    1    1    2    0    0  0.43829779050E+02 -0.38849814556E+02  0.23616869939E+03  0.24332285588E+03  0.00000000000E+00 0.  1.
         11    1    1    2    0    0 -0.43059704369E+02 -0.39863834259E+01  0.18419719587E+03  0.18920527572E+03  0.00000000000E+00 0. -1.
</event>
<event>
 7    1  0.2490079E-009  0.1156664E+03  0.7561462E-02  0.1250422E+00
         -2   -1    0    0    0  501 -0.00000000000E+00  0.00000000000E+00  0.40309777873E+02  0.40309777873E+02  0.00000000000E+00 0.  1.
          2   -1    0    0  501    0  0.00000000000E+00 -0.00000000000E+00 -0.39575414961E+03  0.39575414961E+03  0.00000000000E+00 0. -1.
         25    2    1    2    0    0 -0.49872272187E+02  0.75590892346E+01 -0.26764604928E+03  0.29970805333E+03  0.12508447614E+03 0.  0.
          5    1    3    3  502    0 -0.57568665128E+02 -0.47525110808E+02 -0.18934509195E+03  0.20357264946E+03  0.41800000000E+01 0. -1.
         -5    1    3    3    0  502  0.76963929404E+01  0.55084200043E+02 -0.78300957328E+02  0.96135403869E+02  0.41800000000E+01 0. -1.
        -11    1    1    2    0    0  0.32263092930E+02  0.39231723891E+02 -0.26616380285E+02  0.57345156939E+02  0.00000000000E+00 0. -1.
         11    1    1    2    0    0  0.17609179258E+02 -0.46790813126E+02 -0.61181942179E+02  0.79010717222E+02  0.00000000000E+00 0.  1.
</event>
<event>
 7    1  0.2490079E-009  0.1166140E+03  0.7561462E-02  0.1248790E+00
          2   -1    0    0  501    0  0.00000000000E+00  0.00000000000E+00  0.42151683883E+03  0.42151683883E+03  0.00000000000E+00 0. -1.
         -2   -1    0    0    0  501 -0.00000000000E+00 -0.00000000000E+00 -0.36099609946E+02  0.36099609946E+02  0.00000000000E+00 0.  1.
         25    2    1    2    0    0 -0.78934003769E+01  0.45057061010E+02  0.28398703009E+03  0.31366936952E+03  0.12508955032E+03 0.  0.
          5    1    3    3  502    0 -0.62075574076E+02  0.24789378751E+01  0.16116124059E+03  0.17277135150E+03  0.41800000000E+01 0. -1.
         -5    1    3    3    0  502  0.54182173699E+02  0.42578123135E+02  0.12282578950E+03  0.14089801802E+03  0.41800000000E+01 0. -1.
        -11    1    1    2    0    0  0.47576952505E+02 -0.92342078241E+01  0.52899743023E+02  0.71744127396E+02  0.00000000000E+00 0.  1.
         11    1    1    2    0    0 -0.39683552128E+02 -0.35822853186E+02  0.48530455774E+02  0.72202951862E+02  0.00000000000E+00 0. -1.
</event>
<event>
 7    1  0.2490079E-009  0.7258159E+02  0.7561462E-02  0.1351528E+00
         -2   -1    0    0    0  501 -0.00000000000E+00  0.00000000000E+00  0.84629561627E+02  0.84629561627E+02  0.00000000000E+00 0.  1.
          2   -1    0    0  501    0  0.00000000000E+00 -0.00000000000E+00 -0.19126203574E+03  0.19126203574E+03  0.00000000000E+00 0. -1.
         25    2    1    2    0    0  0.33647903688E+02  0.40364496201E+02 -0.10500135761E+03  0.17156233761E+03  0.12508747583E+03 0.  0.
          5    1    3    3  502    0  0.16883440187E+01  0.11083884855E+02  0.28622018417E+02  0.31022497438E+02  0.41800000000E+01 0.  1.
         -5    1    3    3    0  502  0.31959559670E+02  0.29280611346E+02 -0.13362337602E+03  0.14053984017E+03  0.41800000000E+01 0.  1.
        -11    1    1    2    0    0 -0.36138679460E+02  0.11348616506E+02  0.25710338337E+02  0.45780091165E+02  0.00000000000E+00 0.  1.
         11    1    1    2    0    0  0.24907757716E+01 -0.51713112707E+02 -0.27341454838E+02  0.58549168589E+02  0.00000000000E+00 0. -1.
</event>
<event>
 7    1  0.2490079E-009  0.1623168E+03  0.7561462E-02  0.1186106E+00
          1   -1    0    0  501    0  0.00000000000E+00  0.00000000000E+00  0.74409911156E+02  0.74409911156E+02  0.00000000000E+00 0. -1.
         -1   -1    0    0    0  501 -0.00000000000E+00 -0.00000000000E+00 -0.43213889055E+03  0.43213889055E+03  0.00000000000E+00 0.  1.
         25    2    1    2    0    0 -0.61010220737E+02 -0.12315270327E+03 -0.15475233432E+03  0.24183301687E+03  0.12508432241E+03 0.  0.
          5    1    3    3  502    0  0.34038746415E+02 -0.81831738581E+01 -0.41747519819E+02  0.54643649247E+02  0.41800000000E+01 0.  1.
         -5    1    3    3    0  502 -0.95048967152E+02 -0.11496952941E+03 -0.11300481450E+03  0.18718936762E+03  0.41800000000E+01 0.  1.
        -11    1    1    2    0    0  0.42998244182E+02  0.55907498160E+02 -0.17678665090E+03  0.19033658946E+03  0.00000000000E+00 0.  1.
         11    1    1    2    0    0  0.18011976555E+02  0.67245205109E+02 -0.26189994175E+02  0.74379195374E+02  0.00000000000E+00 0. -1.
</event>
<event>
 7    1  0.2490079E-009  0.2128259E+03  0.7561462E-02  0.1139348E+00
          2   -1    0    0  501    0  0.00000000000E+00  0.00000000000E+00  0.15027417762E+03  0.15027417762E+03  0.00000000000E+00 0. -1.
         -2   -1    0    0    0  501 -0.00000000000E+00 -0.00000000000E+00 -0.30435433639E+03  0.30435433639E+03  0.00000000000E+00 0.  1.
         25    2    1    2    0    0 -0.18230289700E+03 -0.14359201712E+02 -0.10195076895E+03  0.24388733131E+03  0.12508612295E+03 0.  0.
          5    1    3    3  502    0  0.45778591572E+01 -0.33114709431E+02 -0.15508894662E+02  0.37088259447E+02  0.41800000000E+01 0. -1.
         -5    1    3    3    0  502 -0.18688075616E+03  0.18755507719E+02 -0.86441874290E+02  0.20679907186E+03  0.41800000000E+01 0. -1.
        -11    1    1    2    0    0  0.10964269016E+03  0.53021232037E+02 -0.34276328290E+02  0.12652129162E+03  0.00000000000E+00 0.  1.
         11    1    1    2    0    0  0.72660206846E+02 -0.38662030325E+02 -0.17853061532E+02  0.84219891082E+02  0.00000000000E+00 0. -1.
</event>
<event>
 7    1  0.2902386E-009  0.8677529E+02  0.7561462E-02  0.1310854E+00
          1   -1    0    0  501    0  0.00000000000E+00  0.00000000000E+00  0.33585103270E+03  0.33585103270E+03  0.00000000000E+00 0. -1.
         -1   -1    0    0    0  501 -0.00000000000E+00 -0.00000000000E+00 -0.57575312681E+02  0.57575312681E+02  0.00000000000E+00 0.  1.
         25    2    1    2    0    0  0.11453894846E+02 -0.68831180700E+02  0.79192365691E+02  0.16367352163E+03  0.12509463519E+03 0.  0.
          5    1    3    3  502    0 -0.19199618978E+01 -0.59299737393E+02  0.11196291835E+03  0.12678056868E+03  0.41800000000E+01 0.  1.
         -5    1    3    3    0  502  0.13373856744E+02 -0.95314433072E+01 -0.32770552659E+02  0.36892952950E+02  0.41800000000E+01 0.  1.
        -11    1    1    2    0    0 -0.36899538768E+02  0.19777432995E+02  0.29029299914E+02  0.50945294883E+02  0.00000000000E+00 0.  1.
         11    1    1    2    0    0  0.25445643922E+02  0.49053747705E+02  0.17005405441E+03  0.17880752887E+03  0.00000000000E+00 0. -1.
</event>
<event>
 7    1  0.2490079E-009  0.8964789E+02  0.7561462E-02  0.1303707E+00
         -1   -1    0    0    0  501 -0.00000000000E+00  0.00000000000E+00  0.21024871792E+02  0.21024871792E+02  0.00000000000E+00 0.  1.
          1   -1    0    0  501    0  0.00000000000E+00 -0.00000000000E+00 -0.70847810685E+03  0.70847810685E+03  0.00000000000E+00 0. -1.
         25    2    1    2    0    0  0.50936939537E+02  0.17520437836E+02 -0.32308247380E+03  0.35061538439E+03  0.12508926948E+03 0.  0.
          5    1    3    3  502    0 -0.99622577140E+01 -0.93522818725E+01  0.55156924469E+01  0.15316886699E+02  0.41800000000E+01 0. -1.
         -5    1    3    3    0  502  0.60899197251E+02  0.26872719708E+02 -0.32859816625E+03  0.33529849769E+03  0.41800000000E+01 0. -1.
        -11    1    1    2    0    0 -0.55407351583E+02  0.21206214126E+02 -0.27593530568E+03  0.28224098045E+03  0.00000000000E+00 0. -1.
         11    1    1    2    0    0  0.44704120463E+01 -0.38726651962E+02 -0.88435455582E+02  0.96646613806E+02  0.00000000000E+00 0.  1.
</event>
<event>
 7    1  0.2490079E-009  0.1145425E+03  0.7561462E-02  0.1252382E+00
         -4   -1    0    0    0  501 -0.00000000000E+00  0.00000000000E+00  0.51135937445E+02  0.51135937445E+02  0.00000000000E+00 0.  1.
          4   -1    0    0  501    0  0.00000000000E+00 -0.00000000000E+00 -0.47783935811E+03  0.47783935811E+03  0.00000000000E+00 0. -1.
         25    2    1    2    0    0 -0.67256055268E+02  0.22557596220E+02 -0.37699510835E+03  0.40349032299E+03  0.12508759694E+03 0.  0.
          5    1    3    3  502    0  0.22568411692E+02 -0.30979022905E+02 -0.85933502352E+02  0.94186369995E+02  0.41800000000E+01 0. -1.
         -5    1    3    3    0  502 -0.89824466959E+02  0.53536619126E+02 -0.29106160600E+03  0.30930395300E+03  0.41800000000E+01 0. -1.
        -11    1    1    2    0    0  0.29506461183E+02 -0.35325316923E+02  0.15922156039E+02  0.48703432324E+02  0.00000000000E+00 0.  1.
         11    1    1    2    0    0  0.37749594085E+02  0.12767720703E+02 -0.65630468353E+02  0.76781540241E+02  0.00000000000E+00 0. -1.
</event>
<event>
 7    1  0.2490079E-009  0.8174230E+02  0.7561462E-02  0.1324179E+00
          3   -1    0    0  501    0  0.00000000000E+00  0.00000000000E+00  0.14717172600E+03  0.14717172600E+03  0.00000000000E+00 0. -1.
         -3   -1    0    0    0  501 -0.00000000000E+00 -0.00000000000E+00 -0.11231208731E+03  0.11231208731E+03  0.00000000000E+00 0.  1.
         25    2    1    2    0    0  0.23801217253E+02 -0.15446675797E+02  0.83013465565E+02  0.15278759427E+03  0.12509083004E+03 0.  0.
          5    1    3    3  502    0  0.12677225297E+02 -0.45048800522E+02 -0.15312340925E+02  0.49417068451E+02  0.41800000000E+01 0.  1.
         -5    1    3    3    0  502  0.11123991956E+02  0.29602124724E+02  0.98325806491E+02  0.10337052582E+03  0.41800000000E+01 0.  1.
        -11    1    1    2    0    0 -0.23911546800E+02  0.47166508652E+02 -0.52693675395E+02  0.74652964010E+02  0.00000000000E+00 0.  1.
         11    1    1    2    0    0  0.11032954731E+00 -0.31719832854E+02  0.45398485201E+01  0.32043255039E+02  0.00000000000E+00 0. -1.
</event>
<event>
 7    1  0.2490079E-009  0.1855009E+03  0.7561462E-02  0.1162583E+00
          2   -1    0    0  501    0  0.00000000000E+00  0.00000000000E+00  0.94098835609E+02  0.94098835609E+02  0.00000000000E+00 0. -1.
         -2   -1    0    0    0  501 -0.00000000000E+00 -0.00000000000E+00 -0.43169028275E+03  0.43169028275E+03  0.00000000000E+00 0.  1.
         25    2    1    2    0    0 -0.26111413294E+02 -0.16718230719E+03 -0.18263524545E+03  0.27863146577E+03  0.12509249017E+03 0.  0.
          5    1    3    3  502    0 -0.34560265944E+02 -0.18067331039E+03 -0.18622035370E+03  0.26178760399E+03  0.41800000000E+01 0.  1.
         -5    1    3    3    0  502  0.84488526494E+01  0.13491003200E+02  0.35851082572E+01  0.16843861779E+02  0.41800000000E+01 0.  1.
        -11    1    1    2    0    0  0.23098709533E+02  0.78852415236E+02 -0.17927505427E+02  0.84099044118E+02  0.00000000000E+00 0.  1.
         11    1    1    2    0    0  0.30127037610E+01  0.88329891952E+02 -0.13702869626E+03  0.16305860847E+03  0.00000000000E+00 0. -1.
</event>
<event>
 7    1  0.2490079E-009  0.1359036E+03  0.7561462E-02  0.1218950E+00
         -2   -1    0    0    0  501 -0.00000000000E+00  0.00000000000E+00  0.44362459567E+02  0.44362459567E+02  0.00000000000E+00 0.  1.
          2   -1    0    0  501    0  0.00000000000E+00 -0.00000000000E+00 -0.66785720869E+03  0.66785720869E+03  0.00000000000E+00 0. -1.
         25    2    1    2    0    0  0.49094386176E+02  0.11577319775E+03 -0.42528407919E+03  0.46079021730E+03  0.12508950508E+03 0.  0.
          5    1    3    3  502    0  0.40827342249E+02  0.99709024274E+02 -0.14919897846E+03  0.18408304911E+03  0.41800000000E+01 0. -1.
         -5    1    3    3    0  502  0.82670439271E+01  0.16064173472E+02 -0.27608510073E+03  0.27670716819E+03  0.41800000000E+01 0. -1.
        -11    1    1    2    0    0 -0.59031784482E+02 -0.45673693509E+02 -0.14422966111E+03  0.16239776169E+03  0.00000000000E+00 0. -1.
         11    1    1    2    0    0  0.99373983055E+01 -0.70099504238E+02 -0.53981008822E+02  0.89031689262E+02  0.00000000000E+00 0.  1.
</event>
<event>
 7    1  0.2490079E-009  0.9687761E+02  0.7561462E-02  0.1287002E+00
          2   -1    0    0  501    0  0.00000000000E+00  0.00000000000E+00  0.13508740085E+03  0.13508740085E+03  0.00000000000E+00 0. -1.
         -2   -1    0    0    0  501 -0.00000000000E+00 -0.00000000000E+00 -0.15593243892E+03  0.15593243892E+03  0.00000000000E+00 0.  1.
         25    2    1    2    0    0  0.80900462417E+01  0.81295243005E+02  0.35862999645E+02  0.15364166730E+03  0.12508094101E+03 0.  0.
          5    1    3    3  502    0  0.28662399264E+02  0.59774905094E+02 -0.36137150588E+02  0.75617051405E+02  0.41800000000E+01 0.  1.
         -5    1    3    3    0  502 -0.20572353022E+02  0.21520337911E+02  0.72000150233E+02  0.78024615899E+02  0.41800000000E+01 0.  1.
        -11    1    1    2    0    0  0.19829182203E+02 -0.56676700238E+02 -0.74859228040E+02  0.95965352286E+02  0.00000000000E+00 0.  1.
         11    1    1    2    0    0 -0.27919228444E+02 -0.24618542767E+02  0.18151190323E+02  0.41412820178E+02  0.00000000000E+00 0. -1.
</event>
<event>
 7    1  0.2490079E-009  0.9305217E+02  0.7561462E-02  0.1295624E+00
         -2   -1    0    0    0  501 -0.00000000000E+00  0.00000000000E+00  0.55580893866E+02  0.55580893866E+02  0.00000000000E+00 0.  1.
          2   -1    0    0  501    0  0.00000000000E+00 -0.00000000000E+00 -0.32321745646E+03  0.32321745646E+03  0.00000000000E+00 0. -1.
         25    2    1    2    0    0 -0.42293964927E+02  0.10180407316E+02 -0.23870174689E+03  0.27298137535E+03  0.12509151511E+03 0.  0.
          5    1    3    3  502    0 -0.77761113281E+02  0.29375815596E+02 -0.20127000879E+03  0.21779994977E+03  0.41800000000E+01 0. -1.
         -5    1    3    3    0  502  0.35467148354E+02 -0.19195408280E+02 -0.37431738105E+02  0.55181425579E+02  0.41800000000E+01 0. -1.
        -11    1    1    2    0    0 -0.16202213076E+01 -0.17702329002E+02 -0.52490952841E+02  0.55419289957E+02  0.00000000000E+00 0. -1.
         11    1    1    2    0    0  0.43914186234E+02  0.75219216856E+01  0.23556137143E+02  0.50397685022E+02  0.00000000000E+00 0.  1.
</event>
<event>
 7    1  0.2490079E-009  0.2203141E+03  0.7561462E-02  0.1133649E+00
         -1   -1    0    0    0  501 -0.00000000000E+00  0.00000000000E+00  0.59573298498E+02  0.59573298498E+02  0.00000000000E+00 0. -1.
          1   -1    0    0  501    0  0.00000000000E+00 -0.00000000000E+00 -0.10572483395E+04  0.10572483395E+04  0.00000000000E+00 0.  1.
         25    2    1    2    0    0 -0.82028797175E+02 -0.18832478928E+03 -0.30062752703E+03  0.38499368382E+03  0.12509307234E+03 0.  0.
          5    1    3    3  502    0 -0.10528608572E+03 -0.16103730162E+03 -0.28872750557E+03  0.34698590351E+03  0.41800000000E+01 0. -1.
         -5    1    3    3    0  502  0.23257288548E+02 -0.27287487662E+02 -0.11900021460E+02  0.38007780312E+02  0.41800000000E+01 0. -1.
        -11    1    1    2    0    0  0.12005397414E+01  0.62649922805E+02 -0.11563558397E+03  0.13152202250E+03  0.00000000000E+00 0.  1.
         11    1    1    2    0    0  0.80828257434E+02  0.12567486647E+03 -0.58141193003E+03  0.60030593171E+03  0.00000000000E+00 0. -1.
</event>
<event>
 7    1  0.2490079E-009  0.1111919E+03  0.7561462E-02  0.1258378E+00
          2   -1    0    0  501    0  0.00000000000E+00  0.00000000000E+00  0.71802307454E+03  0.71802307454E+03  0.00000000000E+00 0. -1.
         -2   -1    0    0    0  501 -0.00000000000E+00 -0.00000000000E+00 -0.25910858371E+02  0.25910858371E+02  0.00000000000E+00 0.  1.
         25    2    1    2    0    0 -0.71291141419E+02  0.12075382521E+02  0.48238469323E+03  0.50355779584E+03  0.12508884754E+03 0.  0.
          5    1    3    3  502    0 -0.59618102168E+02  0.63489303170E+02  0.35662905572E+03  0.36713344373E+03  0.41800000000E+01 0. -1.
         -5    1    3    3    0  502 -0.11673039251E+02 -0.51413920649E+02  0.12575563751E+03  0.13642435211E+03  0.41800000000E+01 0. -1.
        -11    1    1    2    0    0  0.49446617167E+00 -0.11492917215E+02 -0.62490597115E+01  0.13091309720E+02  0.00000000000E+00 0.  1.
         11    1    1    2    0    0  0.70796675247E+02 -0.58246530556E+00  0.21597658265E+03  0.22728482736E+03  0.00000000000E+00 0. -1.
</event>
<event>
 7    1  0.2490079E-009  0.9634079E+02  0.7561462E-02  0.1288185E+00
          2   -1    0    0  501    0  0.00000000000E+00  0.00000000000E+00  0.10551691285E+04  0.10551691285E+04  0.00000000000E+00 0. -1.
         -2   -1    0    0    0  501 -0.00000000000E+00 -0.00000000000E+00 -0.16400512127E+02  0.16400512127E+02  0.00000000000E+00 0.  1.
         25    2    1    2    0    0  0.64824493569E+02 -0.35883899991E+02  0.53061141585E+03  0.55016912252E+03  0.12509084496E+03 0.  0.
          5    1    3    3  502    0  0.15756694090E+02  0.41807556393E+01  0.43545005659E+03  0.43577514421E+03  0.41800000000E+01 0.  1.
         -5    1    3    3    0  502  0.49067799479E+02 -0.40064655630E+02  0.95161359266E+02  0.11439397831E+03  0.41800000000E+01 0.  1.
        -11    1    1    2    0    0 -0.38116081212E+02 -0.25204564993E+02  0.14041613571E+03  0.14766447410E+03  0.00000000000E+00 0.  1.
         11    1    1    2    0    0 -0.26708412357E+02  0.61088464984E+02  0.36774106482E+03  0.37373604402E+03  0.00000000000E+00 0. -1.
</event>
<event>
 7    1  0.2490079E-009  0.2383271E+03  0.7561462E-02  0.1120912E+00
          2   -1    0    0  501    0  0.00000000000E+00  0.00000000000E+00  0.38921334445E+03  0.38921334445E+03  0.00000000000E+00 0. -1.
         -2   -1    0    0    0  501 -0.00000000000E+00 -0.00000000000E+00 -0.16476466361E+03  0.16476466361E+03  0.00000000000E+00 0.  1.
         25    2    1    2    0    0 -0.11389087849E+02 -0.22425544987E+03  0.16094588552E+03  0.30326734567E+03  0.12508911528E+03 0.  0.
          5    1    3    3  502    0  0.17641687262E+02 -0.11831038877E+02 -0.14621711071E+02  0.26124116157E+02  0.41800000000E+01 0. -1.
         -5    1    3    3    0  502 -0.29030775110E+02 -0.21242441099E+03  0.17556759659E+03  0.27714322951E+03  0.41800000000E+01 0. -1.
        -11    1    1    2    0    0 -0.17957628447E+02  0.40440310016E+01 -0.33539139108E+01  0.18710407390E+02  0.00000000000E+00 0. -1.
         11    1    1    2    0    0  0.29346716296E+02  0.22021141887E+03  0.66856709228E+02  0.23200025501E+03  0.00000000000E+00 0.  1.
</event>
<event>
 7    1  0.2490079E-009  0.1175577E+03  0.7561462E-02  0.1247181E+00
         -1   -1    0    0    0  501 -0.00000000000E+00  0.00000000000E+00  0.94436930458E+01  0.94436930458E+01  0.00000000000E+00 0.  1.
          1   -1    0    0  501    0  0.00000000000E+00 -0.00000000000E+00 -0.17620035616E+04  0.17620035616E+04  0.00000000000E+00 0. -1.
         25    2    1    2    0    0  0.55622859979E+01 -0.52173595131E+02 -0.12880447941E+04  0.12951669969E+04  0.12508051467E+03 0.  0.
          5    1    3    3  502    0 -0.29849796324E+02 -0.81263833512E+02 -0.96095298995E+03  0.96485384503E+03  0.41800000000E+01 0.  1.
         -5    1    3    3    0  502  0.35412082322E+02  0.29090238381E+02 -0.32709180418E+03  0.33031315188E+03  0.41800000000E+01 0.  1.
        -11    1    1    2    0    0 -0.49025781377E+01  0.77216267497E+02 -0.39192179317E+03  0.39948601877E+03  0.00000000000E+00 0. -1.
         11    1    1    2    0    0 -0.65970786027E+00 -0.25042672366E+02 -0.72593281286E+02  0.76794238987E+02  0.00000000000E+00 0.  1.
</event>
<event>
 7    1  0.2898153E-009  0.2100576E+03  0.7561462E-02  0.1141520E+00
         -2   -1    0    0    0  501 -0.00000000000E+00  0.00000000000E+00  0.82492255590E+02  0.82492255590E+02  0.00000000000E+00 0.  1.
          2   -1    0    0  501    0  0.00000000000E+00 -0.00000000000E+00 -0.68334319104E+03  0.68334319104E+03  0.00000000000E+00 0. -1.
         25    2    1    2    0    0  0.17166669741E+03 -0.11538744128E+03 -0.24369210733E+03  0.34323752231E+03  0.12506972832E+03 0.  0.
          5    1    3    3  502    0  0.27210333988E+02 -0.43611602968E+02 -0.73564975839E+00  0.51578946963E+02  0.41800000000E+01 0.  1.
         -5    1    3    3    0  502  0.14445636342E+03 -0.71775838317E+02 -0.24295645757E+03  0.29165857535E+03  0.41800000000E+01 0.  1.
        -11    1    1    2    0    0 -0.86530777945E+02  0.65299076155E+02 -0.26968133709E+03  0.29065369163E+03  0.00000000000E+00 0.  1.
         11    1    1    2    0    0 -0.85135919466E+02  0.50088365129E+02 -0.87477491029E+02  0.13194423270E+03  0.00000000000E+00 0. -1.
</event>
<event>
 7    1  0.2490079E-009  0.1092144E+03  0.7561462E-02  0.1262032E+00
          2   -1    0    0  501    0  0.00000000000E+00  0.00000000000E+00  0.21355517027E+04  0.21355517027E+04  0.00000000000E+00 0. -1.
         -2   -1    0    0    0  501 -0.00000000000E+00 -0.00000000000E+00 -0.10424904989E+02  0.10424904989E+02  0.00000000000E+00 0.  1.
         25    2    1    2    0    0  0.64062084830E+02 -0.48237634980E+02  0.16088665820E+04  0.16157134342E+04  0.12508957823E+03 0.  0.
          5    1    3    3  502    0 -0.71505866202E+01  0.14755231943E+02  0.34037364531E+02  0.38011344924E+02  0.41800000000E+01 0. -1.
         -5    1    3    3    0  502  0.71212671450E+02 -0.62992866923E+02  0.15748292175E+04  0.15777020893E+04  0.41800000000E+01 0. -1.
        -11    1    1    2    0    0 -0.34477169637E+01 -0.16967056330E+02  0.21733686656E+02  0.27787063329E+02  0.00000000000E+00 0.  1.
         11    1    1    2    0    0 -0.60614367866E+02  0.65204691310E+02  0.49452652910E+03  0.50247611022E+03  0.00000000000E+00 0. -1.
</event>
<event>
 7    1  0.2490079E-009  0.8947083E+02  0.7561462E-02  0.1304138E+00
         -1   -1    0    0    0  501 -0.00000000000E+00  0.00000000000E+00  0.60951672095E+02  0.60951672095E+02  0.00000000000E+00 0.  1.
          1   -1    0    0  501    0  0.00000000000E+00 -0.00000000000E+00 -0.19962240417E+03  0.19962240417E+03  0.00000000000E+00 0. -1.
         25    2    1    2    0    0  0.17256183577E+01  0.16703821563E+02 -0.78038481861E+02  0.14838959750E+03  0.12508985802E+03 0.  0.
          5    1    3    3  502    0 -0.15185426172E+02  0.68682601755E+02 -0.34916428199E+02  0.78641759327E+02  0.41800000000E+01 0. -1.
         -5    1    3    3    0  502  0.16911044529E+02 -0.51978780192E+02 -0.43122053663E+02  0.69747838170E+02  0.41800000000E+01 0. -1.
        -11    1    1    2    0    0 -0.26322962935E+02 -0.72345714961E+01  0.15657149308E+02  0.31470362675E+02  0.00000000000E+00 0.  1.
         11    1    1    2    0    0  0.24597344578E+02 -0.94692500671E+01 -0.76289399519E+02  0.80714116089E+02  0.00000000000E+00 0. -1.
</event>
<event>
 7    1  0.2490079E-009  0.1898624E+03  0.7561462E-02  0.1158586E+00
         -1   -1    0    0    0  501 -0.00000000000E+00  0.00000000000E+00  0.37488710047E+02  0.37488710047E+02  0.00000000000E+00 0.  1.
          1   -1    0    0  501    0  0.00000000000E+00 -0.00000000000E+00 -0.13097943904E+04  0.13097943904E+04  0.00000000000E+00 0. -1.
         25    2    1    2    0    0 -0.73466832460E+02 -0.15087774601E+03 -0.94848640826E+03  0.97130805224E+03  0.12510553937E+03 0.  0.
          5    1    3    3  502    0  0.31629423402E+02 -0.64165831709E+02 -0.27649723134E+03  0.28563239614E+03  0.41800000000E+01 0.  1.
         -5    1    3    3    0  502 -0.10509625586E+03 -0.86711914301E+02 -0.67198917692E+03  0.68567565610E+03  0.41800000000E+01 0.  1.
        -11    1    1    2    0    0  0.13266115861E+02  0.68194924969E+02 -0.55811402519E+02  0.89114815113E+02  0.00000000000E+00 0.  1.
         11    1    1    2    0    0  0.60200716600E+02  0.82682821041E+02 -0.26800786952E+03  0.28686023304E+03  0.00000000000E+00 0. -1.
</event>
<event>
 7    1  0.2490079E-009  0.9735437E+02  0.7561462E-02  0.1285960E+00
         -3   -1    0    0    0  501 -0.00000000000E+00  0.00000000000E+00  0.73336498439E+02  0.73336498439E+02  0.00000000000E+00 0.  1.
          3   -1    0    0  501    0  0.00000000000E+00 -0.00000000000E+00 -0.20663881951E+03  0.20663881951E+03  0.00000000000E+00 0. -1.
         25    2    1    2    0    0 -0.49796325567E+02 -0.23705378096E+02 -0.99987122869E+02  0.16936992915E+03  0.12508848536E+03 0.  0.
          5    1    3    3  502    0 -0.52135242536E+02 -0.71355683318E+02 -0.59055391455E+02  0.10637071362E+03  0.41800000000E+01 0.  1.
         -5    1    3    3    0  502  0.23389169694E+01  0.47650305223E+02 -0.40931731413E+02  0.62999215526E+02  0.41800000000E+01 0.  1.
        -11    1    1    2    0    0  0.36154151057E+02  0.70801106109E+01  0.27582235718E+02  0.46022063536E+02  0.00000000000E+00 0.  1.
         11    1    1    2    0    0  0.13642174510E+02  0.16625267485E+02 -0.60897433921E+02  0.64583325267E+02  0.00000000000E+00 0. -1.
</event>
<event>
 7    1  0.2490079E-009  0.9937682E+02  0.7561462E-02  0.1281612E+00
         -1   -1    0    0    0  501 -0.00000000000E+00  0.00000000000E+00  0.78404572215E+02  0.78404572215E+02  0.00000000000E+00 0.  1.
          1   -1    0    0  501    0  0.00000000000E+00 -0.00000000000E+00 -0.29268385301E+03  0.29268385301E+03  0.00000000000E+00 0. -1.
         25    2    1    2    0    0  0.72311223161E+02  0.44488220702E+02 -0.38997247027E+02  0.15612888695E+03  0.12508928527E+03 0.  0.
          5    1    3    3  502    0  0.28704867208E+02 -0.13827206546E+02 -0.69887249038E+02  0.76921135069E+02  0.41800000000E+01 0.  1.
         -5    1    3    3    0  502  0.43606355953E+02  0.58315427247E+02  0.30890002011E+02  0.79207751885E+02  0.41800000000E+01 0.  1.
        -11    1    1    2    0    0 -0.35137759576E+02 -0.44255788786E+02 -0.28012966577E+02  0.63071097069E+02  0.00000000000E+00 0.  1.
         11    1    1    2    0    0 -0.37173463585E+02 -0.23243191619E+00 -0.14726906719E+03  0.15188844120E+03  0.00000000000E+00 0. -1.
</event>
<event>
 7    1  0.2490079E-009  0.1242496E+03  0.7561462E-02  0.1236247E+00
          2   -1    0    0  501    0  0.00000000000E+00  0.00000000000E+00  0.43718181994E+02  0.43718181994E+02  0.00000000000E+00 0. -1.
         -2   -1    0    0    0  501 -0.00000000000E+00 -0.00000000000E+00 -0.40505349276E+03  0.40505349276E+03  0.00000000000E+00 0.  1.
         25    2    1    2    0    0 -0.86119872866E+01  0.70518135309E+02 -0.15079561691E+03  0.20840659966E+03  0.12508804487E+03 0.  0.
          5    1    3    3  502    0  0.40973808046E+02  0.71843352030E+02 -0.13069489242E+03  0.15472216222E+03  0.41800000000E+01 0.  1.
         -5    1    3    3    0  502 -0.49585795333E+02 -0.13252167210E+01 -0.20100724488E+02  0.53684437439E+02  0.41800000000E+01 0.  1.
        -11    1    1    2    0    0 -0.41081136882E+02 -0.41345160099E+02 -0.10202795068E+03  0.11750227568E+03  0.00000000000E+00 0. -1.
         11    1    1    2    0    0  0.49693124168E+02 -0.29172975209E+02 -0.10851174318E+03  0.12286279942E+03  0.00000000000E+00 0.  1.
</event>
<event>
 7    1  0.2490079E-009  0.5906231E+02  0.7561462E-02  0.1401809E+00
          2   -1    0    0  501    0  0.00000000000E+00  0.00000000000E+00  0.18201084830E+03  0.18201084830E+03  0.00000000000E+00 0. -1.
         -2   -1    0    0    0  501 -0.00000000000E+00 -0.00000000000E+00 -0.68225249688E+02  0.68225249688E+02  0.00000000000E+00 0.  1.
         25    2    1    2    0    0  0.12191324709E+02 -0.54268946958E+01  0.84521413074E+02  0.15155544252E+03  0.12508838198E+03 0.  0.
          5    1    3    3  502    0 -0.19076532311E+02  0.32644903535E+01 -0.28044662073E+02  0.34329964361E+02  0.41800000000E+01 0. -1.
         -5    1    3    3    0  502  0.31267857020E+02 -0.86913850494E+01  0.11256607515E+03  0.11722547816E+03  0.41800000000E+01 0. -1.
        -11    1    1    2    0    0  0.17033431687E+02  0.25128615602E+02 -0.21271370258E+02  0.37068265535E+02  0.00000000000E+00 0.  1.
         11    1    1    2    0    0 -0.29224756395E+02 -0.19701720907E+02  0.50535555795E+02  0.61612389927E+02  0.00000000000E+00 0. -1.
</event>
<event>
 7    1  0.2490079E-009  0.9968666E+02  0.7561462E-02  0.1280956E+00
         -2   -1    0    0    0  501 -0.00000000000E+00  0.00000000000E+00  0.76573900976E+03  0.76573900976E+03  0.00000000000E+00 0. -1.
          2   -1    0    0  501    0  0.00000000000E+00 -0.00000000000E+00 -0.32937044012E+02  0.32937044012E+02  0.00000000000E+00 0.  1.
         25    2    1    2    0    0  0.56098628603E+02  0.28131848875E+02  0.63833050885E+03  0.65349103555E+03  0.12508492303E+03 0.  0.
          5    1    3    3  502    0  0.40449276794E+02 -0.14880042228E+02  0.56690130189E+03  0.56855265203E+03  0.41800000000E+01 0.  1.
         -5    1    3    3    0  502  0.15649351809E+02  0.43011891102E+02  0.71429206960E+02  0.84938383521E+02  0.41800000000E+01 0.  1.
        -11    1    1    2    0    0 -0.80560214379E+02 -0.29034436474E+02  0.76378706610E+02  0.11474603900E+03  0.00000000000E+00 0. -1.
         11    1    1    2    0    0  0.24461585776E+02  0.90258759972E+00  0.18092750290E+02  0.30438979222E+02  0.00000000000E+00 0.  1.
</event>
<event>
 7    1  0.2490079E-009  0.1213564E+03  0.7561462E-02  0.1240876E+00
          2   -1    0    0  501    0  0.00000000000E+00  0.00000000000E+00  0.21987953554E+03  0.21987953554E+03  0.00000000000E+00 0. -1.
         -2   -1    0    0    0  501 -0.00000000000E+00 -0.00000000000E+00 -0.12254413894E+03  0.12254413894E+03  0.00000000000E+00 0.  1.
         25    2    1    2    0    0 -0.10132061939E+03 -0.57793211160E+02  0.89363886632E+02  0.19297435648E+03  0.12508906769E+03 0.  0.
          5    1    3    3  502    0 -0.86972106315E+02 -0.53105615419E+02  0.12065286554E+03  0.15798398663E+03  0.41800000000E+01 0. -1.
         -5    1    3    3    0  502 -0.14348513075E+02 -0.46875957412E+01 -0.31288978913E+02  0.34990369857E+02  0.41800000000E+01 0. -1.
        -11    1    1    2    0    0  0.37633289678E+02 -0.20228081168E+01  0.41322384541E+02  0.55927593448E+02  0.00000000000E+00 0. -1.
         11    1    1    2    0    0  0.63687329712E+02  0.59816019277E+02 -0.33350874569E+02  0.93521724548E+02  0.00000000000E+00 0.  1.
</event>
<event>
 7    1  0.2490079E-009  0.1333817E+03  0.7561462E-02  0.1222522E+00
          2   -1    0    0  501    0  0.00000000000E+00  0.00000000000E+00  0.45027683078E+03  0.45027683078E+03  0.00000000000E+00 0. -1.
         -2   -1    0    0    0  501 -0.00000000000E+00 -0.00000000000E+00 -0.52621038196E+02  0.52621038196E+02  0.00000000000E+00 0.  1.
         25    2    1    2    0    0 -0.10923647987E+03 -0.71555086855E+00  0.20724109686E+03  0.26557558168E+03  0.12509355223E+03 0.  0.
          5    1    3    3  502    0 -0.22317717164E+02  0.50491227748E+02  0.11993497989E+03  0.13209586057E+03  0.41800000000E+01 0. -1.
         -5    1    3    3    0  502 -0.86918762710E+02 -0.51206778617E+02  0.87306116976E+02  0.13347972111E+03  0.41800000000E+01 0. -1.
        -11    1    1    2    0    0  0.40519996777E+02  0.81006204940E+01  0.77793383646E+01  0.42047690740E+02  0.00000000000E+00 0.  1.
         11    1    1    2    0    0  0.68716483096E+02 -0.73850696255E+01  0.18263535736E+03  0.19527459656E+03  0.00000000000E+00 0. -1.
</event>
<event>
 7    1  0.2490079E-009  0.1306931E+03  0.7561462E-02  0.1226431E+00
          2   -1    0    0  501    0  0.00000000000E+00  0.00000000000E+00  0.22551459518E+04  0.22551459518E+04  0.00000000000E+00 0. -1.
         -2   -1    0    0    0  501 -0.00000000000E+00 -0.00000000000E+00 -0.10136769261E+02  0.10136769261E+02  0.00000000000E+00 0.  1.
         25    2    1    2    0    0  0.68846848194E+02  0.30363358534E+02  0.17457222373E+04  0.17518149445E+04  0.12509055840E+03 0.  0.
          5    1    3    3  502    0  0.10098001240E+03 -0.50523064567E+00  0.11718400137E+04  0.11761903368E+04  0.41800000000E+01 0. -1.
         -5    1    3    3    0  502 -0.32133164209E+02  0.30868589180E+02  0.57388222359E+03  0.57562460770E+03  0.41800000000E+01 0. -1.
        -11    1    1    2    0    0 -0.56178976246E+02 -0.60689038844E+02  0.41156073024E+03  0.41978741225E+03  0.00000000000E+00 0. -1.
         11    1    1    2    0    0 -0.12667871948E+02  0.30325680310E+02  0.87726215011E+02  0.93680364357E+02  0.00000000000E+00 0.  1.
</event>
<event>
 7    1  0.2490079E-009  0.1339310E+03  0.7561462E-02  0.1221737E+00
          1   -1    0    0  501    0  0.00000000000E+00  0.00000000000E+00  0.65215101510E+02  0.65215101510E+02  0.00000000000E+00 0. -1.
         -1   -1    0    0    0  501 -0.00000000000E+00 -0.00000000000E+00 -0.48928916552E+03  0.48928916552E+03  0.00000000000E+00 0.  1.
         25    2    1    2    0    0  0.69454427346E+02 -0.81513697232E+02 -0.87144567790E+02  0.18631115492E+03  0.12509704409E+03 0.  0.
          5    1    3    3  502    0  0.24469558392E+02  0.23669911236E+01 -0.87554671385E+02  0.91036557581E+02  0.41800000000E+01 0. -1.
         -5    1    3    3    0  502  0.44984868954E+02 -0.83880688356E+02  0.41010359522E+00  0.95274597342E+02  0.41800000000E+01 0. -1.
        -11    1    1    2    0    0  0.94629472596E+01  0.66685130772E+02 -0.17313963159E+03  0.18577886334E+03  0.00000000000E+00 0.  1.
         11    1    1    2    0    0 -0.78917374605E+02  0.14828566460E+02 -0.16378986463E+03  0.18241424877E+03  0.00000000000E+00 0. -1.
</event>
<event>
 7    1  0.2490079E-009  0.1009672E+03  0.7561462E-02  0.1278275E+00
          2   -1    0    0  501    0  0.00000000000E+00  0.00000000000E+00  0.79944350996E+03  0.79944350996E+03  0.00000000000E+00 0. -1.
         -2   -1    0    0    0  501 -0.00000000000E+00 -0.00000000000E+00 -0.20015374431E+02  0.20015374431E+02  0.00000000000E+00 0.  1.
         25    2    1    2    0    0  0.74605569727E+01 -0.11657517251E+02  0.65446520559E+03  0.66645646621E+03  0.12509179991E+03 0.  0.
          5    1    3    3  502    0 -0.33860731682E+02 -0.52996024284E+02  0.25277043125E+03  0.26051005941E+03  0.41800000000E+01 0. -1.
         -5    1    3    3    0  502  0.41321288655E+02  0.41338507033E+02  0.40169477434E+03  0.40594640680E+03  0.41800000000E+01 0. -1.
        -11    1    1    2    0    0 -0.43272661942E+02  0.10236699987E+02  0.36410666069E+02  0.57472166322E+02  0.00000000000E+00 0.  1.
         11    1    1    2    0    0  0.35812104969E+02  0.14208172637E+01  0.88552263874E+02  0.95530251864E+02  0.00000000000E+00 0. -1.
</event>
<event>
 7    1  0.2490079E-009  0.2005988E+03  0.7561462E-02  0.1149235E+00
         -2   -1    0    0    0  501 -0.00000000000E+00  0.00000000000E+00  0.14409735231E+03  0.14409735231E+03  0.00000000000E+00 0.  1.
          2   -1    0    0  501    0  0.00000000000E+00 -0.00000000000E+00 -0.51322110186E+03  0.51322110186E+03  0.00000000000E+00 0. -1.
         25    2    1    2    0    0 -0.16102530339E+03  0.61521347861E+02 -0.40482707027E+03  0.45743495221E+03  0.12509098333E+03 0.  0.
          5    1    3    3  502    0 -0.17200668357E+03  0.24597228146E+02 -0.31930972330E+03  0.36354847630E+03  0.41800000000E+01 0.  1.
         -5    1    3    3    0  502  0.10981380177E+02  0.36924119715E+02 -0.85517346965E+02  0.93886475913E+02  0.41800000000E+01 0.  1.
        -11    1    1    2    0    0  0.64355898197E+01  0.14873604255E+02  0.21415817913E+02  0.26856622586E+02  0.00000000000E+00 0. -1.
         11    1    1    2    0    0  0.15458971357E+03 -0.76394952116E+02  0.14287502806E+02  0.17302687938E+03  0.00000000000E+00 0.  1.
</event>
<event>
 7    1  0.2490079E-009  0.1254817E+03  0.7561462E-02  0.1234318E+00
         -2   -1    0    0    0  501 -0.00000000000E+00  0.00000000000E+00  0.12751432968E+02  0.12751432968E+02  0.00000000000E+00 0.  1.
          2   -1    0    0  501    0  0.00000000000E+00 -0.00000000000E+00 -0.16774731828E+04  0.16774731828E+04  0.00000000000E+00 0. -1.
         25    2    1    2    0    0  0.72089044999E+02 -0.28096820767E+02 -0.12585767986E+04  0.12671420955E+04  0.12508904971E+03 0.  0.
          5    1    3    3  502    0  0.68742439087E+02 -0.69722148959E+02 -0.67744439350E+03  0.68449622327E+03  0.41800000000E+01 0. -1.
         -5    1    3    3    0  502  0.33466059123E+01  0.41625328192E+02 -0.58113240514E+03  0.58264587223E+03  0.41800000000E+01 0. -1.
        -11    1    1    2    0    0 -0.10605064214E+02 -0.26641282357E+02 -0.50868429808E+02  0.58393685136E+02  0.00000000000E+00 0.  1.
         11    1    1    2    0    0 -0.61483980785E+02  0.54738103124E+02 -0.35527652142E+03  0.36468883517E+03  0.00000000000E+00 0. -1.
</event>
<event>
 7    1  0.2490079E-009  0.1164377E+03  0.7561462E-02  0.1249092E+00
         -2   -1    0    0    0  501 -0.00000000000E+00  0.00000000000E+00  0.27406386722E+02  0.27406386722E+02  0.00000000000E+00 0.  1.
          2   -1    0    0  501    0  0.00000000000E+00 -0.00000000000E+00 -0.95873198477E+03  0.95873198477E+03  0.00000000000E+00 0. -1.
         25    2    1    2    0    0  0.24206083065E+02  0.80939755471E+02 -0.76492952971E+03  0.77968020669E+03  0.12508741270E+03 0.  0.
          5    1    3    3  502    0  0.18971833013E+02 -0.10032498759E+02 -0.21462404085E+02  0.30638026508E+02  0.41800000000E+01 0.  1.
         -5    1    3    3    0  502  0.52342500522E+01  0.90972254230E+02 -0.74346712562E+03  0.74904218019E+03  0.41800000000E+01 0.  1.
        -11    1    1    2    0    0  0.26534938530E+02 -0.58646122235E+02 -0.68756928922E+02  0.94185911318E+02  0.00000000000E+00 0.  1.
         11    1    1    2    0    0 -0.50741021596E+02 -0.22293633235E+02 -0.97639139418E+02  0.11227225348E+03  0.00000000000E+00 0. -1.
</event>
<event>
 7    1  0.2490079E-009  0.2070952E+03  0.7561462E-02  0.1143887E+00
         -4   -1    0    0    0  501 -0.00000000000E+00  0.00000000000E+00  0.44773320643E+03  0.44773320643E+03  0.00000000000E+00 0.  1.
          4   -1    0    0  501    0  0.00000000000E+00 -0.00000000000E+00 -0.12974373380E+03  0.12974373380E+03  0.00000000000E+00 0. -1.
         25    2    1    2    0    0 -0.16663000583E+03  0.74416767134E+02  0.37740289728E+02  0.22444467850E+03  0.12509064778E+03 0.  0.
          5    1    3    3  502    0  0.11181960203E+02 -0.16710647044E+02 -0.21721540362E+01  0.20651213324E+02  0.41800000000E+01 0. -1.
         -5    1    3    3    0  502 -0.17781196603E+03  0.91127414177E+02  0.39912443764E+02  0.20379346517E+03  0.41800000000E+01 0. -1.
        -11    1    1    2    0    0  0.53025421495E+02 -0.58727347965E+02  0.19406518273E+03  0.20957550399E+03  0.00000000000E+00 0.  1.
         11    1    1    2    0    0  0.11360458434E+03 -0.15689419169E+02  0.86184000177E+02  0.14345675774E+03  0.00000000000E+00 0. -1.
</event>
<event>
 7    1  0.2490079E-009  0.9819858E+02  0.7561462E-02  0.1284130E+00
         -2   -1    0    0    0  501 -0.00000000000E+00  0.00000000000E+00  0.76951986552E+02  0.76951986552E+02  0.00000000000E+00 0.  1.
          2   -1    0    0  501    0  0.00000000000E+00 -0.00000000000E+00 -0.24005488911E+03  0.24005488911E+03  0.00000000000E+00 0. -1.
         25    2    1    2    0    0  0.55590889558E+02  0.59804334485E+02 -0.90710246281E+02  0.17476794779E+03  0.12509428991E+03 0.  0.
          5    1    3    3  502    0  0.18572446364E+02  0.22438575266E+02 -0.11352941927E+03  0.11728097401E+03  0.41800000000E+01 0. -1.
         -5    1    3    3    0  502  0.37018443195E+02  0.37365759219E+02  0.22819172988E+02  0.57486973780E+02  0.41800000000E+01 0. -1.
        -11    1    1    2    0    0 -0.17112218346E+02 -0.71871478812E+02 -0.20793806709E+02  0.76751025275E+02  0.00000000000E+00 0.  1.
         11    1    1    2    0    0 -0.38478671212E+02  0.12067144327E+02 -0.51598849566E+02  0.65487902601E+02  0.00000000000E+00 0. -1.
</event>
<event>
 7    1  0.2490079E-009  0.1419585E+03  0.7561462E-02  0.1210718E+00
          2   -1    0    0  501    0  0.00000000000E+00  0.00000000000E+00  0.17219906952E+04  0.17219906952E+04  0.00000000000E+00 0. -1.
         -2   -1    0    0    0  501 -0.00000000000E+00 -0.00000000000E+00 -0.14091792066E+02  0.14091792066E+02  0.00000000000E+00 0.  1.
         25    2    1    2    0    0  0.36100799215E+02  0.93370521763E+02  0.12375272480E+04  0.12478552807E+04  0.12509112696E+03 0.  0.
          5    1    3    3  502    0 -0.17443571605E+02  0.10169069005E+03  0.91134487582E+03  0.91717622609E+03  0.41800000000E+01 0.  1.
         -5    1    3    3    0  502  0.53544370820E+02 -0.83201682840E+01  0.32618237220E+03  0.33067905464E+03  0.41800000000E+01 0.  1.
        -11    1    1    2    0    0  0.84968523236E+01 -0.78995651093E+02  0.35336670477E+03  0.36218853851E+03  0.00000000000E+00 0. -1.
         11    1    1    2    0    0 -0.44597651538E+02 -0.14374870670E+02  0.11700495037E+03  0.12603866803E+03  0.00000000000E+00 0.  1.
</event>
<event>
 7    1  0.2490079E-009  0.1302787E+03  0.7561462E-02  0.1227043E+00
          1   -1    0    0  501    0  0.00000000000E+00  0.00000000000E+00  0.64298248492E+03  0.64298248492E+03  0.00000000000E+00 0. -1.
         -1   -1    0    0    0  501 -0.00000000000E+00 -0.00000000000E+00 -0.57578112369E+02  0.57578112369E+02  0.00000000000E+00 0.  1.
         25    2    1    2    0    0  0.59055564279E+02 -0.75822651206E+02  0.53747453281E+03  0.56014542640E+03  0.12508953267E+03 0.  0.
          5    1    3    3  502    0  0.27166572781E+02  0.17826791733E+02  0.34734428789E+02  0.47746938367E+02  0.41800000000E+01 0. -1.
         -5    1    3    3    0  502  0.31888991498E+02 -0.93649442939E+02  0.50274010403E+03  0.51239848803E+03  0.41800000000E+01 0. -1.
        -11    1    1    2    0    0 -0.51910821333E+02 -0.70712775684E+00  0.44478067736E+01  0.52105819120E+02  0.00000000000E+00 0.  1.
         11    1    1    2    0    0 -0.71447429464E+01  0.76529778963E+02  0.43482032966E+02  0.88309351774E+02  0.00000000000E+00 0. -1.
</event>
<event>
 7    1  0.2490079E-009  0.1139324E+03  0.7561462E-02  0.1253456E+00
          2   -1    0    0  501    0  0.00000000000E+00  0.00000000000E+00  0.10984473710E+04  0.10984473710E+04  0.00000000000E+00 0. -1.
         -2   -1    0    0    0  501 -0.00000000000E+00 -0.00000000000E+00 -0.12629226935E+02  0.12629226935E+02  0.00000000000E+00 0.  1.
         25    2    1    2    0    0 -0.26964077367E+02 -0.33210761343E+02  0.53473437307E+03  0.55083468052E+03  0.12509188376E+03 0.  0.
          5    1    3    3  502    0  0.35269440195E+02  0.23583384490E+02  0.11363986466E+03  0.12137380556E+03  0.41800000000E+01 0. -1.
         -5    1    3    3    0  502 -0.62233517562E+02 -0.56794145833E+02  0.42109450841E+03  0.42946087496E+03  0.41800000000E+01 0. -1.
        -11    1    1    2    0    0  0.54116494897E+02  0.45846934967E+02  0.39096378011E+03  0.39734520737E+03  0.00000000000E+00 0. -1.
         11    1    1    2    0    0 -0.27152417529E+02 -0.12636173624E+02  0.16011999091E+03  0.16289671007E+03  0.00000000000E+00 0.  1.
</event>
<event>
 7    1  0.2490079E-009  0.1436291E+03  0.7561462E-02  0.1208527E+00
          2   -1    0    0  501    0  0.00000000000E+00  0.00000000000E+00  0.39561620677E+03  0.39561620677E+03  0.00000000000E+00 0. -1.
         -2   -1    0    0    0  501 -0.00000000000E+00 -0.00000000000E+00 -0.67686790462E+02  0.67686790462E+02  0.00000000000E+00 0.  1.
         25    2    1    2    0    0  0.16209219039E+02 -0.11500352395E+03  0.11865098344E+03  0.20788022761E+03  0.12509030281E+03 0.  0.
          5    1    3    3  502    0  0.26728908569E+02  0.19108019434E+02  0.40234763504E+02  0.52113909412E+02  0.41800000000E+01 0.  1.
         -5    1    3    3    0  502 -0.10519689530E+02 -0.13411154338E+03  0.78416219934E+02  0.15576631820E+03  0.41800000000E+01 0.  1.
        -11    1    1    2    0    0  0.38046594732E+01  0.72166388364E+02  0.19188654099E+03  0.20504367256E+03  0.00000000000E+00 0.  1.
         11    1    1    2    0    0 -0.20013878512E+02  0.42837135583E+02  0.17391891882E+02  0.50379097067E+02  0.00000000000E+00 0. -1.
</event>
<event>
 7    1  0.2490079E-009  0.1829780E+03  0.7561462E-02  0.1164952E+00
         -1   -1    0    0    0  501 -0.00000000000E+00  0.00000000000E+00  0.45362244773E+02  0.45362244773E+02  0.00000000000E+00 0.  1.
          1   -1    0    0  501    0  0.00000000000E+00 -0.00000000000E+00 -0.95746858308E+03  0.95746858308E+03  0.00000000000E+00 0. -1.
         25    2    1    2    0    0  0.11279781022E+03 -0.12707190687E+03 -0.35509972181E+03  0.41305426306E+03  0.12508955309E+03 0.  0.
          5    1    3    3  502    0  0.20799514344E+02 -0.50712880597E+02 -0.24289093925E+03  0.24903392706E+03  0.41800000000E+01 0. -1.
         -5    1    3    3    0  502  0.91998295872E+02 -0.76359026278E+02 -0.11220878256E+03  0.16402033600E+03  0.41800000000E+01 0. -1.
        -11    1    1    2    0    0 -0.80970689292E+02  0.25470244825E+02 -0.20094464661E+03  0.21813696820E+03  0.00000000000E+00 0.  1.
         11    1    1    2    0    0 -0.31827120924E+02  0.10160166205E+03 -0.35606196989E+03  0.37163959660E+03  0.00000000000E+00 0. -1.
</event>
<event>
 7    1  0.3218623E-009  0.1013561E+03  0.7561462E-02  0.1277470E+00
         -2   -1    0    0    0  501 -0.00000000000E+00  0.00000000000E+00  0.23314420409E+02  0.23314420409E+02  0.00000000000E+00 0.  1.
          2   -1    0    0  501    0  0.00000000000E+00 -0.00000000000E+00 -0.59809715741E+03  0.59809715741E+03  0.00000000000E+00 0. -1.
         25    2    1    2    0    0  0.21931659012E+02  0.17410092508E+02 -0.22824596187E+03  0.26178288698E+03  0.12509976747E+03 0.  0.
          5    1    3    3  502    0  0.48525726648E+01 -0.45030596467E+02 -0.33421223069E+02  0.56442471872E+02  0.41800000000E+01 0.  1.
         -5    1    3    3    0  502  0.17079086347E+02  0.62440688975E+02 -0.19482473880E+03  0.20534041511E+03  0.41800000000E+01 0.  1.
        -11    1    1    2    0    0  0.34352813361E+02 -0.83139340791E+01 -0.18447113187E+03  0.18782661095E+03  0.00000000000E+00 0. -1.
         11    1    1    2    0    0 -0.56284472373E+02 -0.90961584287E+01 -0.16206564326E+03  0.17180207989E+03  0.00000000000E+00 0.  1.
</event>
<event>
 7    1  0.2490079E-009  0.1195722E+03  0.7561462E-02  0.1243804E+00
         -2   -1    0    0    0  501 -0.00000000000E+00  0.00000000000E+00  0.21527079536E+02  0.21527079536E+02  0.00000000000E+00 0.  1.
          2   -1    0    0  501    0  0.00000000000E+00 -0.00000000000E+00 -0.81676559809E+03  0.81676559809E+03  0.00000000000E+00 0. -1.
         25    2    1    2    0    0  0.59998256461E+02  0.22623277524E+02 -0.56666352004E+03  0.58383766658E+03  0.12508905833E+03 0.  0.
          5    1    3    3  502    0 -0.16008422537E+02 -0.30575334068E+02 -0.65619954904E+02  0.74260161104E+02  0.41800000000E+01 0.  1.
         -5    1    3    3    0  502  0.76006678998E+02  0.53198611593E+02 -0.50104356513E+03  0.50957750548E+03  0.41800000000E+01 0.  1.
        -11    1    1    2    0    0 -0.70034192240E+02 -0.47542488260E+02 -0.18111684007E+03  0.19992094945E+03  0.00000000000E+00 0. -1.
         11    1    1    2    0    0  0.10035935779E+02  0.24919210736E+02 -0.47458158442E+02  0.54534061589E+02  0.00000000000E+00 0.  1.
</event>
<event>
 7    1  0.2490079E-009  0.1073816E+03  0.7561462E-02  0.1265497E+00
          2   -1    0    0  501    0  0.00000000000E+00  0.00000000000E+00  0.27453868440E+03  0.27453868440E+03  0.00000000000E+00 0. -1.
         -2   -1    0    0    0  501 -0.00000000000E+00 -0.00000000000E+00 -0.55335036031E+02  0.55335036031E+02  0.00000000000E+00 0.  1.
         25    2    1    2    0    0  0.32907633534E+02  0.41974769551E+02  0.15190476912E+03  0.20388019392E+03  0.12508909212E+03 0.  0.
          5    1    3    3  502    0 -0.25546628425E+02 -0.17170005201E+02  0.10241225549E+03  0.10701953923E+03  0.41800000000E+01 0.  1.
         -5    1    3    3    0  502  0.58454261959E+02  0.59144774752E+02  0.49492513631E+02  0.96860654691E+02  0.41800000000E+01 0.  1.
        -11    1    1    2    0    0 -0.61692207448E+02 -0.22418462087E+02  0.62909757798E+02  0.90918389385E+02  0.00000000000E+00 0. -1.
         11    1    1    2    0    0  0.28784573914E+02 -0.19556307464E+02  0.43891214460E+01  0.35075137122E+02  0.00000000000E+00 0.  1.
</event>
<event>
 7    1  0.2490079E-009  0.1076558E+03  0.7561462E-02  0.1264974E+00
          1   -1    0    0  501    0  0.00000000000E+00  0.00000000000E+00  0.25105357383E+02  0.25105357383E+02  0.00000000000E+00 0. -1.
         -1   -1    0    0    0  501 -0.00000000000E+00 -0.00000000000E+00 -0.80491559167E+03  0.80491559167E+03  0.00000000000E+00 0.  1.
         25    2    1    2    0    0  0.21183580703E+02 -0.70023469664E+02 -0.58666580983E+03  0.60429740605E+03  0.12508617888E+03 0.  0.
          5    1    3    3  502    0  0.71316837636E+02 -0.45061779242E+02 -0.42046655364E+03  0.42886623836E+03  0.41800000000E+01 0. -1.
         -5    1    3    3    0  502 -0.50133256932E+02 -0.24961690422E+02 -0.16619925619E+03  0.17543116769E+03  0.41800000000E+01 0. -1.
        -11    1    1    2    0    0 -0.17935269918E+02  0.33312397877E+02 -0.18386721778E+03  0.18771932115E+03  0.00000000000E+00 0.  1.
         11    1    1    2    0    0 -0.32483107852E+01  0.36711071788E+02 -0.92772066822E+01  0.38004221852E+02  0.00000000000E+00 0. -1.
</event>
<event>
 7    1  0.2490079E-009  0.1251952E+03  0.7561462E-02  0.1234765E+00
         -2   -1    0    0    0  501 -0.00000000000E+00  0.00000000000E+00  0.17377348527E+03  0.17377348527E+03  0.00000000000E+00 0.  1.
          2   -1    0    0  501    0  0.00000000000E+00 -0.00000000000E+00 -0.13424982951E+03  0.13424982951E+03  0.00000000000E+00 0. -1.
         25    2    1    2    0    0  0.31729668530E+00 -0.11816709747E+03  0.37490120503E+02  0.17610921808E+03  0.12508150925E+03 0.  0.
          5    1    3    3  502    0  0.68258839708E+01 -0.10986908985E+03  0.77390493962E+02  0.13462752524E+03  0.41800000000E+01 0. -1.
         -5    1    3    3    0  502 -0.65085872855E+01 -0.82980076162E+01 -0.39900373459E+02  0.41481692841E+02  0.41800000000E+01 0. -1.
        -11    1    1    2    0    0  0.21883681037E+02  0.92013601173E+02 -0.10996189142E+02  0.95217196305E+02  0.00000000000E+00 0.  1.
         11    1    1    2    0    0 -0.22200977723E+02  0.26153496295E+02  0.13029724403E+02  0.36696900391E+02  0.00000000000E+00 0. -1.
</event>
<event>
 7    1  0.2490079E-009  0.3938369E+02  0.7561462E-02  0.1512796E+00
          1   -1    0    0  501    0  0.00000000000E+00  0.00000000000E+00  0.42503081131E+03  0.42503081131E+03  0.00000000000E+00 0. -1.
         -1   -1    0    0    0  501 -0.00000000000E+00 -0.00000000000E+00 -0.27200429237E+02  0.27200429237E+02  0.00000000000E+00 0.  1.
         25    2    1    2    0    0  0.14239821775E+02 -0.14036476998E+02  0.30254002111E+03  0.32798565889E+03  0.12507730752E+03 0.  0.
          5    1    3    3  502    0  0.11528781987E+02 -0.10013021142E+01  0.31127784671E+03  0.31152092333E+03  0.41800000000E+01 0. -1.
         -5    1    3    3    0  502  0.27110397879E+01 -0.13035174883E+02 -0.87378256005E+01  0.16464735564E+02  0.41800000000E+01 0. -1.
        -11    1    1    2    0    0 -0.29889100353E+01  0.31550690382E+02  0.56146372772E+01  0.32185459427E+02  0.00000000000E+00 0.  1.
         11    1    1    2    0    0 -0.11250911740E+02 -0.17514213384E+02  0.89675723691E+02  0.92060122230E+02  0.00000000000E+00 0. -1.
</event>
<event>
 7    1  0.2490079E-009  0.1534189E+03  0.7561462E-02  0.1196334E+00
         -1   -1    0    0    0  501 -0.00000000000E+00  0.00000000000E+00  0.61234538942E+03  0.61234538942E+03  0.00000000000E+00 0.  1.
          1   -1    0    0  501    0  0.00000000000E+00 -0.00000000000E+00 -0.52388865875E+02  0.52388865875E+02  0.00000000000E+00 0. -1.
         25    2    1    2    0    0  0.13885398218E+03 -0.29146920321E+02  0.27224795222E+03  0.33151190236E+03  0.12510484638E+03 0.  0.
          5    1    3    3  502    0  0.16381586358E+02  0.22630606605E+01  0.16437809260E+03  0.16526072595E+03  0.41800000000E+01 0.  1.
         -5    1    3    3    0  502  0.12247239582E+03 -0.31409980982E+02  0.10786985961E+03  0.16625117641E+03  0.41800000000E+01 0.  1.
        -11    1    1    2    0    0 -0.83815232399E+01  0.31688512235E+02  0.94917859724E+02  0.10041818478E+03  0.00000000000E+00 0.  1.
         11    1    1    2    0    0 -0.13047245894E+03 -0.25415919134E+01  0.19279071160E+03  0.23280416816E+03  0.00000000000E+00 0. -1.
</event>
<event>
 7    1  0.2490079E-009  0.1767264E+03  0.7561462E-02  0.1171009E+00
         -2   -1    0    0    0  501 -0.00000000000E+00  0.00000000000E+00  0.24268853400E+02  0.24268853400E+02  0.00000000000E+00 0.  1.
          2   -1    0    0  501    0  0.00000000000E+00 -0.00000000000E+00 -0.13959023507E+04  0.13959023507E+04  0.00000000000E+00 0. -1.
         25    2    1    2    0    0  0.14104961505E+02 -0.13935477269E+03 -0.91572739954E+03  0.93478511011E+03  0.12509128350E+03 0.  0.
          5    1    3    3  502    0  0.26223434115E+02  0.16598006639E+02 -0.15284795005E+03  0.15602285267E+03  0.41800000000E+01 0. -1.
         -5    1    3    3    0  502 -0.12118472610E+02 -0.15595277933E+03 -0.76287944948E+03  0.77876225743E+03  0.41800000000E+01 0. -1.
        -11    1    1    2    0    0  0.30083191747E+02  0.14857149189E+02 -0.11439544639E+03  0.11921430897E+03  0.00000000000E+00 0. -1.
         11    1    1    2    0    0 -0.44188153252E+02  0.12449762351E+03 -0.34151065138E+03  0.36617178503E+03  0.00000000000E+00 0.  1.
</event>
<event>
 7    1  0.2490079E-009  0.1235416E+03  0.7561462E-02  0.1237366E+00
         -1   -1    0    0    0  501 -0.00000000000E+00  0.00000000000E+00  0.30666930905E+02  0.30666930905E+02  0.00000000000E+00 0.  1.
          1   -1    0    0  501    0  0.00000000000E+00 -0.00000000000E+00 -0.70024637232E+03  0.70024637232E+03  0.00000000000E+00 0. -1.
         25    2    1    2    0    0  0.41929168716E+02 -0.89640722785E+02 -0.53601760619E+03  0.55924609179E+03  0.12509117741E+03 0.  0.
          5    1    3    3  502    0  0.69334171170E+02 -0.19465673323E+02 -0.15683225390E+03  0.17262667232E+03  0.41800000000E+01 0.  1.
         -5    1    3    3    0  502 -0.27405002454E+02 -0.70175049462E+02 -0.37918535228E+03  0.38661941947E+03  0.41800000000E+01 0.  1.
        -11    1    1    2    0    0 -0.23435468107E+02  0.61573328870E+02 -0.53613986759E+02  0.84940894566E+02  0.00000000000E+00 0.  1.
         11    1    1    2    0    0 -0.18493700609E+02  0.28067393915E+02 -0.79947848465E+02  0.86726316869E+02  0.00000000000E+00 0. -1.
</event>
<event>
 7    1  0.2490079E-009  0.8071875E+02  0.7561462E-02  0.1327024E+00
         -3   -1    0    0    0  501 -0.00000000000E+00  0.00000000000E+00  0.85912310400E+03  0.85912310400E+03  0.00000000000E+00 0.  1.
          3   -1    0    0  501    0  0.00000000000E+00 -0.00000000000E+00 -0.16017877141E+02  0.16017877141E+02  0.00000000000E+00 0. -1.
         25    2    1    2    0    0 -0.28982441372E+02  0.32942509805E+02  0.51999223536E+03  0.53662340481E+03  0.12509021903E+03 0.  0.
          5    1    3    3  502    0  0.68534554125E+01 -0.60766846875E+01 -0.33339603405E+01  0.10605830445E+02  0.41800000000E+01 0.  1.
         -5    1    3    3    0  502 -0.35835896784E+02  0.39019194492E+02  0.52332619570E+03  0.52601757437E+03  0.41800000000E+01 0.  1.
        -11    1    1    2    0    0 -0.30885195946E+02 -0.22958009711E+01  0.68578348397E+02  0.75247298288E+02  0.00000000000E+00 0.  1.
         11    1    1    2    0    0  0.59867637318E+02 -0.30646708834E+02  0.25453464310E+03  0.26327027804E+03  0.00000000000E+00 0. -1.
</event>
<event>
 7    1  0.2490079E-009  0.1079265E+03  0.7561462E-02  0.1264459E+00
         -2   -1    0    0    0  501 -0.00000000000E+00  0.00000000000E+00  0.18257542494E+02  0.18257542494E+02  0.00000000000E+00 0.  1.
          2   -1    0    0  501    0  0.00000000000E+00 -0.00000000000E+00 -0.72022814160E+03  0.72022814160E+03  0.00000000000E+00 0. -1.
         25    2    1    2    0    0 -0.47214568495E+01 -0.35208509349E+02 -0.38069870553E+03  0.40229497774E+03  0.12509122046E+03 0.  0.
          5    1    3    3  502    0  0.34646920777E+02  0.32500934224E+02 -0.19429454093E+03  0.20006139278E+03  0.41800000000E+01 0. -1.
         -5    1    3    3    0  502 -0.39368377627E+02 -0.67709443572E+02 -0.18640416460E+03  0.20223358496E+03  0.41800000000E+01 0. -1.
        -11    1    1    2    0    0 -0.18060124323E+02 -0.21817210813E+02 -0.44958635261E+02  0.53136029798E+02  0.00000000000E+00 0.  1.
         11    1    1    2    0    0  0.22781581173E+02  0.57025720161E+02 -0.27631325831E+03  0.28305467655E+03  0.00000000000E+00 0. -1.
</event>
<event>
 7    1  0.2490079E-009  0.1400160E+03  0.7561462E-02  0.1213307E+00
          1   -1    0    0  501    0  0.00000000000E+00  0.00000000000E+00  0.72221758983E+03  0.72221758983E+03  0.00000000000E+00 0. -1.
         -1   -1    0    0    0  501 -0.00000000000E+00 -0.00000000000E+00 -0.38685250180E+02  0.38685250180E+02  0.00000000000E+00 0.  1.
         25    2    1    2    0    0  0.19542574494E+01  0.12623355177E+03  0.41708186817E+03  0.45336763610E+03  0.12508477121E+03 0.  0.
          5    1    3    3  502    0  0.33974832090E+01  0.67342083229E+02  0.56755287125E+02  0.88233406839E+02  0.41800000000E+01 0.  1.
         -5    1    3    3    0  502 -0.14432257596E+01  0.58891468546E+02  0.36032658104E+03  0.36513422926E+03  0.41800000000E+01 0.  1.
        -11    1    1    2    0    0  0.26866608668E+02 -0.12122275092E+03  0.22077427039E+03  0.25329439091E+03  0.00000000000E+00 0. -1.
         11    1    1    2    0    0 -0.28820866118E+02 -0.50108008581E+01  0.45676201083E+02  0.54240812995E+02  0.00000000000E+00 0.  1.
</event>
<event>
 7    1  0.2490079E-009  0.1140830E+03  0.7561462E-02  0.1253190E+00
         -2   -1    0    0    0  501 -0.00000000000E+00  0.00000000000E+00  0.43614179423E+02  0.43614179423E+02  0.00000000000E+00 0.  1.
          2   -1    0    0  501    0  0.00000000000E+00 -0.00000000000E+00 -0.42670832752E+03  0.42670832752E+03  0.00000000000E+00 0. -1.
         25    2    1    2    0    0  0.29283760702E+02  0.76947170992E+02 -0.24933630355E+03  0.29085197170E+03  0.12509145219E+03 0.  0.
          5    1    3    3  502    0  0.23666600094E+02  0.10539810735E+03 -0.13568273251E+03  0.17348240629E+03  0.41800000000E+01 0.  1.
         -5    1    3    3    0  502  0.56171606079E+01 -0.28450936359E+02 -0.11365357105E+03  0.11736956541E+03  0.41800000000E+01 0.  1.
        -11    1    1    2    0    0 -0.32546773506E+02 -0.31817766339E+02 -0.12547001816E+03  0.13347055172E+03  0.00000000000E+00 0. -1.
         11    1    1    2    0    0  0.32630128046E+01 -0.45129404653E+02 -0.82878263809E+01  0.45999983511E+02  0.00000000000E+00 0.  1.
</event>
<event>
 7    1  0.2490079E-009  0.1168792E+03  0.7561462E-02  0.1248336E+00
         -2   -1    0    0    0  501 -0.00000000000E+00  0.00000000000E+00  0.45273859376E+02  0.45273859376E+02  0.00000000000E+00 0.  1.
          2   -1    0    0  501    0  0.00000000000E+00 -0.00000000000E+00 -0.48716808138E+03  0.48716808138E+03  0.00000000000E+00 0. -1.
         25    2    1    2    0    0 -0.18001326837E+02  0.84584376329E+02 -0.33203003267E+03  0.36519706981E+03  0.12508554160E+03 0.  0.
          5    1    3    3  502    0  0.32795318826E+02  0.80412496823E+02 -0.12716506778E+03  0.15404586799E+03  0.41800000000E+01 0.  1.
         -5    1    3    3    0  502 -0.50796645663E+02  0.41718795059E+01 -0.20486496489E+03  0.21115120182E+03  0.41800000000E+01 0.  1.
        -11    1    1    2    0    0  0.20508677979E+02 -0.13512637356E+02  0.11078430466E+02  0.26943067056E+02  0.00000000000E+00 0.  1.
         11    1    1    2    0    0 -0.25073511419E+01 -0.71071738973E+02 -0.12094261980E+03  0.14030180389E+03  0.00000000000E+00 0. -1.
</event>
<event>
 7    1  0.2490079E-009  0.6274243E+02  0.7561462E-02  0.1386671E+00
         -1   -1    0    0    0  501 -0.00000000000E+00  0.00000000000E+00  0.45297461379E+03  0.45297461379E+03  0.00000000000E+00 0.  1.
          1   -1    0    0  501    0  0.00000000000E+00 -0.00000000000E+00 -0.31779120009E+02  0.31779120009E+02  0.00000000000E+00 0. -1.
         25    2    1    2    0    0 -0.34637092445E+02 -0.95604060150E+01  0.31527391721E+03  0.34107943059E+03  0.12508559294E+03 0.  0.
          5    1    3    3  502    0 -0.29093519750E+02 -0.22035212213E+02  0.13759625224E+02  0.39227326636E+02  0.41800000000E+01 0.  1.
         -5    1    3    3    0  502 -0.55435726956E+01  0.12474806198E+02  0.30151429199E+03  0.30185210395E+03  0.41800000000E+01 0.  1.
        -11    1    1    2    0    0 -0.17478031294E+02  0.13680566800E+02 -0.34395117059E+01  0.22460403528E+02  0.00000000000E+00 0. -1.
         11    1    1    2    0    0  0.52115123739E+02 -0.41201607850E+01  0.10936108827E+03  0.12121389968E+03  0.00000000000E+00 0.  1.
</event>
<event>
 7    1  0.2490079E-009  0.1064572E+03  0.7561462E-02  0.1267275E+00
         -1   -1    0    0    0  501 -0.00000000000E+00  0.00000000000E+00  0.21223431027E+03  0.21223431027E+03  0.00000000000E+00 0.  1.
          1   -1    0    0  501    0  0.00000000000E+00 -0.00000000000E+00 -0.76353572209E+02  0.76353572209E+02  0.00000000000E+00 0. -1.
         25    2    1    2    0    0 -0.25576105275E+02 -0.41767616208E+00  0.14573538327E+03  0.19375360614E+03  0.12508935342E+03 0.  0.
          5    1    3    3  502    0 -0.72702901106E+02 -0.38122427696E+01  0.11826441353E+03  0.13893951538E+03  0.41800000000E+01 0.  1.
         -5    1    3    3    0  502  0.47126795831E+02  0.33945666075E+01  0.27470969741E+02  0.54814090764E+02  0.41800000000E+01 0.  1.
        -11    1    1    2    0    0 -0.33328109146E+02  0.38750075651E+01  0.51631240346E+01  0.33947553560E+02  0.00000000000E+00 0.  1.
         11    1    1    2    0    0  0.58904214421E+02 -0.34573314030E+01 -0.15017769253E+02  0.60886722775E+02  0.00000000000E+00 0. -1.
</event>
<event>
 7    1  0.2490079E-009  0.1841656E+03  0.7561462E-02  0.1163831E+00
         -2   -1    0    0    0  501 -0.00000000000E+00  0.00000000000E+00  0.35081689184E+02  0.35081689184E+02  0.00000000000E+00 0.  1.
          2   -1    0    0  501    0  0.00000000000E+00 -0.00000000000E+00 -0.11602681448E+04  0.11602681448E+04  0.00000000000E+00 0. -1.
         25    2    1    2    0    0  0.15442910808E+03 -0.70950001610E+02 -0.58755408216E+03  0.62430056645E+03  0.12509654536E+03 0.  0.
          5    1    3    3  502    0  0.18614099187E+02  0.21475227160E+02 -0.21762750448E+03  0.21951508644E+03  0.41800000000E+01 0.  1.
         -5    1    3    3    0  502  0.13581500889E+03 -0.92425228770E+02 -0.36992657768E+03  0.40478548001E+03  0.41800000000E+01 0.  1.
        -11    1    1    2    0    0 -0.10511076339E+03  0.25398047551E+02 -0.43625451275E+03  0.44945670903E+03  0.00000000000E+00 0. -1.
         11    1    1    2    0    0 -0.49318344688E+02  0.45551954059E+02 -0.10137786073E+03  0.12159255852E+03  0.00000000000E+00 0.  1.
</event>
<event>
 7    1  0.2490079E-009  0.9972764E+02  0.7561462E-02  0.1280870E+00
         -3   -1    0    0    0  501 -0.00000000000E+00  0.00000000000E+00  0.18069922986E+03  0.18069922986E+03  0.00000000000E+00 0.  1.
          3   -1    0    0  501    0  0.00000000000E+00 -0.00000000000E+00 -0.72986876090E+02  0.72986876090E+02  0.00000000000E+00 0. -1.
         25    2    1    2    0    0  0.36516059841E+02  0.40336135876E+00  0.41269986387E+02  0.13668785794E+03  0.12508706330E+03 0.  0.
          5    1    3    3  502    0 -0.60023220361E+01  0.44030869478E+02 -0.21128549426E+02  0.49382520568E+02  0.41800000000E+01 0.  1.
         -5    1    3    3    0  502  0.42518381877E+02 -0.43627508119E+02  0.62398535814E+02  0.87305337373E+02  0.41800000000E+01 0.  1.
        -11    1    1    2    0    0 -0.20061246704E+02  0.42940850955E+02  0.20213721634E+02  0.51526350951E+02  0.00000000000E+00 0. -1.
         11    1    1    2    0    0 -0.16454813137E+02 -0.43344212313E+02  0.46228645747E+02  0.65471897055E+02  0.00000000000E+00 0.  1.
</event>
<event>
 7    1  0.2490079E-009  0.1448461E+03  0.7561462E-02  0.1206953E+00
          1   -1    0    0  501    0  0.00000000000E+00  0.00000000000E+00  0.45943292846E+03  0.45943292846E+03  0.00000000000E+00 0. -1.
         -1   -1    0    0    0  501 -0.00000000000E+00 -0.00000000000E+00 -0.49732821354E+02  0.49732821354E+02  0.00000000000E+00 0.  1.
         25    2    1    2    0    0 -0.59537540294E+02  0.79475897943E+02  0.16837779659E+03  0.23207718420E+03  0.12509036726E+03 0.  0.
          5    1    3    3  502    0 -0.91832224401E+02  0.31145084700E+02  0.13024350723E+03  0.16243157733E+03  0.41800000000E+01 0.  1.
         -5    1    3    3    0  502  0.32294684107E+02  0.48330813243E+02  0.38134289365E+02  0.69645606866E+02  0.41800000000E+01 0.  1.
        -11    1    1    2    0    0  0.74835480127E+02 -0.26779569088E+02  0.16434056947E+03  0.18255223138E+03  0.00000000000E+00 0.  1.
         11    1    1    2    0    0 -0.15297939832E+02 -0.52696328855E+02  0.76981741041E+02  0.94536334240E+02  0.00000000000E+00 0. -1.
</event>
<event>
 7    1  0.2490079E-009  0.1212785E+03  0.7561462E-02  0.1241003E+00
          1   -1    0    0  501    0  0.00000000000E+00  0.00000000000E+00  0.40699399770E+03  0.40699399770E+03  0.00000000000E+00 0. -1.
         -1   -1    0    0    0  501 -0.00000000000E+00 -0.00000000000E+00 -0.59706879101E+02  0.59706879101E+02  0.00000000000E+00 0.  1.
         25    2    1    2    0    0 -0.18890061701E+02 -0.93008523327E+02  0.27321098229E+03  0.31511693855E+03  0.12508806606E+03 0.  0.
          5    1    3    3  502    0 -0.28536306178E+02 -0.99869765424E+02  0.28149558575E+03  0.30007587043E+03  0.41800000000E+01 0.  1.
         -5    1    3    3    0  502  0.96462444778E+01  0.68612420978E+01 -0.82846034583E+01  0.15041068117E+02  0.41800000000E+01 0.  1.
        -11    1    1    2    0    0 -0.32800829901E+02  0.43464695273E+02  0.55199694375E+02  0.77537606595E+02  0.00000000000E+00 0. -1.
         11    1    1    2    0    0  0.51690891602E+02  0.49543828054E+02  0.18876441936E+02  0.74046331664E+02  0.00000000000E+00 0.  1.
</event>
<event>
 7    1  0.2490079E-009  0.1459462E+03  0.7561462E-02  0.1205545E+00
         -1   -1    0    0    0  501 -0.00000000000E+00  0.00000000000E+00  0.25201555703E+02  0.25201555703E+02  0.00000000000E+00 0.  1.
          1   -1    0    0  501    0  0.00000000000E+00 -0.00000000000E+00 -0.95040748748E+03  0.95040748748E+03  0.00000000000E+00 0. -1.
         25    2    1    2    0    0 -0.65313357732E+01 -0.99840523598E+02 -0.34249965999E+03  0.37810646920E+03  0.12509075289E+03 0.  0.
          5    1    3    3  502    0  0.57911477744E+02 -0.31160426118E+02 -0.14345354342E+03  0.15786419141E+03  0.41800000000E+01 0. -1.
         -5    1    3    3    0  502 -0.64442813517E+02 -0.68680097480E+02 -0.19904611657E+03  0.22024227779E+03  0.41800000000E+01 0. -1.
        -11    1    1    2    0    0  0.44142956747E+02  0.33317861876E+02 -0.26850166518E+03  0.27413833142E+03  0.00000000000E+00 0. -1.
         11    1    1    2    0    0 -0.37611620974E+02  0.66522661721E+02 -0.31420460660E+03  0.32336424256E+03  0.00000000000E+00 0.  1.
</event>
<event>
 7    1  0.2490079E-009  0.1282111E+03  0.7561462E-02  0.1230135E+00
         -2   -1    0    0    0  501 -0.00000000000E+00  0.00000000000E+00  0.39062602307E+02  0.39062602307E+02  0.00000000000E+00 0.  1.
          2   -1    0    0  501    0  0.00000000000E+00 -0.00000000000E+00 -0.54974280517E+03  0.54974280517E+03  0.00000000000E+00 0. -1.
         25    2    1    2    0    0 -0.55046650777E+01  0.77486138971E+02 -0.39832067073E+03  0.42466619406E+03  0.12509043358E+03 0.  0.
          5    1    3    3  502    0  0.11726953488E+02 -0.33040508946E+02 -0.95353352558E+02  0.10168053360E+03  0.41800000000E+01 0. -1.
         -5    1    3    3    0  502 -0.17231618565E+02  0.11052664792E+03 -0.30296731817E+03  0.32298566045E+03  0.41800000000E+01 0. -1.
        -11    1    1    2    0    0 -0.27146544477E+02 -0.23476490316E+01 -0.28797553931E+01  0.27399622701E+02  0.00000000000E+00 0.  1.
         11    1    1    2    0    0  0.32651209555E+02 -0.75138489939E+02 -0.10947977674E+03  0.13673959072E+03  0.00000000000E+00 0. -1.
</event>
<event>
 7    1  0.2490079E-009  0.1006966E+03  0.7561462E-02  0.1278838E+00
         -2   -1    0    0    0  501 -0.00000000000E+00  0.00000000000E+00  0.30214332293E+02  0.30214332293E+02  0.00000000000E+00 0.  1.
          2   -1    0    0  501    0  0.00000000000E+00 -0.00000000000E+00 -0.56843420953E+03  0.56843420953E+03  0.00000000000E+00 0. -1.
         25    2    1    2    0    0  0.44521869631E+02  0.25442721720E+01 -0.43231654372E+03  0.45225349280E+03  0.12508779949E+03 0.  0.
          5    1    3    3  502    0  0.54122696276E+02 -0.49072216118E+02 -0.17644078481E+03  0.19101353772E+03  0.41800000000E+01 0.  1.
         -5    1    3    3    0  502 -0.96008266450E+01  0.51616488290E+02 -0.25587575890E+03  0.26123995508E+03  0.41800000000E+01 0.  1.
        -11    1    1    2    0    0 -0.49153450853E+02 -0.23218874372E+02 -0.20010197126E+02  0.57927418783E+02  0.00000000000E+00 0.  1.
         11    1    1    2    0    0  0.46315812222E+01  0.20674602200E+02 -0.85893136397E+02  0.88467630243E+02  0.00000000000E+00 0. -1.
</event>
<event>
 7    1  0.2490079E-009  0.9747622E+02  0.7561462E-02  0.1285694E+00
          1   -1    0    0  501    0  0.00000000000E+00  0.00000000000E+00  0.19170866457E+03  0.19170866457E+03  0.00000000000E+00 0. -1.
         -1   -1    0    0    0  501 -0.00000000000E+00 -0.00000000000E+00 -0.95862299745E+02  0.95862299745E+02  0.00000000000E+00 0.  1.
         25    2    1    2    0    0  0.38203795222E+02 -0.45653892521E+02  0.10489592813E+03  0.17376757509E+03  0.12509279172E+03 0.  0.
          5    1    3    3  502    0  0.72612952653E+02 -0.60524273742E+02  0.96453728911E+02  0.13511707082E+03  0.41800000000E+01 0.  1.
         -5    1    3    3    0  502 -0.34409157431E+02  0.14870381221E+02  0.84421992237E+01  0.38650504273E+02  0.41800000000E+01 0.  1.
        -11    1    1    2    0    0 -0.21838008886E+02  0.39488498266E+02 -0.51153191976E+02  0.68212089667E+02  0.00000000000E+00 0.  1.
         11    1    1    2    0    0 -0.16365786335E+02  0.61653942543E+01  0.42103628663E+02  0.45591299557E+02  0.00000000000E+00 0. -1.
</event>
<event>
 7    1  0.2490079E-009  0.1552512E+03  0.7561462E-02  0.1194165E+00
         -2   -1    0    0    0  501 -0.00000000000E+00  0.00000000000E+00  0.23835006178E+02  0.23835006178E+02  0.00000000000E+00 0.  1.
          2   -1    0    0  501    0  0.00000000000E+00 -0.00000000000E+00 -0.16141725105E+04  0.16141725105E+04  0.00000000000E+00 0. -1.
         25    2    1    2    0    0  0.14174549901E+03  0.43986266056E+02 -0.11483690987E+04  0.11646567158E+04  0.12508837161E+03 0.  0.
          5    1    3    3  502    0  0.41701234994E+02  0.33262672754E+02 -0.12024023451E+03  0.13160769276E+03  0.41800000000E+01 0. -1.
         -5    1    3    3    0  502  0.10004426402E+03  0.10723593303E+02 -0.10281288642E+04  0.10330490230E+04  0.41800000000E+01 0. -1.
        -11    1    1    2    0    0 -0.60279920786E+02  0.62178112218E+01 -0.89227897822E+02  0.10786077960E+03  0.00000000000E+00 0.  1.
         11    1    1    2    0    0 -0.81465578229E+02 -0.50204077278E+02 -0.35274050779E+03  0.36549002127E+03  0.00000000000E+00 0. -1.
</event>
<event>
 7    1  0.2490079E-009  0.1568962E+03  0.7561462E-02  0.1192246E+00
         -2   -1    0    0    0  501 -0.00000000000E+00  0.00000000000E+00  0.32083667751E+02  0.32083667751E+02  0.00000000000E+00 0.  1.
          2   -1    0    0  501    0  0.00000000000E+00 -0.00000000000E+00 -0.14237593639E+04  0.14237593639E+04  0.00000000000E+00 0. -1.
         25    2    1    2    0    0 -0.10727541144E+03  0.82852803015E+02 -0.11477700008E+04  0.11624954337E+04  0.12508819992E+03 0.  0.
          5    1    3    3  502    0 -0.12448064080E+03  0.59332646043E+02 -0.68301670588E+03  0.69681065271E+03  0.41800000000E+01 0.  1.
         -5    1    3    3    0  502  0.17205229360E+02  0.23520156972E+02 -0.46475329488E+03  0.46568478094E+03  0.41800000000E+01 0.  1.
        -11    1    1    2    0    0  0.54845008871E+02 -0.75693757981E+02 -0.21165575981E+03  0.23137778774E+03  0.00000000000E+00 0. -1.
         11    1    1    2    0    0  0.52430402573E+02 -0.71590450341E+01 -0.32249935590E+02  0.61969810273E+02  0.00000000000E+00 0.  1.
</event>
<event>
 7    1  0.2490079E-009  0.1484244E+03  0.7561462E-02  0.1202423E+00
          3   -1    0    0  501    0  0.00000000000E+00  0.00000000000E+00  0.55661188150E+03  0.55661188150E+03  0.00000000000E+00 0. -1.
         -3   -1    0    0    0  501 -0.00000000000E+00 -0.00000000000E+00 -0.40554995311E+02  0.40554995311E+02  0.00000000000E+00 0.  1.
         25    2    1    2    0    0  0.96219871388E+02 -0.34121808181E+02  0.25073956305E+03  0.29822680041E+03  0.12508530913E+03 0.  0.
          5    1    3    3  502    0  0.38091661218E+01  0.41481146821E+02  0.70281852308E+02  0.81805907195E+02  0.41800000000E+01 0. -1.
         -5    1    3    3    0  502  0.92410705266E+02 -0.75602955002E+02  0.18045771074E+03  0.21642089321E+03  0.41800000000E+01 0. -1.
        -11    1    1    2    0    0 -0.75349591164E+02 -0.19620159928E+02  0.17827227613E+03  0.19453409984E+03  0.00000000000E+00 0.  1.
         11    1    1    2    0    0 -0.20870280224E+02  0.53741968109E+02  0.87045047011E+02  0.10440597656E+03  0.00000000000E+00 0. -1.
</event>
<event>
 7    1  0.2490079E-009  0.1056910E+03  0.7561462E-02  0.1268764E+00
         -2   -1    0    0    0  501 -0.00000000000E+00  0.00000000000E+00  0.48184297990E+02  0.48184297990E+02  0.00000000000E+00 0. -1.
          2   -1    0    0  501    0  0.00000000000E+00 -0.00000000000E+00 -0.40281125266E+03  0.40281125266E+03  0.00000000000E+00 0.  1.
         25    2    1    2    0    0 -0.12255410552E+02  0.41977006411E+02 -0.31436427017E+03  0.34114875320E+03  0.12508122679E+03 0.  0.
          5    1    3    3  502    0  0.21681227773E+02 -0.29133880154E+02 -0.34108501863E+02  0.49997209021E+02  0.41800000000E+01 0.  1.
         -5    1    3    3    0  502 -0.33936638325E+02  0.71110886565E+02 -0.28025576831E+03  0.29115154418E+03  0.41800000000E+01 0.  1.
        -11    1    1    2    0    0 -0.67866444338E+01 -0.65390779166E+02 -0.44477760534E+02  0.79374326610E+02  0.00000000000E+00 0.  1.
         11    1    1    2    0    0  0.19042054986E+02  0.23413772755E+02  0.42150760393E+01  0.30472470834E+02  0.00000000000E+00 0. -1.
</event>
<event>
 7    1  0.2490079E-009  0.1163184E+03  0.7561462E-02  0.1249297E+00
          1   -1    0    0  501    0  0.00000000000E+00  0.00000000000E+00  0.17237893100E+03  0.17237893100E+03  0.00000000000E+00 0. -1.
         -1   -1    0    0    0  501 -0.00000000000E+00 -0.00000000000E+00 -0.10413325790E+03  0.10413325790E+03  0.00000000000E+00 0.  1.
         25    2    1    2    0    0  0.19516411474E+02  0.41800035738E+02 -0.28169601106E+02  0.13626930796E+03  0.12509062539E+03 0.  0.
          5    1    3    3  502    0  0.70623023716E+02  0.71863703411E+01 -0.19971765889E+02  0.73862028338E+02  0.41800000000E+01 0.  1.
         -5    1    3    3    0  502 -0.51106612242E+02  0.34613665397E+02 -0.81978352173E+01  0.62407279618E+02  0.41800000000E+01 0.  1.
        -11    1    1    2    0    0  0.35455605908E+02 -0.17880176259E+02  0.52988060704E+02  0.66215823416E+02  0.00000000000E+00 0. -1.
         11    1    1    2    0    0 -0.54972017383E+02 -0.23919859480E+02  0.43427213502E+02  0.74027057521E+02  0.00000000000E+00 0.  1.
</event>
<event>
 7    1  0.2490079E-009  0.1461421E+03  0.7561462E-02  0.1205295E+00
         -3   -1    0    0    0  501 -0.00000000000E+00  0.00000000000E+00  0.88767451716E+02  0.88767451716E+02  0.00000000000E+00 0.  1.
          3   -1    0    0  501    0  0.00000000000E+00 -0.00000000000E+00 -0.29633018566E+03  0.29633018566E+03  0.00000000000E+00 0. -1.
         25    2    1    2    0    0 -0.11913048869E+03 -0.15827524908E+02 -0.82861286829E+02  0.19223549537E+03  0.12508360782E+03 0.  0.
          5    1    3    3  502    0 -0.13694579686E+03 -0.33474147716E+02 -0.47782733899E+02  0.14891384053E+03  0.41800000000E+01 0.  1.
         -5    1    3    3    0  502  0.17815308176E+02  0.17646622808E+02 -0.35078552930E+02  0.43321654834E+02  0.41800000000E+01 0.  1.
        -11    1    1    2    0    0  0.18638633822E+02 -0.11219502666E+02 -0.73940146507E+02  0.77074127801E+02  0.00000000000E+00 0. -1.
         11    1    1    2    0    0  0.10049185486E+03  0.27047027574E+02 -0.50761300605E+02  0.11578801420E+03  0.00000000000E+00 0.  1.
</event>
<event>
 7    1  0.2490079E-009  0.9504299E+02  0.7561462E-02  0.1291079E+00
          1   -1    0    0  501    0  0.00000000000E+00  0.00000000000E+00  0.35461287422E+03  0.35461287422E+03  0.00000000000E+00 0. -1.
         -1   -1    0    0    0  501 -0.00000000000E+00 -0.00000000000E+00 -0.39140314886E+02  0.39140314886E+02  0.00000000000E+00 0.  1.
         25    2    1    2    0    0 -0.16653525436E+02  0.42018401511E+02  0.16556735754E+03  0.21237405630E+03  0.12508918390E+03 0.  0.
          5    1    3    3  502    0  0.28931902176E+02  0.50028324349E+01  0.14799533262E+03  0.15093764995E+03  0.41800000000E+01 0.  1.
         -5    1    3    3    0  502 -0.45585427613E+02  0.37015569076E+02  0.17572024923E+02  0.61436406345E+02  0.41800000000E+01 0.  1.
        -11    1    1    2    0    0  0.16883264647E+02 -0.70795514326E+02  0.98571782900E+02  0.12252936733E+03  0.00000000000E+00 0.  1.
         11    1    1    2    0    0 -0.22973921064E+00  0.28777112815E+02  0.51333418888E+02  0.58849765478E+02  0.00000000000E+00 0. -1.
</event>
<event>
 7    1  0.2490079E-009  0.9117734E+02  0.7561462E-02  0.1300025E+00
          1   -1    0    0  501    0  0.00000000000E+00  0.00000000000E+00  0.49415262498E+02  0.49415262498E+02  0.00000000000E+00 0. -1.
         -1   -1    0    0    0  501 -0.00000000000E+00 -0.00000000000E+00 -0.29113478264E+03  0.29113478264E+03  0.00000000000E+00 0.  1.
         25    2    1    2    0    0 -0.75513511815E+01 -0.82883890664E+01 -0.20945871724E+03  0.24422517644E+03  0.12508901744E+03 0.  0.
          5    1    3    3  502    0  0.57677931786E+02  0.21429448460E+00 -0.77264108295E+02  0.96509090597E+02  0.41800000000E+01 0.  1.
         -5    1    3    3    0  502 -0.65229282968E+02 -0.85026835510E+01 -0.13219460894E+03  0.14771608584E+03  0.41800000000E+01 0.  1.
        -11    1    1    2    0    0  0.30295303330E+02 -0.71435967181E+01 -0.53292235268E+02  0.61716275955E+02  0.00000000000E+00 0. -1.
         11    1    1    2    0    0 -0.22743952148E+02  0.15431985784E+02  0.21031432360E+02  0.34608592744E+02  0.00000000000E+00 0.  1.
</event>
<event>
 7    1  0.2490079E-009  0.1193225E+03  0.7561462E-02  0.1244219E+00
          2   -1    0    0  501    0  0.00000000000E+00  0.00000000000E+00  0.20838712060E+03  0.20838712060E+03  0.00000000000E+00 0. -1.
         -2   -1    0    0    0  501 -0.00000000000E+00 -0.00000000000E+00 -0.15393132653E+03  0.15393132653E+03  0.00000000000E+00 0.  1.
         25    2    1    2    0    0  0.11013881797E+03 -0.15890313562E+02 -0.60260949730E+02  0.17793893207E+03  0.12509124747E+03 0.  0.
          5    1    3    3  502    0  0.43950126389E+02 -0.23627470293E+02  0.35369293313E+02  0.61305222221E+02  0.41800000000E+01 0. -1.
         -5    1    3    3    0  502  0.66188691582E+02  0.77371567313E+01 -0.95630243043E+02  0.11663370984E+03  0.41800000000E+01 0. -1.
        -11    1    1    2    0    0 -0.66691247518E+02 -0.15167856354E+02  0.13178558061E+02  0.69652428202E+02  0.00000000000E+00 0.  1.
         11    1    1    2    0    0 -0.43447570453E+02  0.31058169916E+02  0.10153818574E+03  0.11472708686E+03  0.00000000000E+00 0. -1.
</event>
<event>
 7    1  0.2490079E-009  0.1295092E+03  0.7561462E-02  0.1228186E+00
          1   -1    0    0  501    0  0.00000000000E+00  0.00000000000E+00  0.71084762405E+03  0.71084762405E+03  0.00000000000E+00 0. -1.
         -1   -1    0    0    0  501 -0.00000000000E+00 -0.00000000000E+00 -0.29215780508E+02  0.29215780508E+02  0.00000000000E+00 0.  1.
         25    2    1    2    0    0  0.79499269306E+02  0.85239031344E+01  0.23934243388E+03  0.28165185557E+03  0.12510066485E+03 0.  0.
          5    1    3    3  502    0 -0.23596679941E+02  0.32958064861E+02  0.86648224129E+02  0.95751890260E+02  0.41800000000E+01 0.  1.
         -5    1    3    3    0  502  0.10309594925E+03 -0.24434161727E+02  0.15269420975E+03  0.18589996531E+03  0.41800000000E+01 0.  1.
        -11    1    1    2    0    0 -0.22335875394E+01  0.27071906297E+02  0.48990584097E+02  0.56017446872E+02  0.00000000000E+00 0.  1.
         11    1    1    2    0    0 -0.77265681766E+02 -0.35595809431E+02  0.39329882557E+03  0.40239410212E+03  0.00000000000E+00 0. -1.
</event>
<event>
 7    1  0.2490079E-009  0.1428257E+03  0.7561462E-02  0.1209577E+00
          1   -1    0    0  501    0  0.00000000000E+00  0.00000000000E+00  0.30873608976E+02  0.30873608976E+02  0.00000000000E+00 0. -1.
         -1   -1    0    0    0  501 -0.00000000000E+00 -0.00000000000E+00 -0.79702736034E+03  0.79702736034E+03  0.00000000000E+00 0.  1.
         25    2    1    2    0    0  0.98687718919E+02  0.23037183786E+02 -0.29272495088E+03  0.33407312270E+03  0.12508787607E+03 0.  0.
          5    1    3    3  502    0  0.12367944302E+03  0.32071966008E+02 -0.27046768767E+03  0.29915791500E+03  0.41800000000E+01 0. -1.
         -5    1    3    3    0  502 -0.24991724104E+02 -0.90347822222E+01 -0.22257263206E+02  0.34915207702E+02  0.41800000000E+01 0. -1.
        -11    1    1    2    0    0 -0.31672543378E+02 -0.49578589826E+02 -0.12679224987E+03  0.13977646870E+03  0.00000000000E+00 0.  1.
         11    1    1    2    0    0 -0.67015175541E+02  0.26541406039E+02 -0.34663655061E+03  0.35405137792E+03  0.00000000000E+00 0. -1.
</event>
<event>
 7    1  0.2490079E-009  0.7762423E+02  0.7561462E-02  0.1335932E+00
         -1   -1    0    0    0  501 -0.00000000000E+00  0.00000000000E+00  0.33892588176E+03  0.33892588176E+03  0.00000000000E+00 0.  1.
          1   -1    0    0  501    0  0.00000000000E+00 -0.00000000000E+00 -0.24060686169E+02  0.24060686169E+02  0.00000000000E+00 0. -1.
         25    2    1    2    0    0 -0.25490386134E+02 -0.16848962929E+02  0.28051972107E+03  0.30866555617E+03  0.12509781901E+03 0.  0.
          5    1    3    3  502    0 -0.68856496439E+02 -0.92107935171E+01  0.93920479192E+02  0.11689561425E+03  0.41800000000E+01 0. -1.
         -5    1    3    3    0  502  0.43366110306E+02 -0.76381694115E+01  0.18659924188E+03  0.19176994192E+03  0.41800000000E+01 0. -1.
        -11    1    1    2    0    0  0.24600829145E+02  0.51980499088E-01  0.15575468983E+02  0.29116983543E+02  0.00000000000E+00 0. -1.
         11    1    1    2    0    0  0.88955698885E+00  0.16796982429E+02  0.18770005539E+02  0.25204028216E+02  0.00000000000E+00 0.  1.
</event>
<event>
 7    1  0.2490079E-009  0.2403464E+03  0.7561462E-02  0.1119562E+00
         -1   -1    0    0    0  501 -0.00000000000E+00  0.00000000000E+00  0.10887612118E+03  0.10887612118E+03  0.00000000000E+00 0.  1.
          1   -1    0    0  501    0  0.00000000000E+00 -0.00000000000E+00 -0.59405283768E+03  0.59405283768E+03  0.00000000000E+00 0. -1.
         25    2    1    2    0    0 -0.21894851781E+03  0.71836363720E+02 -0.24908987804E+03  0.36165110030E+03  0.12508730712E+03 0.  0.
          5    1    3    3  502    0 -0.19834176066E+02 -0.21402067173E+02 -0.12843148026E+00  0.29477651096E+02  0.41800000000E+01 0.  1.
         -5    1    3    3    0  502 -0.19911434174E+03  0.93238430893E+02 -0.24896144656E+03  0.33217344920E+03  0.41800000000E+01 0.  1.
        -11    1    1    2    0    0  0.13167152690E+03 -0.53525726438E+02 -0.84359712010E+02  0.16528446811E+03  0.00000000000E+00 0.  1.
         11    1    1    2    0    0  0.87276990908E+02 -0.18310637282E+02 -0.15172712645E+03  0.17599339045E+03  0.00000000000E+00 0. -1.
</event>
<event>
 7    1  0.2490079E-009  0.1213918E+03  0.7561462E-02  0.1240819E+00
         -1   -1    0    0    0  501 -0.00000000000E+00  0.00000000000E+00  0.50361923304E+03  0.50361923304E+03  0.00000000000E+00 0.  1.
          1   -1    0    0  501    0  0.00000000000E+00 -0.00000000000E+00 -0.33650290642E+02  0.33650290642E+02  0.00000000000E+00 0. -1.
         25    2    1    2    0    0  0.94554863499E+01 -0.73228372620E+02  0.25317669345E+03  0.29188707558E+03  0.12509127070E+03 0.  0.
          5    1    3    3  502    0  0.16870867186E+02  0.33383895314E+02  0.78746772192E+02  0.87279076282E+02  0.41800000000E+01 0.  1.
         -5    1    3    3    0  502 -0.74153808361E+01 -0.10661226793E+03  0.17442992126E+03  0.20460799930E+03  0.41800000000E+01 0.  1.
        -11    1    1    2    0    0  0.33437447769E+01 -0.11771046676E+02  0.71007201069E-01  0.12236960857E+02  0.00000000000E+00 0. -1.
         11    1    1    2    0    0 -0.12799231127E+02  0.84999419297E+02  0.21672124174E+03  0.23314548724E+03  0.00000000000E+00 0.  1.
</event>
<event>
 7    1  0.2490079E-009  0.1243886E+03  0.7561462E-02  0.1236028E+00
         -1   -1    0    0    0  501 -0.00000000000E+00  0.00000000000E+00  0.17789550354E+03  0.17789550354E+03  0.00000000000E+00 0.  1.
          1   -1    0    0  501    0  0.00000000000E+00 -0.00000000000E+00 -0.93431263211E+02  0.93431263211E+02  0.00000000000E+00 0. -1.
         25    2    1    2    0    0  0.66482917421E+02  0.14434358270E+02  0.59608332165E+02  0.15436174573E+03  0.12508423671E+03 0.  0.
          5    1    3    3  502    0  0.81408949442E+02 -0.34704038397E+02  0.24195670103E+02  0.91840569369E+02  0.41800000000E+01 0.  1.
         -5    1    3    3    0  502 -0.14926032021E+02  0.49138396667E+02  0.35412662062E+02  0.62521176358E+02  0.41800000000E+01 0.  1.
        -11    1    1    2    0    0 -0.26883440469E+01  0.30504236719E+02  0.24033124255E+02  0.38927197600E+02  0.00000000000E+00 0.  1.
         11    1    1    2    0    0 -0.63794573374E+02 -0.44938594989E+02  0.82278391017E+00  0.78037823425E+02  0.00000000000E+00 0. -1.
</event>
<event>
 7    1  0.2490079E-009  0.1198742E+03  0.7561462E-02  0.1243305E+00
         -1   -1    0    0    0  501 -0.00000000000E+00  0.00000000000E+00  0.46222005235E+03  0.46222005235E+03  0.00000000000E+00 0.  1.
          1   -1    0    0  501    0  0.00000000000E+00 -0.00000000000E+00 -0.47045379416E+02  0.47045379416E+02  0.00000000000E+00 0. -1.
         25    2    1    2    0    0 -0.84658527067E+02  0.49097713830E+02  0.21293842270E+03  0.26564478968E+03  0.12508689264E+03 0.  0.
          5    1    3    3  502    0 -0.86095435177E+02  0.32473634390E+02  0.22599743327E+03  0.24404768619E+03  0.41800000000E+01 0. -1.
         -5    1    3    3    0  502  0.14369081103E+01  0.16624079440E+02 -0.13059010565E+02  0.21597103488E+02  0.41800000000E+01 0. -1.
        -11    1    1    2    0    0  0.38466542578E+02  0.22993820318E+02  0.10438504361E+03  0.11359853872E+03  0.00000000000E+00 0.  1.
         11    1    1    2    0    0  0.46191984489E+02 -0.72091534148E+02  0.97851206619E+02  0.13002210337E+03  0.00000000000E+00 0. -1.
</event>
<event>
 7    1  0.2490079E-009  0.1100609E+03  0.7561462E-02  0.1260457E+00
         -1   -1    0    0    0  501 -0.00000000000E+00  0.00000000000E+00  0.18968770867E+03  0.18968770867E+03  0.00000000000E+00 0.  1.
          1   -1    0    0  501    0  0.00000000000E+00 -0.00000000000E+00 -0.91960178228E+02  0.91960178228E+02  0.00000000000E+00 0. -1.
         25    2    1    2    0    0 -0.36619088914E+02  0.43468267366E+02  0.21914512620E+01  0.13741283478E+03  0.12508811599E+03 0.  0.
          5    1    3    3  502    0 -0.55847798084E+02 -0.13637923790E+02 -0.34075781212E+02  0.66959695200E+02  0.41800000000E+01 0.  1.
         -5    1    3    3    0  502  0.19228709170E+02  0.57106191155E+02  0.36267232474E+02  0.70453139575E+02  0.41800000000E+01 0.  1.
        -11    1    1    2    0    0 -0.73139074495E+01 -0.55935827412E+02  0.75793184476E+02  0.94482362606E+02  0.00000000000E+00 0.  1.
         11    1    1    2    0    0  0.43932996364E+02  0.12467560047E+02  0.19742894704E+02  0.49752689518E+02  0.00000000000E+00 0. -1.
</event>
<event>
 7    1  0.2490079E-009  0.8996106E+02  0.7561462E-02  0.1302946E+00
         -2   -1    0    0    0  501 -0.00000000000E+00  0.00000000000E+00  0.60460817270E+02  0.60460817270E+02  0.00000000000E+00 0.  1.
          2   -1    0    0  501    0  0.00000000000E+00 -0.00000000000E+00 -0.20195037050E+03  0.20195037050E+03  0.00000000000E+00 0. -1.
         25    2    1    2    0    0 -0.20104611273E+02 -0.12991377189E+02 -0.93511346479E+02  0.15800173820E+03  0.12508879278E+03 0.  0.
          5    1    3    3  502    0 -0.35695174451E+02  0.38339957600E+02 -0.89823130591E+02  0.10406615692E+03  0.41800000000E+01 0.  1.
         -5    1    3    3    0  502  0.15590563178E+02 -0.51331334789E+02 -0.36882158888E+01  0.53935581278E+02  0.41800000000E+01 0.  1.
        -11    1    1    2    0    0 -0.26142590468E+02  0.54376567326E+01  0.11173496187E+02  0.28945641540E+02  0.00000000000E+00 0.  1.
         11    1    1    2    0    0  0.46247201741E+02  0.75537204559E+01 -0.59151702942E+02  0.75463808031E+02  0.00000000000E+00 0. -1.
</event>
<event>
 7    1  0.2490079E-009  0.1247046E+03  0.7561462E-02  0.1235532E+00
         -1   -1    0    0    0  501 -0.00000000000E+00  0.00000000000E+00  0.99079633413E+02  0.99079633413E+02  0.00000000000E+00 0.  1.
          1   -1    0    0  501    0  0.00000000000E+00 -0.00000000000E+00 -0.18117567033E+03  0.18117567033E+03  0.00000000000E+00 0. -1.
         25    2    1    2    0    0 -0.24347502262E+02  0.68628772801E+02 -0.18656047478E+02  0.14593983134E+03  0.12509067488E+03 0.  0.
          5    1    3    3  502    0  0.13513131688E+02  0.95130643273E+02 -0.68670033080E+00  0.96178937273E+02  0.41800000000E+01 0. -1.
         -5    1    3    3    0  502 -0.37860633950E+02 -0.26501870473E+02 -0.17969347147E+02  0.49760894069E+02  0.41800000000E+01 0. -1.
        -11    1    1    2    0    0  0.28314500840E+02  0.85280290213E+01 -0.46682572853E+02  0.55260300804E+02  0.00000000000E+00 0. -1.
         11    1    1    2    0    0 -0.39669985782E+01 -0.77156801822E+02 -0.16757416583E+02  0.79055171593E+02  0.00000000000E+00 0.  1.
</event>
<event>
 7    1  0.2490079E-009  0.1256222E+03  0.7561462E-02  0.1234100E+00
          2   -1    0    0  501    0  0.00000000000E+00  0.00000000000E+00  0.26794299725E+03  0.26794299725E+03  0.00000000000E+00 0. -1.
         -2   -1    0    0    0  501 -0.00000000000E+00 -0.00000000000E+00 -0.82495196970E+02  0.82495196970E+02  0.00000000000E+00 0.  1.
         25    2    1    2    0    0 -0.72708160345E+02  0.66188941866E+02  0.12326318456E+03  0.20126753838E+03  0.12508939495E+03 0.  0.
          5    1    3    3  502    0 -0.45333030864E+02 -0.17393782096E+02  0.98346059888E+02  0.10975904172E+03  0.41800000000E+01 0. -1.
         -5    1    3    3    0  502 -0.27375129480E+02  0.83582723962E+02  0.24917124676E+02  0.91508496661E+02  0.41800000000E+01 0. -1.
        -11    1    1    2    0    0  0.72855336150E+02 -0.30847355647E+02  0.77410901829E+02  0.11068833307E+03  0.00000000000E+00 0. -1.
         11    1    1    2    0    0 -0.14717580572E+00 -0.35341586219E+02 -0.15226286113E+02  0.38482322773E+02  0.00000000000E+00 0.  1.
</event>
<event>
 7    1  0.2490079E-009  0.1052914E+03  0.7561462E-02  0.1269546E+00
          2   -1    0    0  501    0  0.00000000000E+00  0.00000000000E+00  0.12322143602E+04  0.12322143602E+04  0.00000000000E+00 0.  1.
         -2   -1    0    0    0  501 -0.00000000000E+00 -0.00000000000E+00 -0.10169053276E+02  0.10169053276E+02  0.00000000000E+00 0. -1.
         25    2    1    2    0    0 -0.22226698721E+01  0.11325109335E+02  0.85745721113E+03  0.86661068013E+03  0.12509198070E+03 0.  0.
          5    1    3    3  502    0 -0.58802722685E+02  0.25213866576E+02  0.54324638236E+03  0.54701700486E+03  0.41800000000E+01 0.  1.
         -5    1    3    3    0  502  0.56580052813E+02 -0.13888757241E+02  0.31421082877E+03  0.31959367527E+03  0.41800000000E+01 0.  1.
        -11    1    1    2    0    0  0.39252165070E+02  0.15635790437E+02  0.12805627186E+03  0.13484665056E+03  0.00000000000E+00 0. -1.
         11    1    1    2    0    0 -0.37029495197E+02 -0.26960899772E+02  0.23653182391E+03  0.24092608275E+03  0.00000000000E+00 0.  1.
</event>
<event>
 7    1  0.2490079E-009  0.9928410E+02  0.7561462E-02  0.1281809E+00
          1   -1    0    0  501    0  0.00000000000E+00  0.00000000000E+00  0.61083420541E+02  0.61083420541E+02  0.00000000000E+00 0. -1.
         -1   -1    0    0    0  501 -0.00000000000E+00 -0.00000000000E+00 -0.34408072210E+03  0.34408072210E+03  0.00000000000E+00 0.  1.
         25    2    1    2    0    0 -0.25337738429E+02  0.52462768598E+02 -0.49294356999E+02  0.14653315803E+03  0.12509072584E+03 0.  0.
          5    1    3    3  502    0 -0.32940690107E+02  0.85937767102E+02 -0.77140563156E+01  0.92451976421E+02  0.41800000000E+01 0.  1.
         -5    1    3    3    0  502  0.76029516787E+01 -0.33474998504E+02 -0.41580300683E+02  0.54081181607E+02  0.41800000000E+01 0.  1.
        -11    1    1    2    0    0 -0.15562499435E+01 -0.43472951878E+02 -0.22471084705E+03  0.22888268663E+03  0.00000000000E+00 0.  1.
         11    1    1    2    0    0  0.26893988372E+02 -0.89898167196E+01 -0.89920975137E+01  0.29748297983E+02  0.00000000000E+00 0. -1.
</event>
<event>
 7    1  0.2490079E-009  0.1209206E+03  0.7561462E-02  0.1241586E+00
          1   -1    0    0  501    0  0.00000000000E+00  0.00000000000E+00  0.19436989430E+03  0.19436989430E+03  0.00000000000E+00 0. -1.
         -1   -1    0    0    0  501 -0.00000000000E+00 -0.00000000000E+00 -0.98079011628E+02  0.98079011628E+02  0.00000000000E+00 0.  1.
         25    2    1    2    0    0  0.20940339327E+02 -0.67879394842E+02 -0.92725636196E+00  0.14385585991E+03  0.12509012179E+03 0.  0.
          5    1    3    3  502    0  0.51555219428E+02  0.59577911837E+01 -0.28303295350E+02  0.59262001769E+02  0.41800000000E+01 0. -1.
         -5    1    3    3    0  502 -0.30614880101E+02 -0.73837186026E+02  0.27376038988E+02  0.84593858137E+02  0.41800000000E+01 0. -1.
        -11    1    1    2    0    0 -0.53218162078E+02  0.48993172531E+02  0.48140331084E+02  0.86890708401E+02  0.00000000000E+00 0. -1.
         11    1    1    2    0    0  0.32277822750E+02  0.18886222311E+02  0.49077807946E+02  0.61702337617E+02  0.00000000000E+00 0.  1.
</event>
<event>
 7    1  0.2490079E-009  0.7490675E+02  0.7561462E-02  0.1344160E+00
         -2   -1    0    0    0  501 -0.00000000000E+00  0.00000000000E+00  0.11313905807E+02  0.11313905807E+02  0.00000000000E+00 0.  1.
          2   -1    0    0  501    0  0.00000000000E+00 -0.00000000000E+00 -0.11354692627E+04  0.11354692627E+04  0.00000000000E+00 0. -1.
         25    2    1    2    0    0  0.73982569327E+01 -0.28850268581E+02 -0.73208616187E+03  0.74329415671E+03  0.12509589437E+03 0.  0.
          5    1    3    3  502    0 -0.20969111390E+02 -0.14676695627E+02 -0.26837979090E+02  0.37321020198E+02  0.41800000000E+01 0.  1.
         -5    1    3    3    0  502  0.28367368323E+02 -0.14173572954E+02 -0.70524818278E+03  0.70597313651E+03  0.41800000000E+01 0.  1.
        -11    1    1    2    0    0 -0.46676673633E+02  0.77791011310E+01 -0.25503226475E+03  0.25938520070E+03  0.00000000000E+00 0. -1.
         11    1    1    2    0    0  0.39278416701E+02  0.21071167450E+02 -0.13703693023E+03  0.14410381106E+03  0.00000000000E+00 0.  1.
</event>
<event>
 7    1  0.2490079E-009  0.1542535E+03  0.7561462E-02  0.1195342E+00
          4   -1    0    0  501    0  0.00000000000E+00  0.00000000000E+00  0.13466753802E+03  0.13466753802E+03  0.00000000000E+00 0.  1.
         -4   -1    0    0    0  501 -0.00000000000E+00 -0.00000000000E+00 -0.20031869727E+03  0.20031869727E+03  0.00000000000E+00 0. -1.
         25    2    1    2    0    0  0.10907354234E+03 -0.56902146199E+02 -0.38240640466E+02  0.17956494812E+03  0.12508529941E+03 0.  0.
          5    1    3    3  502    0 -0.68560034175E+01  0.29633466917E+02 -0.76704159887E+01  0.31645771058E+02  0.41800000000E+01 0.  1.
         -5    1    3    3    0  502  0.11592954576E+03 -0.86535613116E+02 -0.30570224477E+02  0.14791917706E+03  0.41800000000E+01 0.  1.
        -11    1    1    2    0    0 -0.25574044531E+02  0.40630343349E+02  0.26372526672E+02  0.54775603305E+02  0.00000000000E+00 0.  1.
         11    1    1    2    0    0 -0.83499497813E+02  0.16271802850E+02 -0.53783045459E+02  0.10064568387E+03  0.00000000000E+00 0. -1.
</event>
<event>
 7    1  0.2490079E-009  0.1578442E+03  0.7561462E-02  0.1191152E+00
          1   -1    0    0  501    0  0.00000000000E+00  0.00000000000E+00  0.49119075678E+03  0.49119075678E+03  0.00000000000E+00 0. -1.
         -1   -1    0    0    0  501 -0.00000000000E+00 -0.00000000000E+00 -0.99040698614E+02  0.99040698614E+02  0.00000000000E+00 0.  1.
         25    2    1    2    0    0  0.10626103723E+03  0.55666002304E+02  0.40355944421E+03  0.43920174491E+03  0.12509131016E+03 0.  0.
          5    1    3    3  502    0  0.13027916152E+03  0.23802207612E+02  0.32549823891E+03  0.35143389271E+03  0.41800000000E+01 0. -1.
         -5    1    3    3    0  502 -0.24018124294E+02  0.31863794692E+02  0.78061205301E+02  0.87767852200E+02  0.41800000000E+01 0. -1.
        -11    1    1    2    0    0 -0.10720082449E+02 -0.45776506177E+02  0.18357062248E+02  0.50471679384E+02  0.00000000000E+00 0. -1.
         11    1    1    2    0    0 -0.95540954780E+02 -0.98894961275E+01 -0.29766448292E+02  0.10055803110E+03  0.00000000000E+00 0.  1.
</event>
<event>
 7    1  0.2490079E-009  0.1463919E+03  0.7561462E-02  0.1204978E+00
         -1   -1    0    0    0  501 -0.00000000000E+00  0.00000000000E+00  0.54232264544E+03  0.54232264544E+03  0.00000000000E+00 0.  1.
          1   -1    0    0  501    0  0.00000000000E+00 -0.00000000000E+00 -0.62951922148E+02  0.62951922148E+02  0.00000000000E+00 0. -1.
         25    2    1    2    0    0 -0.13193900684E+03  0.60385802800E+00  0.36559393281E+03  0.40830821161E+03  0.12509358812E+03 0.  0.
          5    1    3    3  502    0 -0.10125541281E+03  0.59137518599E+01  0.10581178084E+03  0.14663299918E+03  0.41800000000E+01 0.  1.
         -5    1    3    3    0  502 -0.30683594028E+02 -0.53098938319E+01  0.25978215197E+03  0.26167521242E+03  0.41800000000E+01 0.  1.
        -11    1    1    2    0    0  0.11223021180E+03 -0.37242020335E+02  0.93150502199E+02  0.15053107513E+03  0.00000000000E+00 0.  1.
         11    1    1    2    0    0  0.19708795042E+02  0.36638162307E+02  0.20626288282E+02  0.46435280850E+02  0.00000000000E+00 0. -1.
</event>
<event>
 7    1  0.2490079E-009  0.1084817E+03  0.7561462E-02  0.1263408E+00
          1   -1    0    0  501    0  0.00000000000E+00  0.00000000000E+00  0.50986025906E+03  0.50986025906E+03  0.00000000000E+00 0. -1.
         -1   -1    0    0    0  501 -0.00000000000E+00 -0.00000000000E+00 -0.27024099670E+02  0.27024099670E+02  0.00000000000E+00 0.  1.
         25    2    1    2    0    0  0.46213071587E+02  0.44627961745E+01  0.23360328016E+03  0.26902475384E+03  0.12509300996E+03 0.  0.
          5    1    3    3  502    0  0.52381415964E+02  0.53271798612E+02  0.89287616040E+02  0.11649655808E+03  0.41800000000E+01 0.  1.
         -5    1    3    3    0  502 -0.61683443773E+01 -0.48809002438E+02  0.14431566412E+03  0.15252819576E+03  0.41800000000E+01 0.  1.
        -11    1    1    2    0    0 -0.59387300046E+02 -0.28100630340E+02  0.13078617790E+03  0.14636092771E+03  0.00000000000E+00 0. -1.
         11    1    1    2    0    0  0.13174228460E+02  0.23637834166E+02  0.11844670133E+03  0.12149867718E+03  0.00000000000E+00 0.  1.
</event>
<event>
 7    1  0.2490079E-009  0.1790571E+03  0.7561462E-02  0.1168719E+00
         -2   -1    0    0    0  501 -0.00000000000E+00  0.00000000000E+00  0.13134748552E+03  0.13134748552E+03  0.00000000000E+00 0.  1.
          2   -1    0    0  501    0  0.00000000000E+00 -0.00000000000E+00 -0.36053333826E+03  0.36053333826E+03  0.00000000000E+00 0. -1.
         25    2    1    2    0    0  0.14475239684E+03  0.38864499006E+01  0.16915739113E+02  0.19209803116E+03  0.12508857048E+03 0.  0.
          5    1    3    3  502    0 -0.94927588521E+01  0.32701068932E+02  0.96084543935E+00  0.34320081642E+02  0.41800000000E+01 0.  1.
         -5    1    3    3    0  502  0.15424515569E+03 -0.28814619032E+02  0.15954893674E+02  0.15777794952E+03  0.41800000000E+01 0.  1.
        -11    1    1    2    0    0 -0.67188426285E+02  0.39525330926E+02 -0.81902204809E+02  0.11306859672E+03  0.00000000000E+00 0.  1.
         11    1    1    2    0    0 -0.77563970551E+02 -0.43411780827E+02 -0.16419938704E+03  0.18671419589E+03  0.00000000000E+00 0. -1.
</event>
<event>
 7    1  0.2555689E-009  0.1336971E+03  0.7561462E-02  0.1222071E+00
         -1   -1    0    0    0  501 -0.00000000000E+00  0.00000000000E+00  0.56523253566E+02  0.56523253566E+02  0.00000000000E+00 0.  1.
          1   -1    0    0  501    0  0.00000000000E+00 -0.00000000000E+00 -0.39936661619E+03  0.39936661619E+03  0.00000000000E+00 0. -1.
         25    2    1    2    0    0 -0.88172738227E+02 -0.38734055795E+02 -0.12612332021E+03  0.20206264857E+03  0.12508982053E+03 0.  0.
          5    1    3    3  502    0 -0.58541608101E+02 -0.76871647904E+02 -0.43014883828E+02  0.10584952887E+03  0.41800000000E+01 0. -1.
         -5    1    3    3    0  502 -0.29631130125E+02  0.38137592109E+02 -0.83108436386E+02  0.96213119702E+02  0.41800000000E+01 0. -1.
        -11    1    1    2    0    0  0.18212383813E+02  0.48273667388E+02 -0.14172178638E+03  0.15082142627E+03  0.00000000000E+00 0. -1.
         11    1    1    2    0    0  0.69960354414E+02 -0.95396115922E+01 -0.74998256026E+02  0.10300579491E+03  0.00000000000E+00 0.  1.
</event>
<event>
 7    1  0.2490079E-009  0.1107554E+03  0.7561462E-02  0.1259177E+00
          2   -1    0    0  501    0  0.00000000000E+00  0.00000000000E+00  0.10816417002E+03  0.10816417002E+03  0.00000000000E+00 0. -1.
         -2   -1    0    0    0  501 -0.00000000000E+00 -0.00000000000E+00 -0.13450579559E+03  0.13450579559E+03  0.00000000000E+00 0.  1.
         25    2    1    2    0    0  0.41500831289E+02 -0.26981825367E+02 -0.27259922072E+02  0.13726741361E+03  0.12509556982E+03 0.  0.
          5    1    3    3  502    0 -0.69861117657E+01  0.42874961386E+02  0.92848688236E+01  0.44617813265E+02  0.41800000000E+01 0. -1.
         -5    1    3    3    0  502  0.48486943055E+02 -0.69856786753E+02 -0.36544790896E+02  0.92649600344E+02  0.41800000000E+01 0. -1.
        -11    1    1    2    0    0  0.89867709905E+01  0.39669435838E+02 -0.24486990654E+02  0.47476719598E+02  0.00000000000E+00 0.  1.
         11    1    1    2    0    0 -0.50487602280E+02 -0.12687610471E+02  0.25405287159E+02  0.57925832399E+02  0.00000000000E+00 0. -1.
</event>
<event>
 7    1  0.2490079E-009  0.1026055E+03  0.7561462E-02  0.1274910E+00
         -1   -1    0    0    0  501 -0.00000000000E+00  0.00000000000E+00  0.17183898045E+03  0.17183898045E+03  0.00000000000E+00 0.  1.
          1   -1    0    0  501    0  0.00000000000E+00 -0.00000000000E+00 -0.11728822355E+03  0.11728822355E+03  0.00000000000E+00 0. -1.
         25    2    1    2    0    0 -0.42782168187E+02  0.42227527439E+02 -0.42753651249E+02  0.14522071003E+03  0.12509077479E+03 0.  0.
          5    1    3    3  502    0 -0.30731117450E+02 -0.19841102220E+02 -0.67746123614E+02  0.77104348657E+02  0.41800000000E+01 0. -1.
         -5    1    3    3    0  502 -0.12051050736E+02  0.62068629659E+02  0.24992472365E+02  0.68116361372E+02  0.41800000000E+01 0. -1.
        -11    1    1    2    0    0 -0.11967210405E+02 -0.48468136316E+02  0.36471294253E+02  0.61826609702E+02  0.00000000000E+00 0. -1.
         11    1    1    2    0    0  0.54749378591E+02  0.62406088773E+01  0.60833113895E+02  0.82079884268E+02  0.00000000000E+00 0.  1.
</event>
<event>
 7    1  0.2490079E-009  0.1123176E+03  0.7561462E-02  0.1256337E+00
          2   -1    0    0  501    0  0.00000000000E+00  0.00000000000E+00  0.14600997686E+03  0.14600997686E+03  0.00000000000E+00 0. -1.
         -2   -1    0    0    0  501 -0.00000000000E+00 -0.00000000000E+00 -0.12316323461E+03  0.12316323461E+03  0.00000000000E+00 0.  1.
         25    2    1    2    0    0  0.87995635158E+01  0.46974897832E+02  0.77101911509E+02  0.15452332974E+03  0.12509468946E+03 0.  0.
          5    1    3    3  502    0  0.62867321887E+02  0.45140074707E+02  0.31569899321E+02  0.83690247036E+02  0.41800000000E+01 0. -1.
         -5    1    3    3    0  502 -0.54067758372E+02  0.18348231252E+01  0.45532012188E+02  0.70833082702E+02  0.41800000000E+01 0. -1.
        -11    1    1    2    0    0  0.12875646621E+02  0.19265017631E+02  0.43650824742E+01  0.23579167187E+02  0.00000000000E+00 0. -1.
         11    1    1    2    0    0 -0.21675210137E+02 -0.66239915463E+02 -0.58620251727E+02  0.91070714544E+02  0.00000000000E+00 0.  1.
</event>
<event>
 7    1  0.2490079E-009  0.1624422E+03  0.7561462E-02  0.1185967E+00
         -2   -1    0    0    0  501 -0.00000000000E+00  0.00000000000E+00  0.75087706869E+02  0.75087706869E+02  0.00000000000E+00 0.  1.
          2   -1    0    0  501    0  0.00000000000E+00 -0.00000000000E+00 -0.50102147326E+03  0.50102147326E+03  0.00000000000E+00 0. -1.
         25    2    1    2    0    0 -0.15886560120E+02  0.13347246294E+03 -0.92687584689E+02  0.20568268945E+03  0.12508836568E+03 0.  0.
          5    1    3    3  502    0  0.50549290343E+02  0.71513217942E+02 -0.21710049019E+02  0.90322587003E+02  0.41800000000E+01 0.  1.
         -5    1    3    3    0  502 -0.66435850463E+02  0.61959245000E+02 -0.70977535670E+02  0.11536010245E+03  0.41800000000E+01 0.  1.
        -11    1    1    2    0    0  0.37064876862E+02 -0.10012491381E+03 -0.15737237693E+03  0.19017062992E+03  0.00000000000E+00 0.  1.
         11    1    1    2    0    0 -0.21178316742E+02 -0.33347549133E+02 -0.17587380477E+03  0.18025586076E+03  0.00000000000E+00 0. -1.
</event>
<event>
 7    1  0.2490079E-009  0.1378448E+03  0.7561462E-02  0.1216259E+00
          1   -1    0    0  501    0  0.00000000000E+00  0.00000000000E+00  0.15409156239E+03  0.15409156239E+03  0.00000000000E+00 0. -1.
         -1   -1    0    0    0  501 -0.00000000000E+00 -0.00000000000E+00 -0.16531080074E+03  0.16531080074E+03  0.00000000000E+00 0.  1.
         25    2    1    2    0    0 -0.46792769448E+02  0.10392768012E+03  0.16084061354E+02  0.16999172247E+03  0.12509181712E+03 0.  0.
          5    1    3    3  502    0 -0.73764764081E+02  0.28657686148E+02  0.36673719013E+02  0.87320887888E+02  0.41800000000E+01 0.  1.
         -5    1    3    3    0  502  0.26971994633E+02  0.75269993976E+02 -0.20589657659E+02  0.82670834580E+02  0.41800000000E+01 0.  1.
        -11    1    1    2    0    0  0.21100507333E+02 -0.73925017014E+02  0.27680826931E+02  0.81709043134E+02  0.00000000000E+00 0. -1.
         11    1    1    2    0    0  0.25692262116E+02 -0.30002663110E+02 -0.54984126636E+02  0.67701597531E+02  0.00000000000E+00 0.  1.
</event>
<event>
 7    1  0.2490079E-009  0.1081666E+03  0.7561462E-02  0.1264003E+00
         -1   -1    0    0    0  501 -0.00000000000E+00  0.00000000000E+00  0.10860471853E+03  0.10860471853E+03  0.00000000000E+00 0.  1.
          1   -1    0    0  501    0  0.00000000000E+00 -0.00000000000E+00 -0.20859530294E+03  0.20859530294E+03  0.00000000000E+00 0. -1.
         25    2    1    2    0    0 -0.66194923130E+02  0.36631023837E+02  0.20579045289E+02  0.14762915518E+03  0.12508905068E+03 0.  0.
          5    1    3    3  502    0 -0.59628366296E+02  0.56907264559E+02  0.60398673170E+02  0.10227145715E+03  0.41800000000E+01 0. -1.
         -5    1    3    3    0  502 -0.65665568346E+01 -0.20276240722E+02 -0.39819627880E+02  0.45357698035E+02  0.41800000000E+01 0. -1.
        -11    1    1    2    0    0 -0.17078847782E+02  0.65343974280E+01 -0.46783600733E+02  0.50230376156E+02  0.00000000000E+00 0. -1.
         11    1    1    2    0    0  0.83273770912E+02 -0.43165421265E+02 -0.73786028961E+02  0.11934049013E+03  0.00000000000E+00 0.  1.
</event>
<event>
 7    1  0.2490079E-009  0.1631349E+03  0.7561462E-02  0.1185202E+00
          2   -1    0    0  501    0  0.00000000000E+00  0.00000000000E+00  0.17153856136E+03  0.17153856136E+03  0.00000000000E+00 0.  1.
         -2   -1    0    0    0  501 -0.00000000000E+00 -0.00000000000E+00 -0.18055582936E+03  0.18055582936E+03  0.00000000000E+00 0. -1.
         25    2    1    2    0    0  0.12475722424E+01  0.13470971382E+03 -0.15746314521E+02  0.18450961746E+03  0.12509032369E+03 0.  0.
          5    1    3    3  502    0 -0.52099871740E+02  0.67895984046E+02  0.25627629997E+02  0.89434384351E+02  0.41800000000E+01 0.  1.
         -5    1    3    3    0  502  0.53347443982E+02  0.66813729774E+02 -0.41373944518E+02  0.95075233109E+02  0.41800000000E+01 0.  1.
        -11    1    1    2    0    0  0.37682305706E+02 -0.68345506939E+02  0.35107695275E+02  0.85578120741E+02  0.00000000000E+00 0.  1.
         11    1    1    2    0    0 -0.38929877948E+02 -0.66364206881E+02 -0.28378648755E+02  0.82006652518E+02  0.00000000000E+00 0. -1.
</event>
<event>
 7    1  0.2490079E-009  0.1567960E+03  0.7561462E-02  0.1192362E+00
          4   -1    0    0  501    0  0.00000000000E+00  0.00000000000E+00  0.12299059718E+03  0.12299059718E+03  0.00000000000E+00 0. -1.
         -4   -1    0    0    0  501 -0.00000000000E+00 -0.00000000000E+00 -0.21733520873E+03  0.21733520873E+03  0.00000000000E+00 0.  1.
         25    2    1    2    0    0  0.83725432191E+02  0.87624106405E+02 -0.41561872696E+02  0.17906061963E+03  0.12508950485E+03 0.  0.
          5    1    3    3  502    0  0.24285891432E+01 -0.26234421006E+02 -0.27625243708E+02  0.38402726214E+02  0.41800000000E+01 0.  1.
         -5    1    3    3    0  502  0.81296843047E+02  0.11385852741E+03 -0.13936628989E+02  0.14065789342E+03  0.41800000000E+01 0.  1.
        -11    1    1    2    0    0 -0.93001441043E+02 -0.44977795374E+02 -0.55990364496E+02  0.11750400431E+03  0.00000000000E+00 0.  1.
         11    1    1    2    0    0  0.92760088520E+01 -0.42646311032E+02  0.32076256382E+01  0.43761181966E+02  0.00000000000E+00 0. -1.
</event>
<event>
 7    1  0.2490079E-009  0.7890331E+02  0.7561462E-02  0.1332193E+00
         -1   -1    0    0    0  501 -0.00000000000E+00  0.00000000000E+00  0.61150653812E+02  0.61150653812E+02  0.00000000000E+00 0.  1.
          1   -1    0    0  501    0  0.00000000000E+00 -0.00000000000E+00 -0.24390511779E+03  0.24390511779E+03  0.00000000000E+00 0. -1.
         25    2    1    2    0    0  0.97332279279E+01 -0.15007161793E+01 -0.17460734435E+03  0.21501751206E+03  0.12509123837E+03 0.  0.
          5    1    3    3  502    0 -0.26687692919E+02 -0.43447966512E+02 -0.28307935911E+02  0.58470252119E+02  0.41800000000E+01 0. -1.
         -5    1    3    3    0  502  0.36420920847E+02  0.41947250333E+02 -0.14629940844E+03  0.15654725994E+03  0.41800000000E+01 0. -1.
        -11    1    1    2    0    0 -0.12113153680E+02 -0.23173138830E+02 -0.41154850496E+02  0.48759046080E+02  0.00000000000E+00 0. -1.
         11    1    1    2    0    0  0.23799257521E+01  0.24673855009E+02  0.33007730862E+02  0.41279213465E+02  0.00000000000E+00 0.  1.
</event>
<event>
 7    1  0.2490079E-009  0.1510555E+03  0.7561462E-02  0.1199182E+00
          2   -1    0    0  501    0  0.00000000000E+00  0.00000000000E+00  0.77001054578E+03  0.77001054578E+03  0.00000000000E+00 0. -1.
         -2   -1    0    0    0  501 -0.00000000000E+00 -0.00000000000E+00 -0.31819013160E+02  0.31819013160E+02  0.00000000000E+00 0.  1.
         25    2    1    2    0    0 -0.17077358893E+02  0.10564192523E+03  0.48898217683E+03  0.51594857508E+03  0.12509000885E+03 0.  0.
          5    1    3    3  502    0 -0.16878586391E+02 -0.26797688115E+02  0.86059171630E+02  0.91796820143E+02  0.41800000000E+01 0. -1.
         -5    1    3    3    0  502 -0.19877250186E+00  0.13243961335E+03  0.40292300520E+03  0.42415175494E+03  0.41800000000E+01 0. -1.
        -11    1    1    2    0    0  0.50202939775E+02 -0.84730762215E+02  0.15248516055E+03  0.18152509858E+03  0.00000000000E+00 0.  1.
         11    1    1    2    0    0 -0.33125580882E+02 -0.20911163017E+02  0.96724195241E+02  0.10435588528E+03  0.00000000000E+00 0. -1.
</event>
<event>
 7    1  0.2490079E-009  0.2011300E+03  0.7561462E-02  0.1148789E+00
         -2   -1    0    0    0  501 -0.00000000000E+00  0.00000000000E+00  0.13513715486E+04  0.13513715486E+04  0.00000000000E+00 0.  1.
          2   -1    0    0  501    0  0.00000000000E+00 -0.00000000000E+00 -0.66892217037E+02  0.66892217037E+02  0.00000000000E+00 0. -1.
         25    2    1    2    0    0 -0.10890721463E+03 -0.13675885041E+03  0.11693358939E+04  0.11889309594E+04  0.12508648601E+03 0.  0.
          5    1    3    3  502    0  0.18003920046E+02  0.14664407440E+01  0.39805833596E+02  0.43912052716E+02  0.41800000000E+01 0. -1.
         -5    1    3    3    0  502 -0.12691113467E+03 -0.13822529115E+03  0.11295300603E+04  0.11450189067E+04  0.41800000000E+01 0. -1.
        -11    1    1    2    0    0  0.73948638487E+02  0.23656547467E+02  0.62959785399E+02  0.99959831681E+02  0.00000000000E+00 0.  1.
         11    1    1    2    0    0  0.34958576140E+02  0.11310230294E+03  0.52183652286E+02  0.12937297454E+03  0.00000000000E+00 0. -1.
</event>
<event>
 7    1  0.2490079E-009  0.1823563E+03  0.7561462E-02  0.1165542E+00
          1   -1    0    0  501    0  0.00000000000E+00  0.00000000000E+00  0.55071183753E+02  0.55071183753E+02  0.00000000000E+00 0. -1.
         -1   -1    0    0    0  501 -0.00000000000E+00 -0.00000000000E+00 -0.68943396836E+03  0.68943396836E+03  0.00000000000E+00 0.  1.
         25    2    1    2    0    0 -0.14202195141E+03  0.53132841369E+02 -0.43702513452E+03  0.47919967485E+03  0.12509207271E+03 0.  0.
          5    1    3    3  502    0 -0.11000858018E+03 -0.20486990350E+02 -0.30154721564E+03  0.32166721958E+03  0.41800000000E+01 0.  1.
         -5    1    3    3    0  502 -0.32013371223E+02  0.73619831719E+02 -0.13547791888E+03  0.15753245527E+03  0.41800000000E+01 0.  1.
        -11    1    1    2    0    0  0.90337788505E+02  0.98488312012E+01 -0.72578232776E+02  0.11629924927E+03  0.00000000000E+00 0. -1.
         11    1    1    2    0    0  0.51684162903E+02 -0.62981672570E+02 -0.12475941731E+03  0.14900622800E+03  0.00000000000E+00 0.  1.
</event>
<event>
 7    1  0.2490079E-009  0.1812383E+03  0.7561462E-02  0.1166610E+00
         -2   -1    0    0    0  501 -0.00000000000E+00  0.00000000000E+00  0.36954701195E+02  0.36954701195E+02  0.00000000000E+00 0.  1.
          2   -1    0    0  501    0  0.00000000000E+00 -0.00000000000E+00 -0.13167722630E+04  0.13167722630E+04  0.00000000000E+00 0. -1.
         25    2    1    2    0    0 -0.18165321598E+02  0.17862424137E+03 -0.87948037073E+03  0.90629421631E+03  0.12508751143E+03 0.  0.
          5    1    3    3  502    0 -0.26216136718E+02  0.97054300038E+02 -0.71938189567E+03  0.72638461382E+03  0.41800000000E+01 0.  1.
         -5    1    3    3    0  502  0.80508151200E+01  0.81569941333E+02 -0.16009847506E+03  0.17990960250E+03  0.41800000000E+01 0.  1.
        -11    1    1    2    0    0  0.96094073242E+01 -0.52651680140E+02 -0.22553504945E+03  0.23179861660E+03  0.00000000000E+00 0. -1.
         11    1    1    2    0    0  0.85559142734E+01 -0.12597256123E+03 -0.17480214163E+03  0.21563413127E+03  0.00000000000E+00 0.  1.
</event>
<event>
 7    1  0.2490079E-009  0.9204214E+02  0.7561462E-02  0.1297980E+00
         -4   -1    0    0    0  501 -0.00000000000E+00  0.00000000000E+00  0.22491510957E+03  0.22491510957E+03  0.00000000000E+00 0. -1.
          4   -1    0    0  501    0  0.00000000000E+00 -0.00000000000E+00 -0.61806243957E+02  0.61806243957E+02  0.00000000000E+00 0.  1.
         25    2    1    2    0    0  0.28706709057E+02  0.33397691069E+02  0.76953825399E+02  0.15332631610E+03  0.12509031558E+03 0.  0.
          5    1    3    3  502    0  0.53427814398E+02 -0.27122493519E+01 -0.11202960106E+02  0.54816661364E+02  0.41800000000E+01 0. -1.
         -5    1    3    3    0  502 -0.24721105341E+02  0.36109940421E+02  0.88156785506E+02  0.98509654741E+02  0.41800000000E+01 0. -1.
        -11    1    1    2    0    0 -0.89290622535E+01  0.24078216844E+02 -0.26103491296E+01  0.25812837924E+02  0.00000000000E+00 0.  1.
         11    1    1    2    0    0 -0.19777646804E+02 -0.57475907913E+02  0.88765389342E+02  0.10758219950E+03  0.00000000000E+00 0. -1.
</event>
<event>
 7    1  0.2490079E-009  0.3659188E+03  0.7561462E-02  0.1056265E+00
         -1   -1    0    0    0  501 -0.00000000000E+00  0.00000000000E+00  0.37239690030E+03  0.37239690030E+03  0.00000000000E+00 0.  1.
          1   -1    0    0  501    0  0.00000000000E+00 -0.00000000000E+00 -0.37170727383E+03  0.37170727383E+03  0.00000000000E+00 0. -1.
         25    2    1    2    0    0  0.34238570365E+03 -0.95882398276E+02  0.11108675668E+02  0.37708143266E+03  0.12508237213E+03 0.  0.
          5    1    3    3  502    0  0.22804174639E+03 -0.16022023742E+02 -0.32389165797E+02  0.23092482284E+03  0.41800000000E+01 0.  1.
         -5    1    3    3    0  502  0.11434395726E+03 -0.79860374534E+02  0.43497841466E+02  0.14615660982E+03  0.41800000000E+01 0.  1.
        -11    1    1    2    0    0 -0.23011577806E+03  0.10093289163E+03  0.15266072951E+02  0.25174148031E+03  0.00000000000E+00 0.  1.
         11    1    1    2    0    0 -0.11226992559E+03 -0.50504933536E+01 -0.25685122151E+02  0.11528126116E+03  0.00000000000E+00 0. -1.
</event>
<event>
 7    1  0.2490079E-009  0.9172702E+02  0.7561462E-02  0.1298723E+00
         -1   -1    0    0    0  501 -0.00000000000E+00  0.00000000000E+00  0.22980835430E+02  0.22980835430E+02  0.00000000000E+00 0.  1.
          1   -1    0    0  501    0  0.00000000000E+00 -0.00000000000E+00 -0.74952822963E+03  0.74952822963E+03  0.00000000000E+00 0. -1.
         25    2    1    2    0    0  0.30750747271E+02  0.47174930139E+02 -0.54265202502E+03  0.55972405335E+03  0.12509481666E+03 0.  0.
          5    1    3    3  502    0  0.10274764858E+02  0.72942515399E+02 -0.16654074300E+03  0.18215233412E+03  0.41800000000E+01 0. -1.
         -5    1    3    3    0  502  0.20475982413E+02 -0.25767585260E+02 -0.37611128201E+03  0.37757171923E+03  0.41800000000E+01 0. -1.
        -11    1    1    2    0    0  0.14871736642E+01 -0.44085300798E+02 -0.17312398012E+03  0.17865508088E+03  0.00000000000E+00 0. -1.
         11    1    1    2    0    0 -0.32237920936E+02 -0.30896293408E+01 -0.10771389059E+02  0.34129930823E+02  0.00000000000E+00 0.  1.
</event>
<event>
 7    1  0.2490079E-009  0.7543798E+02  0.7561462E-02  0.1342520E+00
         -1   -1    0    0    0  501 -0.00000000000E+00  0.00000000000E+00  0.12703828270E+03  0.12703828270E+03  0.00000000000E+00 0.  1.
          1   -1    0    0  501    0  0.00000000000E+00 -0.00000000000E+00 -0.15439696834E+03  0.15439696834E+03  0.00000000000E+00 0. -1.
         25    2    1    2    0    0  0.27271238980E+02  0.26215881202E+02 -0.94465542315E+02  0.16124692448E+03  0.12508332850E+03 0.  0.
          5    1    3    3  502    0 -0.10922968963E+02 -0.19415048905E+02 -0.98867189392E+02  0.10143199157E+03  0.41800000000E+01 0. -1.
         -5    1    3    3    0  502  0.38194207943E+02  0.45630930107E+02  0.44016470772E+01  0.59814932917E+02  0.41800000000E+01 0. -1.
        -11    1    1    2    0    0 -0.39534960758E+02 -0.35532729138E+02  0.82675107536E+02  0.98289172182E+02  0.00000000000E+00 0.  1.
         11    1    1    2    0    0  0.12263721778E+02  0.93168479368E+01 -0.15568250866E+02  0.21899154375E+02  0.00000000000E+00 0. -1.
</event>
<event>
 7    1  0.2490079E-009  0.1335836E+03  0.7561462E-02  0.1222233E+00
          1   -1    0    0  501    0  0.00000000000E+00  0.00000000000E+00  0.99212833426E+03  0.99212833426E+03  0.00000000000E+00 0. -1.
         -1   -1    0    0    0  501 -0.00000000000E+00 -0.00000000000E+00 -0.29938586121E+02  0.29938586121E+02  0.00000000000E+00 0.  1.
         25    2    1    2    0    0  0.89048152248E+02 -0.24184924933E+02  0.79605968455E+03  0.81109370403E+03  0.12508993302E+03 0.  0.
          5    1    3    3  502    0 -0.57999946780E+01 -0.55080983737E+02  0.27408780436E+03  0.27965899164E+03  0.41800000000E+01 0.  1.
         -5    1    3    3    0  502  0.94848146926E+02  0.30896058804E+02  0.52197188019E+03  0.53143471239E+03  0.41800000000E+01 0.  1.
        -11    1    1    2    0    0  0.44973129736E+01  0.17422609404E+02 -0.23503251986E+01  0.18146547081E+02  0.00000000000E+00 0.  1.
         11    1    1    2    0    0 -0.93545465221E+02  0.67623155289E+01  0.16848038879E+03  0.19282666927E+03  0.00000000000E+00 0. -1.
</event>
<event>
 7    1  0.2490079E-009  0.1112852E+03  0.7561462E-02  0.1258208E+00
         -1   -1    0    0    0  501 -0.00000000000E+00  0.00000000000E+00  0.96334240632E+02  0.96334240632E+02  0.00000000000E+00 0.  1.
          1   -1    0    0  501    0  0.00000000000E+00 -0.00000000000E+00 -0.19145523856E+03  0.19145523856E+03  0.00000000000E+00 0. -1.
         25    2    1    2    0    0 -0.15114005304E+02 -0.70483281365E+02 -0.82589601008E+02  0.16633802614E+03  0.12510383941E+03 0.  0.
          5    1    3    3  502    0 -0.39096786386E+01  0.34242883758E+02 -0.41858041485E+01  0.34969329869E+02  0.41800000000E+01 0.  1.
         -5    1    3    3    0  502 -0.11204326665E+02 -0.10472616512E+03 -0.78403796860E+02  0.13136869627E+03  0.41800000000E+01 0.  1.
        -11    1    1    2    0    0 -0.12596467521E+02  0.10604763529E+02 -0.44998303382E+02  0.47916378315E+02  0.00000000000E+00 0. -1.
         11    1    1    2    0    0  0.27710472825E+02  0.59878517836E+02  0.32466906459E+02  0.73535074743E+02  0.00000000000E+00 0.  1.
</event>
<event>
 7    1  0.2490079E-009  0.2494399E+03  0.7561462E-02  0.1113659E+00
          2   -1    0    0  501    0  0.00000000000E+00  0.00000000000E+00  0.19316959059E+04  0.19316959059E+04  0.00000000000E+00 0. -1.
         -2   -1    0    0    0  501 -0.00000000000E+00 -0.00000000000E+00 -0.35185314429E+02  0.35185314429E+02  0.00000000000E+00 0.  1.
         25    2    1    2    0    0  0.10761223018E+03  0.21047842743E+03  0.94613289020E+03  0.98320696325E+03  0.12508767394E+03 0.  0.
          5    1    3    3  502    0  0.11947227066E+03  0.15455659275E+03  0.56601809176E+03  0.59879488677E+03  0.41800000000E+01 0. -1.
         -5    1    3    3    0  502 -0.11860040481E+02  0.55921834677E+02  0.38011479844E+03  0.38441207649E+03  0.41800000000E+01 0. -1.
        -11    1    1    2    0    0 -0.38829857228E+02 -0.20056392494E+02  0.93612714251E+02  0.10331194007E+03  0.00000000000E+00 0.  1.
         11    1    1    2    0    0 -0.68782372954E+02 -0.19042203493E+03  0.85676498699E+03  0.88036231698E+03  0.00000000000E+00 0. -1.
</event>
<event>
 7    1  0.2490079E-009  0.1184882E+03  0.7561462E-02  0.1245612E+00
          1   -1    0    0  501    0  0.00000000000E+00  0.00000000000E+00  0.33446908806E+03  0.33446908806E+03  0.00000000000E+00 0. -1.
         -1   -1    0    0    0  501 -0.00000000000E+00 -0.00000000000E+00 -0.85728847042E+02  0.85728847042E+02  0.00000000000E+00 0.  1.
         25    2    1    2    0    0  0.17222985028E+01  0.82269403515E+02  0.25495058443E+03  0.29566566047E+03  0.12508861345E+03 0.  0.
          5    1    3    3  502    0 -0.19306492758E+02 -0.25897397536E+02  0.26484910586E+02  0.41980218562E+02  0.41800000000E+01 0. -1.
         -5    1    3    3    0  502  0.21028791261E+02  0.10816680105E+03  0.22846567384E+03  0.25368544191E+03  0.41800000000E+01 0. -1.
        -11    1    1    2    0    0  0.14400768753E+02 -0.50675579058E+01 -0.36877241291E+02  0.39912319014E+02  0.00000000000E+00 0.  1.
         11    1    1    2    0    0 -0.16123067256E+02 -0.77201845609E+02  0.30666897882E+02  0.84619955619E+02  0.00000000000E+00 0. -1.
</event>
<event>
 7    1  0.2490079E-009  0.1763301E+03  0.7561462E-02  0.1171403E+00
          2   -1    0    0  501    0  0.00000000000E+00  0.00000000000E+00  0.14584586464E+04  0.14584586464E+04  0.00000000000E+00 0. -1.
         -2   -1    0    0    0  501 -0.00000000000E+00 -0.00000000000E+00 -0.49062517826E+02  0.49062517826E+02  0.00000000000E+00 0.  1.
         25    2    1    2    0    0 -0.16176348128E+03 -0.41504091935E+02  0.12237550991E+04  0.12414159382E+04  0.12508787085E+03 0.  0.
          5    1    3    3  502    0 -0.24866227666E+02  0.13181797058E+02  0.59170977388E+03  0.59239346549E+03  0.41800000000E+01 0.  1.
         -5    1    3    3    0  502 -0.13689725362E+03 -0.54685888994E+02  0.63204532523E+03  0.64902247268E+03  0.41800000000E+01 0.  1.
        -11    1    1    2    0    0  0.11608047722E+03  0.55894253495E+02  0.84158474676E+02  0.15388792553E+03  0.00000000000E+00 0.  1.
         11    1    1    2    0    0  0.45683004064E+02 -0.14390161560E+02  0.10148255484E+03  0.11221730057E+03  0.00000000000E+00 0. -1.
</event>
<event>
 7    1  0.2490079E-009  0.1132133E+03  0.7561462E-02  0.1254732E+00
         -1   -1    0    0    0  501 -0.00000000000E+00  0.00000000000E+00  0.22608178932E+03  0.22608178932E+03  0.00000000000E+00 0.  1.
          1   -1    0    0  501    0  0.00000000000E+00 -0.00000000000E+00 -0.11817287724E+03  0.11817287724E+03  0.00000000000E+00 0. -1.
         25    2    1    2    0    0  0.65614663568E+02  0.41631052259E+02 -0.41188641317E+02  0.15291369048E+03  0.12509062305E+03 0.  0.
          5    1    3    3  502    0  0.27958764131E+01 -0.42057895978E+02 -0.15293058372E+02  0.45033693757E+02  0.41800000000E+01 0. -1.
         -5    1    3    3    0  502  0.62818787155E+02  0.83688948238E+02 -0.25895582945E+02  0.10787999672E+03  0.41800000000E+01 0. -1.
        -11    1    1    2    0    0 -0.51948176025E+02 -0.40032318651E+02  0.16055648303E+03  0.17343466715E+03  0.00000000000E+00 0.  1.
         11    1    1    2    0    0 -0.13666487544E+02 -0.15987336087E+01 -0.11458929636E+02  0.17906308926E+02  0.00000000000E+00 0. -1.
</event>
<event>
 7    1  0.2490079E-009  0.7532580E+02  0.7561462E-02  0.1342865E+00
         -1   -1    0    0    0  501 -0.00000000000E+00  0.00000000000E+00  0.16292438121E+02  0.16292438121E+02  0.00000000000E+00 0.  1.
          1   -1    0    0  501    0  0.00000000000E+00 -0.00000000000E+00 -0.15026038018E+04  0.15026038018E+04  0.00000000000E+00 0. -1.
         25    2    1    2    0    0  0.69876481520E+02 -0.17203608178E+02 -0.12140537672E+04  0.12226012903E+04  0.12509467888E+03 0.  0.
          5    1    3    3  502    0  0.60853151341E+01  0.86719770871E+00 -0.95927551420E+03  0.95930431440E+03  0.41800000000E+01 0. -1.
         -5    1    3    3    0  502  0.63791166386E+02 -0.18070805886E+02 -0.25477825296E+03  0.26329697590E+03  0.41800000000E+01 0. -1.
        -11    1    1    2    0    0 -0.60168891908E+02  0.24164433638E+02 -0.27620554051E+03  0.28371414490E+03  0.00000000000E+00 0. -1.
         11    1    1    2    0    0 -0.97075896121E+01 -0.69608254604E+01  0.39479439478E+01  0.12580804767E+02  0.00000000000E+00 0.  1.
</event>
<event>
 7    1  0.2490079E-009  0.1038592E+03  0.7561462E-02  0.1272384E+00
          1   -1    0    0  501    0  0.00000000000E+00  0.00000000000E+00  0.11727463604E+03  0.11727463604E+03  0.00000000000E+00 0. -1.
         -1   -1    0    0    0  501 -0.00000000000E+00 -0.00000000000E+00 -0.18241634652E+03  0.18241634652E+03  0.00000000000E+00 0.  1.
         25    2    1    2    0    0  0.20052842320E+02  0.51068015211E+02 -0.11807518363E+03  0.18055217080E+03  0.12508908317E+03 0.  0.
          5    1    3    3  502    0  0.57409433242E+02  0.67596328826E+02 -0.10489731991E+03  0.13742644149E+03  0.41800000000E+01 0.  1.
         -5    1    3    3    0  502 -0.37356590922E+02 -0.16528313615E+02 -0.13177863716E+02  0.43125729308E+02  0.41800000000E+01 0.  1.
        -11    1    1    2    0    0 -0.16846819959E+02  0.80467709214E+01  0.56821019579E+02  0.59809649146E+02  0.00000000000E+00 0. -1.
         11    1    1    2    0    0 -0.32060223614E+01 -0.59114786133E+02 -0.38875464348E+01  0.59329162612E+02  0.00000000000E+00 0.  1.
</event>
<event>
 7    1  0.2490079E-009  0.2213161E+03  0.7561462E-02  0.1132906E+00
         -2   -1    0    0    0  501 -0.00000000000E+00  0.00000000000E+00  0.43949968706E+02  0.43949968706E+02  0.00000000000E+00 0.  1.
          2   -1    0    0  501    0  0.00000000000E+00 -0.00000000000E+00 -0.11367277286E+04  0.11367277286E+04  0.00000000000E+00 0. -1.
         25    2    1    2    0    0  0.18732409802E+03 -0.48479579057E+02 -0.49746448816E+03  0.54823291863E+03  0.12509128187E+03 0.  0.
          5    1    3    3  502    0  0.62719617462E+02 -0.79526112111E+02 -0.20059314909E+03  0.22475150007E+03  0.41800000000E+01 0.  1.
         -5    1    3    3    0  502  0.12460448056E+03  0.31046533054E+02 -0.29687133907E+03  0.32348141856E+03  0.41800000000E+01 0.  1.
        -11    1    1    2    0    0 -0.22921999454E+02 -0.23932251110E+02 -0.11316734838E+03  0.11791954648E+03  0.00000000000E+00 0.  1.
         11    1    1    2    0    0 -0.16440209857E+03  0.72411830167E+02 -0.48214592330E+03  0.51452523215E+03  0.00000000000E+00 0. -1.
</event>
<event>
 7    1  0.2490079E-009  0.1035647E+03  0.7561462E-02  0.1272974E+00
          3   -1    0    0  501    0  0.00000000000E+00  0.00000000000E+00  0.10164474705E+03  0.10164474705E+03  0.00000000000E+00 0. -1.
         -3   -1    0    0    0  501 -0.00000000000E+00 -0.00000000000E+00 -0.18636522746E+03  0.18636522746E+03  0.00000000000E+00 0.  1.
         25    2    1    2    0    0  0.71184699837E+02 -0.35467107307E+02 -0.21471477094E+02  0.14978148895E+03  0.12509313695E+03 0.  0.
          5    1    3    3  502    0  0.66066323930E+02 -0.21419541318E+02 -0.70080428675E+02  0.98753707734E+02  0.41800000000E+01 0. -1.
         -5    1    3    3    0  502  0.51183759066E+01 -0.14047565988E+02  0.48608951581E+02  0.51027781217E+02  0.41800000000E+01 0. -1.
        -11    1    1    2    0    0 -0.42917786378E+02  0.67070934517E+02 -0.33259084612E+02  0.86293761963E+02  0.00000000000E+00 0. -1.
         11    1    1    2    0    0 -0.28266913458E+02 -0.31603827210E+02 -0.29989918709E+02  0.51934723595E+02  0.00000000000E+00 0.  1.
</event>
<event>
 7    1  0.2672828E-009  0.1149596E+03  0.7561462E-02  0.1251652E+00
          2   -1    0    0  501    0  0.00000000000E+00  0.00000000000E+00  0.11059853478E+04  0.11059853478E+04  0.00000000000E+00 0. -1.
         -2   -1    0    0    0  501 -0.00000000000E+00 -0.00000000000E+00 -0.13179354506E+02  0.13179354506E+02  0.00000000000E+00 0.  1.
         25    2    1    2    0    0 -0.50008313917E+02 -0.11890478236E+02  0.55417797606E+03  0.57044063484E+03  0.12508826403E+03 0.  0.
          5    1    3    3  502    0 -0.88820860513E+02 -0.41395604945E+01  0.45404092518E+03  0.46268446631E+03  0.41800000000E+01 0.  1.
         -5    1    3    3    0  502  0.38812546596E+02 -0.77509177410E+01  0.10013705088E+03  0.10775616853E+03  0.41800000000E+01 0.  1.
        -11    1    1    2    0    0 -0.25038773383E+02 -0.48862139999E+00  0.79895406421E+02  0.83728459263E+02  0.00000000000E+00 0. -1.
         11    1    1    2    0    0  0.75047087300E+02  0.12379099636E+02  0.45873261085E+03  0.46499560824E+03  0.00000000000E+00 0.  1.
</event>
<event>
 7    1  0.2490079E-009  0.9365365E+02  0.7561462E-02  0.1294238E+00
         -3   -1    0    0    0  501 -0.00000000000E+00  0.00000000000E+00  0.25689395286E+03  0.25689395286E+03  0.00000000000E+00 0.  1.
          3   -1    0    0  501    0  0.00000000000E+00 -0.00000000000E+00 -0.48458160120E+02  0.48458160120E+02  0.00000000000E+00 0. -1.
         25    2    1    2    0    0 -0.50495364903E+01  0.15068451746E+02  0.86115192077E+02  0.15269454623E+03  0.12508893670E+03 0.  0.
          5    1    3    3  502    0  0.36758305309E+02 -0.30252139739E+02  0.76428055210E+02  0.90139253331E+02  0.41800000000E+01 0. -1.
         -5    1    3    3    0  502 -0.41807841800E+02  0.45320591486E+02  0.96871368670E+01  0.62555292896E+02  0.41800000000E+01 0. -1.
        -11    1    1    2    0    0 -0.35499960615E+02 -0.97926048362E+01  0.18786680615E+02  0.41341041130E+02  0.00000000000E+00 0. -1.
         11    1    1    2    0    0  0.40549497106E+02 -0.52758469101E+01  0.10353392004E+03  0.11131652562E+03  0.00000000000E+00 0.  1.
</event>
<event>
 7    1  0.2490079E-009  0.1022390E+03  0.7561462E-02  0.1275657E+00
         -2   -1    0    0    0  501 -0.00000000000E+00  0.00000000000E+00  0.13250731883E+03  0.13250731883E+03  0.00000000000E+00 0.  1.
          2   -1    0    0  501    0  0.00000000000E+00 -0.00000000000E+00 -0.10781163982E+03  0.10781163982E+03  0.00000000000E+00 0. -1.
         25    2    1    2    0    0 -0.77232752417E+01  0.50167509393E+02 -0.10363926029E+02  0.13540143175E+03  0.12509879607E+03 0.  0.
          5    1    3    3  502    0 -0.49517781780E+02  0.63692948250E+02  0.18234350572E+02  0.82817669068E+02  0.41800000000E+01 0.  1.
         -5    1    3    3    0  502  0.41794506538E+02 -0.13525438857E+02 -0.28598276601E+02  0.52583762680E+02  0.41800000000E+01 0.  1.
        -11    1    1    2    0    0 -0.24721016015E+02 -0.37114882735E+02  0.49904208708E+02  0.66925878403E+02  0.00000000000E+00 0.  1.
         11    1    1    2    0    0  0.32444291257E+02 -0.13052626658E+02 -0.14844603662E+02  0.37991648500E+02  0.00000000000E+00 0. -1.
</event>
<event>
 7    1  0.2490079E-009  0.2086692E+03  0.7561462E-02  0.1142624E+00
          2   -1    0    0  501    0  0.00000000000E+00  0.00000000000E+00  0.10398693244E+04  0.10398693244E+04  0.00000000000E+00 0.  1.
         -2   -1    0    0    0  501 -0.00000000000E+00 -0.00000000000E+00 -0.46600381868E+02  0.46600381868E+02  0.00000000000E+00 0. -1.
         25    2    1    2    0    0 -0.18876358516E+03  0.24772004316E+02  0.57419222002E+03  0.61772910149E+03  0.12508874453E+03 0.  0.
          5    1    3    3  502    0 -0.76467253554E+02  0.66967390745E+02  0.19425761381E+03  0.21928375501E+03  0.41800000000E+01 0.  1.
         -5    1    3    3    0  502 -0.11229633160E+03 -0.42195386429E+02  0.37993460622E+03  0.39844534648E+03  0.41800000000E+01 0.  1.
        -11    1    1    2    0    0  0.64953231365E+02 -0.30225327403E+02  0.24357858657E+03  0.25389568826E+03  0.00000000000E+00 0.  1.
         11    1    1    2    0    0  0.12381035379E+03  0.54533230865E+01  0.17549813595E+03  0.21484491653E+03  0.00000000000E+00 0. -1.
</event>
<event>
 7    1  0.2490079E-009  0.1377459E+03  0.7561462E-02  0.1216395E+00
          2   -1    0    0  501    0  0.00000000000E+00  0.00000000000E+00  0.13269820041E+03  0.13269820041E+03  0.00000000000E+00 0. -1.
         -2   -1    0    0    0  501 -0.00000000000E+00 -0.00000000000E+00 -0.21793658491E+03  0.21793658491E+03  0.00000000000E+00 0.  1.
         25    2    1    2    0    0 -0.11705058080E+03 -0.51543471675E+02 -0.18132690665E+02  0.17981402111E+03  0.12508684894E+03 0.  0.
          5    1    3    3  502    0 -0.86674804540E+02 -0.68322277399E+02  0.35314297501E+02  0.11595269440E+03  0.41800000000E+01 0.  1.
         -5    1    3    3    0  502 -0.30375776264E+02  0.16778805724E+02 -0.53446988166E+02  0.63861326710E+02  0.41800000000E+01 0.  1.
        -11    1    1    2    0    0  0.92423667678E+02  0.50782899971E+02 -0.88898274505E+02  0.13792730145E+03  0.00000000000E+00 0.  1.
         11    1    1    2    0    0  0.24626913126E+02  0.76057170346E+00  0.21792580669E+02  0.32893462749E+02  0.00000000000E+00 0. -1.
</event>
<event>
 7    1  0.2490079E-009  0.9033394E+02  0.7561462E-02  0.1302045E+00
         -2   -1    0    0    0  501 -0.00000000000E+00  0.00000000000E+00  0.13531975643E+02  0.13531975643E+02  0.00000000000E+00 0.  1.
          2   -1    0    0  501    0  0.00000000000E+00 -0.00000000000E+00 -0.68368748675E+03  0.68368748675E+03  0.00000000000E+00 0. -1.
         25    2    1    2    0    0 -0.10649817448E+02 -0.92544713942E+01 -0.45341206858E+03  0.47056252187E+03  0.12509004440E+03 0.  0.
          5    1    3    3  502    0 -0.15167080423E+02 -0.66271062408E+02 -0.26521848222E+03  0.27382514448E+03  0.41800000000E+01 0.  1.
         -5    1    3    3    0  502  0.45172629745E+01  0.57016591014E+02 -0.18819358636E+03  0.19673737739E+03  0.41800000000E+01 0.  1.
        -11    1    1    2    0    0 -0.19750465266E+02 -0.67237889180E+01 -0.28580790208E+02  0.35385756803E+02  0.00000000000E+00 0.  1.
         11    1    1    2    0    0  0.30400282714E+02  0.15978260312E+02 -0.18816265232E+03  0.19127118372E+03  0.00000000000E+00 0. -1.
</event>
<event>
 7    1  0.2490079E-009  0.8657676E+02  0.7561462E-02  0.1311360E+00
         -1   -1    0    0    0  501 -0.00000000000E+00  0.00000000000E+00  0.20411482789E+03  0.20411482789E+03  0.00000000000E+00 0.  1.
          1   -1    0    0  501    0  0.00000000000E+00 -0.00000000000E+00 -0.64362160914E+02  0.64362160914E+02  0.00000000000E+00 0. -1.
         25    2    1    2    0    0 -0.24917576400E+02 -0.34201829265E+02  0.87200377521E+02  0.15824730408E+03  0.12509057786E+03 0.  0.
          5    1    3    3  502    0 -0.27123968408E+02  0.36414612960E+02  0.72986756979E+02  0.86059704819E+02  0.41800000000E+01 0.  1.
         -5    1    3    3    0  502  0.22063920079E+01 -0.70616442225E+02  0.14213620542E+02  0.72187599261E+02  0.41800000000E+01 0.  1.
        -11    1    1    2    0    0  0.17323787081E+02 -0.40430045518E+01  0.66484947707E+02  0.68823744131E+02  0.00000000000E+00 0.  1.
         11    1    1    2    0    0  0.75937893188E+01  0.38244833817E+02 -0.13932658257E+02  0.41405940588E+02  0.00000000000E+00 0. -1.
</event>
<event>
 7    1  0.2490079E-009  0.8111420E+02  0.7561462E-02  0.1325919E+00
         -2   -1    0    0    0  501 -0.00000000000E+00  0.00000000000E+00  0.45339416875E+02  0.45339416875E+02  0.00000000000E+00 0.  1.
          2   -1    0    0  501    0  0.00000000000E+00 -0.00000000000E+00 -0.36579742704E+03  0.36579742704E+03  0.00000000000E+00 0. -1.
         25    2    1    2    0    0 -0.19961826866E+01  0.44799244363E+02 -0.95440244229E+02  0.16359780485E+03  0.12507775379E+03 0.  0.
          5    1    3    3  502    0 -0.20106288685E+01 -0.12126486172E+02  0.26194888134E+02  0.29235917288E+02  0.41800000000E+01 0.  1.
         -5    1    3    3    0  502  0.14446181857E-01  0.56925730535E+02 -0.12163513236E+03  0.13436188757E+03  0.41800000000E+01 0.  1.
        -11    1    1    2    0    0 -0.35097146221E+02 -0.14698389219E+01 -0.36825265314E+02  0.50892732926E+02  0.00000000000E+00 0.  1.
         11    1    1    2    0    0  0.37093328908E+02 -0.43329405441E+02 -0.18819250062E+03  0.19664630613E+03  0.00000000000E+00 0. -1.
</event>
<event>
 7    1  0.2643413E-009  0.1557042E+03  0.7561462E-02  0.1193634E+00
          2   -1    0    0  501    0  0.00000000000E+00  0.00000000000E+00  0.13264370019E+04  0.13264370019E+04  0.00000000000E+00 0. -1.
         -2   -1    0    0    0  501 -0.00000000000E+00 -0.00000000000E+00 -0.20340549153E+02  0.20340549153E+02  0.00000000000E+00 0.  1.
         25    2    1    2    0    0  0.82069326022E+02  0.91127162908E+02  0.66719152655E+03  0.68980556153E+03  0.12509054929E+03 0.  0.
          5    1    3    3  502    0  0.10064358261E+03  0.10240819481E+03  0.47228716152E+03  0.49364886754E+03  0.41800000000E+01 0.  1.
         -5    1    3    3    0  502 -0.18574256591E+02 -0.11281031907E+02  0.19490436503E+03  0.19615669399E+03  0.41800000000E+01 0.  1.
        -11    1    1    2    0    0 -0.61278610673E+02 -0.10433659166E+03  0.58922442112E+03  0.60152024981E+03  0.00000000000E+00 0. -1.
         11    1    1    2    0    0 -0.20790715349E+02  0.13209428755E+02  0.49680505078E+02  0.55451739716E+02  0.00000000000E+00 0.  1.
</event>
<event>
 7    1  0.2490079E-009  0.8308752E+02  0.7561462E-02  0.1320511E+00
          3   -1    0    0  501    0  0.00000000000E+00  0.00000000000E+00  0.65074088857E+03  0.65074088857E+03  0.00000000000E+00 0. -1.
         -3   -1    0    0    0  501 -0.00000000000E+00 -0.00000000000E+00 -0.26829585880E+02  0.26829585880E+02  0.00000000000E+00 0.  1.
         25    2    1    2    0    0  0.40044226724E+02  0.86815760331E+01  0.50848323350E+03  0.52524372510E+03  0.12508741804E+03 0.  0.
          5    1    3    3  502    0 -0.13978439555E+02  0.36693710759E+02  0.38987973789E+03  0.39187435180E+03  0.41800000000E+01 0. -1.
         -5    1    3    3    0  502  0.54022666279E+02 -0.28012134726E+02  0.11860349561E+03  0.13336937330E+03  0.41800000000E+01 0. -1.
        -11    1    1    2    0    0 -0.48190767953E+02  0.63359727776E+01  0.12401893744E+03  0.13320357169E+03  0.00000000000E+00 0. -1.
         11    1    1    2    0    0  0.81465412288E+01 -0.15017548811E+02 -0.85908682552E+01  0.19123177656E+02  0.00000000000E+00 0.  1.
</event>
<event>
 7    1  0.2490079E-009  0.1081769E+03  0.7561462E-02  0.1263984E+00
          1   -1    0    0  501    0  0.00000000000E+00  0.00000000000E+00  0.56868043345E+03  0.56868043345E+03  0.00000000000E+00 0. -1.
         -1   -1    0    0    0  501 -0.00000000000E+00 -0.00000000000E+00 -0.31623370440E+02  0.31623370440E+02  0.00000000000E+00 0.  1.
         25    2    1    2    0    0  0.18707950156E+02 -0.21188522088E+02  0.46291326732E+03  0.48035362544E+03  0.12510783965E+03 0.  0.
          5    1    3    3  502    0  0.55914583490E+02  0.26939954895E+02  0.30049541051E+03  0.30686669085E+03  0.41800000000E+01 0. -1.
         -5    1    3    3    0  502 -0.37206633334E+02 -0.48128476982E+02  0.16241785681E+03  0.17348693459E+03  0.41800000000E+01 0. -1.
        -11    1    1    2    0    0  0.12956989974E+02  0.49209948927E+02  0.49594109989E+02  0.71056867425E+02  0.00000000000E+00 0. -1.
         11    1    1    2    0    0 -0.31664940130E+02 -0.28021426839E+02  0.24549685703E+02  0.48893311032E+02  0.00000000000E+00 0.  1.
</event>
<event>
 7    1  0.2490079E-009  0.1906487E+03  0.7561462E-02  0.1157878E+00
          1   -1    0    0  501    0  0.00000000000E+00  0.00000000000E+00  0.15723741255E+03  0.15723741255E+03  0.00000000000E+00 0. -1.
         -1   -1    0    0    0  501 -0.00000000000E+00 -0.00000000000E+00 -0.28191082176E+03  0.28191082176E+03  0.00000000000E+00 0.  1.
         25    2    1    2    0    0  0.12779928152E+03 -0.95214027438E+02  0.20403724299E+02  0.20362059188E+03  0.12508663435E+03 0.  0.
          5    1    3    3  502    0  0.21299332383E+02  0.30715151556E+02  0.31404586492E+01  0.37741449039E+02  0.41800000000E+01 0. -1.
         -5    1    3    3    0  502  0.10649994914E+03 -0.12592917899E+03  0.17263265650E+02  0.16587914284E+03  0.41800000000E+01 0. -1.
        -11    1    1    2    0    0 -0.12571142690E+03  0.52974247424E+02 -0.13527114481E+03  0.19211433149E+03  0.00000000000E+00 0. -1.
         11    1    1    2    0    0 -0.20878546196E+01  0.42239780014E+02 -0.98059887031E+01  0.43413310942E+02  0.00000000000E+00 0.  1.
</event>
<event>
 7    1  0.2490079E-009  0.9177067E+02  0.7561462E-02  0.1298620E+00
         -2   -1    0    0    0  501 -0.00000000000E+00  0.00000000000E+00  0.38152714703E+02  0.38152714703E+02  0.00000000000E+00 0.  1.
          2   -1    0    0  501    0  0.00000000000E+00 -0.00000000000E+00 -0.37843597117E+03  0.37843597117E+03  0.00000000000E+00 0. -1.
         25    2    1    2    0    0 -0.16533417966E+02 -0.28356277170E+02 -0.26483903525E+03  0.29472767012E+03  0.12508897865E+03 0.  0.
          5    1    3    3  502    0  0.16312447879E+02 -0.64587024300E+02 -0.83689176649E+02  0.10704639346E+03  0.41800000000E+01 0. -1.
         -5    1    3    3    0  502 -0.32845865845E+02  0.36230747131E+02 -0.18114985860E+03  0.18768127667E+03  0.41800000000E+01 0. -1.
        -11    1    1    2    0    0 -0.44450127632E+01 -0.17090288938E+02  0.11827377224E+02  0.21253775346E+02  0.00000000000E+00 0.  1.
         11    1    1    2    0    0  0.20978430729E+02  0.45446566108E+02 -0.87271598446E+02  0.10060724041E+03  0.00000000000E+00 0. -1.
</event>
<event>
 7    1  0.2490079E-009  0.1279919E+03  0.7561462E-02  0.1230466E+00
         -1   -1    0    0    0  501 -0.00000000000E+00  0.00000000000E+00  0.30580459108E+02  0.30580459108E+02  0.00000000000E+00 0. -1.
          1   -1    0    0  501    0  0.00000000000E+00 -0.00000000000E+00 -0.53805420337E+03  0.53805420337E+03  0.00000000000E+00 0.  1.
         25    2    1    2    0    0  0.56468018372E+02 -0.37069091428E+02 -0.26859151860E+03  0.30389517272E+03  0.12509243583E+03 0.  0.
          5    1    3    3  502    0  0.73630081397E+01 -0.77689763815E+02 -0.15470855087E+03  0.17332663212E+03  0.41800000000E+01 0. -1.
         -5    1    3    3    0  502  0.49105010232E+02  0.40620672387E+02 -0.11388296773E+03  0.13056854060E+03  0.41800000000E+01 0. -1.
        -11    1    1    2    0    0 -0.13120101192E+02 -0.30776925857E+02 -0.76368012365E+02  0.83375233331E+02  0.00000000000E+00 0. -1.
         11    1    1    2    0    0 -0.43347917180E+02  0.67846017285E+02 -0.16251421329E+03  0.18136425642E+03  0.00000000000E+00 0.  1.
</event>
<event>
 7    1  0.2490079E-009  0.1927165E+03  0.7561462E-02  0.1156034E+00
         -1   -1    0    0    0  501 -0.00000000000E+00  0.00000000000E+00  0.69115780893E+02  0.69115780893E+02  0.00000000000E+00 0.  1.
          1   -1    0    0  501    0  0.00000000000E+00 -0.00000000000E+00 -0.56686502281E+03  0.56686502281E+03  0.00000000000E+00 0. -1.
         25    2    1    2    0    0  0.15716905001E+03  0.36929540954E+02 -0.20459519814E+03  0.28908901290E+03  0.12508941202E+03 0.  0.
          5    1    3    3  502    0  0.52064587017E+02  0.75817627688E+02 -0.94465726738E+02  0.13191012022E+03  0.41800000000E+01 0. -1.
         -5    1    3    3    0  502  0.10510446299E+03 -0.38888086734E+02 -0.11012947140E+03  0.15717889267E+03  0.41800000000E+01 0. -1.
        -11    1    1    2    0    0 -0.41848548037E+02  0.26571060316E+02 -0.11625330414E+03  0.12638098331E+03  0.00000000000E+00 0. -1.
         11    1    1    2    0    0 -0.11532050197E+03 -0.63500601270E+02 -0.17690073963E+03  0.22051080749E+03  0.00000000000E+00 0.  1.
</event>
<event>
 7    1  0.2490079E-009  0.1831160E+03  0.7561462E-02  0.1164821E+00
          1   -1    0    0  501    0  0.00000000000E+00  0.00000000000E+00  0.54195558237E+03  0.54195558237E+03  0.00000000000E+00 0. -1.
         -1   -1    0    0    0  501 -0.00000000000E+00 -0.00000000000E+00 -0.70616164169E+02  0.70616164169E+02  0.00000000000E+00 0.  1.
         25    2    1    2    0    0 -0.10543502169E+03 -0.11229061832E+03  0.16699622432E+03  0.25934743818E+03  0.12509047923E+03 0.  0.
          5    1    3    3  502    0  0.23236017727E+02  0.40916475376E+01  0.29035941253E+02  0.37645881366E+02  0.41800000000E+01 0.  1.
         -5    1    3    3    0  502 -0.12867103942E+03 -0.11638226586E+03  0.13796028306E+03  0.22170155682E+03  0.41800000000E+01 0.  1.
        -11    1    1    2    0    0  0.62685811282E+02  0.10913714139E+03  0.27139851662E+03  0.29916146374E+03  0.00000000000E+00 0. -1.
         11    1    1    2    0    0  0.42749210411E+02  0.31534769333E+01  0.32944677265E+02  0.54062844613E+02  0.00000000000E+00 0.  1.
</event>
<event>
 7    1  0.2490079E-009  0.1012126E+03  0.7561462E-02  0.1277767E+00
         -2   -1    0    0    0  501 -0.00000000000E+00  0.00000000000E+00  0.11345764968E+02  0.11345764968E+02  0.00000000000E+00 0.  1.
          2   -1    0    0  501    0  0.00000000000E+00 -0.00000000000E+00 -0.10691409118E+04  0.10691409118E+04  0.00000000000E+00 0. -1.
         25    2    1    2    0    0  0.13442279665E+01 -0.13138811812E+02 -0.71716233512E+03  0.72810987398E+03  0.12509092036E+03 0.  0.
          5    1    3    3  502    0 -0.79006988843E+01 -0.62293633373E+02 -0.54962042440E+03  0.55321153380E+03  0.41800000000E+01 0.  1.
         -5    1    3    3    0  502  0.92449268508E+01  0.49154821561E+02 -0.16754191071E+03  0.17489834019E+03  0.41800000000E+01 0.  1.
        -11    1    1    2    0    0 -0.41909903568E+02  0.22646993809E+02 -0.20641463845E+03  0.21184033920E+03  0.00000000000E+00 0.  1.
         11    1    1    2    0    0  0.40565675602E+02 -0.95081819977E+01 -0.13421817322E+03  0.14053646354E+03  0.00000000000E+00 0. -1.
</event>
<event>
 7    1  0.2490079E-009  0.1026286E+03  0.7561462E-02  0.1274864E+00
         -2   -1    0    0    0  501 -0.00000000000E+00  0.00000000000E+00  0.35329239108E+02  0.35329239108E+02  0.00000000000E+00 0.  1.
          2   -1    0    0  501    0  0.00000000000E+00 -0.00000000000E+00 -0.40169676608E+03  0.40169676608E+03  0.00000000000E+00 0. -1.
         25    2    1    2    0    0 -0.32286778791E+01  0.33704814117E+02 -0.13774920534E+03  0.18912774234E+03  0.12509204809E+03 0.  0.
          5    1    3    3  502    0  0.37428654058E+02  0.63515257433E+02 -0.10673979657E+03  0.12979194368E+03  0.41800000000E+01 0. -1.
         -5    1    3    3    0  502 -0.40657331937E+02 -0.29810443316E+02 -0.31009408767E+02  0.59335798663E+02  0.41800000000E+01 0. -1.
        -11    1    1    2    0    0 -0.30302478912E+02 -0.36193904932E+02 -0.62018229517E+02  0.77939077329E+02  0.00000000000E+00 0.  1.
         11    1    1    2    0    0  0.33531156791E+02  0.24890908154E+01 -0.16660009211E+03  0.16995918552E+03  0.00000000000E+00 0. -1.
</event>
<event>
 7    1  0.2490079E-009  0.1302383E+03  0.7561462E-02  0.1227103E+00
         -1   -1    0    0    0  501 -0.00000000000E+00  0.00000000000E+00  0.78970984394E+02  0.78970984394E+02  0.00000000000E+00 0.  1.
          1   -1    0    0  501    0  0.00000000000E+00 -0.00000000000E+00 -0.25484540767E+03  0.25484540767E+03  0.00000000000E+00 0. -1.
         25    2    1    2    0    0  0.35603850391E+02  0.83418077439E+02 -0.82889494454E+02  0.17534114828E+03  0.12509052795E+03 0.  0.
          5    1    3    3  502    0  0.44700082276E+02  0.10730128075E+03 -0.91563804176E+02  0.14803062130E+03  0.41800000000E+01 0. -1.
         -5    1    3    3    0  502 -0.90962318845E+01 -0.23883203310E+02  0.86743097221E+01  0.27310526981E+02  0.41800000000E+01 0. -1.
        -11    1    1    2    0    0  0.24079717909E+02 -0.26209459866E+02 -0.21590656389E+01  0.35657119422E+02  0.00000000000E+00 0. -1.
         11    1    1    2    0    0 -0.59683568300E+02 -0.57208617573E+02 -0.90825863178E+02  0.12281812436E+03  0.00000000000E+00 0.  1.
</event>
<event>
 7    1  0.2490079E-009  0.1654442E+03  0.7561462E-02  0.1182684E+00
          2   -1    0    0  501    0  0.00000000000E+00  0.00000000000E+00  0.11490999348E+04  0.11490999348E+04  0.00000000000E+00 0. -1.
         -2   -1    0    0    0  501 -0.00000000000E+00 -0.00000000000E+00 -0.42735727096E+02  0.42735727096E+02  0.00000000000E+00 0.  1.
         25    2    1    2    0    0 -0.68039921710E+02  0.10901738340E+03  0.96822838865E+03  0.98469613724E+03  0.12508416881E+03 0.  0.
          5    1    3    3  502    0 -0.96374024562E+02  0.11255711613E+03  0.74452551898E+03  0.75913949826E+03  0.41800000000E+01 0. -1.
         -5    1    3    3    0  502  0.28334102852E+02 -0.35397327361E+01  0.22370286966E+03  0.22555663898E+03  0.41800000000E+01 0. -1.
        -11    1    1    2    0    0 -0.20194391255E+02 -0.18564998662E+02  0.31745273833E+02  0.41955154918E+02  0.00000000000E+00 0.  1.
         11    1    1    2    0    0  0.88234312966E+02 -0.90452384736E+02  0.10639054520E+03  0.16518436971E+03  0.00000000000E+00 0. -1.
</event>
<event>
 7    1  0.2490079E-009  0.9219830E+02  0.7561462E-02  0.1297614E+00
         -1   -1    0    0    0  501 -0.00000000000E+00  0.00000000000E+00  0.14027463055E+03  0.14027463055E+03  0.00000000000E+00 0.  1.
          1   -1    0    0  501    0  0.00000000000E+00 -0.00000000000E+00 -0.10046497303E+03  0.10046497303E+03  0.00000000000E+00 0. -1.
         25    2    1    2    0    0  0.23764135156E+02  0.26145921709E+02 -0.13556690313E+02  0.13069013225E+03  0.12509110069E+03 0.  0.
          5    1    3    3  502    0  0.68311427067E+02 -0.50305203285E+01  0.13302067561E+02  0.69901177416E+02  0.41800000000E+01 0. -1.
         -5    1    3    3    0  502 -0.44547291912E+02  0.31176442038E+02 -0.26858757873E+02  0.60788954829E+02  0.41800000000E+01 0. -1.
        -11    1    1    2    0    0  0.11188649926E+02 -0.23691225455E+02 -0.17145407537E+02  0.31311739816E+02  0.00000000000E+00 0. -1.
         11    1    1    2    0    0 -0.34952785082E+02 -0.24546962544E+01  0.70511755376E+02  0.78737731520E+02  0.00000000000E+00 0.  1.
</event>
<event>
 7    1  0.2490079E-009  0.1264437E+03  0.7561462E-02  0.1232830E+00
         -2   -1    0    0    0  501 -0.00000000000E+00  0.00000000000E+00  0.40886970206E+02  0.40886970206E+02  0.00000000000E+00 0.  1.
          2   -1    0    0  501    0  0.00000000000E+00 -0.00000000000E+00 -0.56209010570E+03  0.56209010570E+03  0.00000000000E+00 0. -1.
         25    2    1    2    0    0 -0.18872781523E+02  0.90424900879E+02 -0.17349088378E+03  0.23297647521E+03  0.12508439818E+03 0.  0.
          5    1    3    3  502    0 -0.34738230371E+02  0.11254607595E+03 -0.16746875472E+03  0.20478432574E+03  0.41800000000E+01 0.  1.
         -5    1    3    3    0  502  0.15865448849E+02 -0.22121175069E+02 -0.60221290578E+01  0.28192149474E+02  0.41800000000E+01 0.  1.
        -11    1    1    2    0    0  0.11026654925E+02  0.47374109407E+01 -0.30870487116E+01  0.12391934917E+02  0.00000000000E+00 0.  1.
         11    1    1    2    0    0  0.78461265979E+01 -0.95162311819E+02 -0.34462520300E+03  0.35760866577E+03  0.00000000000E+00 0. -1.
</event>
<event>
 7    1  0.2490079E-009  0.1343352E+03  0.7561462E-02  0.1221161E+00
          1   -1    0    0  501    0  0.00000000000E+00  0.00000000000E+00  0.95015816753E+02  0.95015816753E+02  0.00000000000E+00 0. -1.
         -1   -1    0    0    0  501 -0.00000000000E+00 -0.00000000000E+00 -0.24114897196E+03  0.24114897196E+03  0.00000000000E+00 0.  1.
         25    2    1    2    0    0 -0.73421541060E+02 -0.66986070415E+02 -0.11886492471E+03  0.19913595371E+03  0.12509357063E+03 0.  0.
          5    1    3    3  502    0 -0.21927762852E+02 -0.83733092005E+02 -0.24157742465E+02  0.89961805237E+02  0.41800000000E+01 0.  1.
         -5    1    3    3    0  502 -0.51493778208E+02  0.16747021590E+02 -0.94707182241E+02  0.10917414847E+03  0.41800000000E+01 0.  1.
        -11    1    1    2    0    0  0.22858685543E+02 -0.17809051969E+02  0.11209229653E+02  0.31069738753E+02  0.00000000000E+00 0. -1.
         11    1    1    2    0    0  0.50562855517E+02  0.84795122385E+02 -0.38477460150E+02  0.10595909625E+03  0.00000000000E+00 0.  1.
</event>
<event>
 7    1  0.2490079E-009  0.1166983E+03  0.7561462E-02  0.1248645E+00
          2   -1    0    0  501    0  0.00000000000E+00  0.00000000000E+00  0.69148114978E+03  0.69148114978E+03  0.00000000000E+00 0. -1.
         -2   -1    0    0    0  501 -0.00000000000E+00 -0.00000000000E+00 -0.26017502442E+02  0.26017502442E+02  0.00000000000E+00 0.  1.
         25    2    1    2    0    0  0.52369308391E+02  0.56599632144E+02  0.30225491118E+03  0.33608308907E+03  0.12509096133E+03 0.  0.
          5    1    3    3  502    0  0.49580710628E+02  0.81323730077E+02  0.12585665874E+03  0.15788973015E+03  0.41800000000E+01 0. -1.
         -5    1    3    3    0  502  0.27885977629E+01 -0.24724097932E+02  0.17639825245E+03  0.17819335892E+03  0.41800000000E+01 0. -1.
        -11    1    1    2    0    0 -0.72588890098E+02 -0.27995341205E+02  0.29005107519E+03  0.30030403313E+03  0.00000000000E+00 0. -1.
         11    1    1    2    0    0  0.20219581707E+02 -0.28604290940E+02  0.73157660968E+02  0.81111530024E+02  0.00000000000E+00 0.  1.
</event>
<event>
 7    1  0.2490079E-009  0.7392338E+03  0.7561462E-02  0.9652394E-01
         -2   -1    0    0    0  501 -0.00000000000E+00  0.00000000000E+00  0.26044106992E+03  0.26044106992E+03  0.00000000000E+00 0.  1.
          2   -1    0    0  501    0  0.00000000000E+00 -0.00000000000E+00 -0.21424556092E+04  0.21424556092E+04  0.00000000000E+00 0. -1.
         25    2    1    2    0    0  0.24281885491E+03 -0.69524650960E+03 -0.83957834279E+03  0.11237746438E+04  0.12509576722E+03 0.  0.
          5    1    3    3  502    0  0.14106225211E+03 -0.33842955230E+03 -0.50544381476E+03  0.62443898271E+03  0.41800000000E+01 0. -1.
         -5    1    3    3    0  502  0.10175660280E+03 -0.35681695730E+03 -0.33413452802E+03  0.49933566110E+03  0.41800000000E+01 0. -1.
        -11    1    1    2    0    0 -0.22346673549E+03  0.68091030500E+03 -0.99910306159E+03  0.12295459133E+04  0.00000000000E+00 0.  1.
         11    1    1    2    0    0 -0.19352119423E+02  0.14336204603E+02 -0.43333134874E+02  0.49576121939E+02  0.00000000000E+00 0. -1.
</event>
<event>
 7    1  0.2490079E-009  0.8571965E+02  0.7561462E-02  0.1313561E+00
          2   -1    0    0  501    0  0.00000000000E+00  0.00000000000E+00  0.14963958781E+03  0.14963958781E+03  0.00000000000E+00 0.  1.
         -2   -1    0    0    0  501 -0.00000000000E+00 -0.00000000000E+00 -0.81277621562E+02  0.81277621562E+02  0.00000000000E+00 0. -1.
         25    2    1    2    0    0  0.14940110551E+01 -0.15056210208E+02  0.50545388535E+02  0.13576190230E+03  0.12509011263E+03 0.  0.
          5    1    3    3  502    0  0.59908605621E+02 -0.13868457483E+02  0.46194496472E+02  0.77024535343E+02  0.41800000000E+01 0. -1.
         -5    1    3    3    0  502 -0.58414594566E+02 -0.11877527244E+01  0.43508920631E+01  0.58737366953E+02  0.41800000000E+01 0. -1.
        -11    1    1    2    0    0  0.20526711318E+02 -0.53435304415E+01  0.48067063103E+02  0.52538954600E+02  0.00000000000E+00 0.  1.
         11    1    1    2    0    0 -0.22020722373E+02  0.20399740649E+02 -0.30250485389E+02  0.42616352479E+02  0.00000000000E+00 0. -1.
</event>
<event>
 7    1  0.2490079E-009  0.1683537E+03  0.7561462E-02  0.1179576E+00
          2   -1    0    0  501    0  0.00000000000E+00  0.00000000000E+00  0.19470731973E+04  0.19470731973E+04  0.00000000000E+00 0. -1.
         -2   -1    0    0    0  501 -0.00000000000E+00 -0.00000000000E+00 -0.26107364378E+02  0.26107364378E+02  0.00000000000E+00 0.  1.
         25    2    1    2    0    0 -0.11705146443E+03 -0.66570599971E+02  0.16228489497E+04  0.16332234086E+04  0.12508916272E+03 0.  0.
          5    1    3    3  502    0 -0.61894298901E+02  0.24677880145E+02  0.90838337954E+03  0.91083354057E+03  0.41800000000E+01 0.  1.
         -5    1    3    3    0  502 -0.55157165528E+02 -0.91248480116E+02  0.71446557015E+03  0.72238986799E+03  0.41800000000E+01 0.  1.
        -11    1    1    2    0    0  0.14565558151E+02  0.58666936692E+02  0.10332984194E+03  0.11971224323E+03  0.00000000000E+00 0. -1.
         11    1    1    2    0    0  0.10248590628E+03  0.79036632792E+01  0.19478704132E+03  0.22024490992E+03  0.00000000000E+00 0.  1.
</event>
<event>
 7    1  0.2490079E-009  0.1325871E+03  0.7561462E-02  0.1223667E+00
          2   -1    0    0  501    0  0.00000000000E+00  0.00000000000E+00  0.58474551866E+03  0.58474551866E+03  0.00000000000E+00 0. -1.
         -2   -1    0    0    0  501 -0.00000000000E+00 -0.00000000000E+00 -0.51246568757E+02  0.51246568757E+02  0.00000000000E+00 0.  1.
         25    2    1    2    0    0 -0.28794185651E+02  0.11279939727E+03  0.15729437584E+03  0.23224871444E+03  0.12508051622E+03 0.  0.
          5    1    3    3  502    0 -0.60830591245E+02  0.83191281135E+02  0.46574266696E+02  0.11317148407E+03  0.41800000000E+01 0.  1.
         -5    1    3    3    0  502  0.32036405594E+02  0.29608116134E+02  0.11072010915E+03  0.11907723037E+03  0.41800000000E+01 0.  1.
        -11    1    1    2    0    0  0.15889786726E+02 -0.26124542467E+02  0.19119097430E+02  0.36062680541E+02  0.00000000000E+00 0.  1.
         11    1    1    2    0    0  0.12904398924E+02 -0.86674854802E+02  0.35708547663E+03  0.36768069243E+03  0.00000000000E+00 0. -1.
</event>
<event>
 7    1  0.2490079E-009  0.1104749E+03  0.7561462E-02  0.1259693E+00
         -3   -1    0    0    0  501 -0.00000000000E+00  0.00000000000E+00  0.17946962902E+03  0.17946962902E+03  0.00000000000E+00 0.  1.
          3   -1    0    0  501    0  0.00000000000E+00 -0.00000000000E+00 -0.12159069679E+03  0.12159069679E+03  0.00000000000E+00 0. -1.
         25    2    1    2    0    0  0.79872516940E+02  0.84483591624E+01 -0.28847567400E+02  0.15142040867E+03  0.12507983164E+03 0.  0.
          5    1    3    3  502    0  0.83331988082E+01 -0.40670108133E+02  0.25540703158E+02  0.48921363593E+02  0.41800000000E+01 0.  1.
         -5    1    3    3    0  502  0.71539318131E+02  0.49118467296E+02 -0.54388270558E+02  0.10249904508E+03  0.41800000000E+01 0.  1.
        -11    1    1    2    0    0 -0.47949673927E+02 -0.27395147961E+02  0.96561120098E+02  0.11123720275E+03  0.00000000000E+00 0.  1.
         11    1    1    2    0    0 -0.31922843013E+02  0.18946788799E+02 -0.98346204703E+01  0.38402714378E+02  0.00000000000E+00 0. -1.
</event>
<event>
 7    1  0.2490079E-009  0.1358205E+03  0.7561462E-02  0.1219066E+00
         -2   -1    0    0    0  501 -0.00000000000E+00  0.00000000000E+00  0.23728573382E+02  0.23728573382E+02  0.00000000000E+00 0.  1.
          2   -1    0    0  501    0  0.00000000000E+00 -0.00000000000E+00 -0.84282731154E+03  0.84282731154E+03  0.00000000000E+00 0. -1.
         25    2    1    2    0    0  0.70421965505E+02 -0.63112435109E+02 -0.41124618084E+03  0.44012792576E+03  0.12508691812E+03 0.  0.
          5    1    3    3  502    0 -0.36288698899E+02 -0.17041493488E+02 -0.96500801346E+02  0.10458087410E+03  0.41800000000E+01 0.  1.
         -5    1    3    3    0  502  0.10671066440E+03 -0.46070941621E+02 -0.31474537950E+03  0.33554705166E+03  0.41800000000E+01 0.  1.
        -11    1    1    2    0    0  0.71223770498E+00  0.40325020470E+02 -0.73548786898E+02  0.83881098065E+02  0.00000000000E+00 0.  1.
         11    1    1    2    0    0 -0.71134203210E+02  0.22787414638E+02 -0.33430377042E+03  0.34254686110E+03  0.00000000000E+00 0. -1.
</event>
<event>
 7    1  0.2490079E-009  0.9325845E+02  0.7561462E-02  0.1295147E+00
         -2   -1    0    0    0  501 -0.00000000000E+00  0.00000000000E+00  0.39391414629E+02  0.39391414629E+02  0.00000000000E+00 0.  1.
          2   -1    0    0  501    0  0.00000000000E+00 -0.00000000000E+00 -0.39523924671E+03  0.39523924671E+03  0.00000000000E+00 0. -1.
         25    2    1    2    0    0  0.46408176829E+02  0.38014407973E+02 -0.16686083479E+03  0.21699848121E+03  0.12508792337E+03 0.  0.
          5    1    3    3  502    0  0.57788564287E+02  0.11309084345E+02 -0.13104444890E+02  0.60469929940E+02  0.41800000000E+01 0.  1.
         -5    1    3    3    0  502 -0.11380387458E+02  0.26705323629E+02 -0.15375638990E+03  0.15652855127E+03  0.41800000000E+01 0.  1.
        -11    1    1    2    0    0 -0.55320614893E+02  0.37530190491E+01 -0.14956127370E+03  0.15950871505E+03  0.00000000000E+00 0. -1.
         11    1    1    2    0    0  0.89124380646E+01 -0.41767427022E+02 -0.39425723587E+02  0.58123465078E+02  0.00000000000E+00 0.  1.
</event>
<event>
 7    1  0.2490079E-009  0.1613731E+03  0.7561462E-02  0.1187155E+00
          2   -1    0    0  501    0  0.00000000000E+00  0.00000000000E+00  0.16731769994E+04  0.16731769994E+04  0.00000000000E+00 0. -1.
         -2   -1    0    0    0  501 -0.00000000000E+00 -0.00000000000E+00 -0.19813720144E+02  0.19813720144E+02  0.00000000000E+00 0.  1.
         25    2    1    2    0    0 -0.10914802367E+03 -0.66699224429E+02  0.11953953165E+04  0.12087115138E+04  0.12510588767E+03 0.  0.
          5    1    3    3  502    0 -0.81916926972E+02  0.15233509978E+02  0.39832289831E+03  0.40696565760E+03  0.41800000000E+01 0. -1.
         -5    1    3    3    0  502 -0.27231096700E+02 -0.81932734407E+02  0.79707241822E+03  0.80174585617E+03  0.41800000000E+01 0. -1.
        -11    1    1    2    0    0  0.50919734546E+02 -0.14515011412E+02  0.10734007919E+03  0.11968875270E+03  0.00000000000E+00 0.  1.
         11    1    1    2    0    0  0.58228289125E+02  0.81214235840E+02  0.35062788350E+03  0.36459045303E+03  0.00000000000E+00 0. -1.
</event>
<event>
 7    1  0.2490079E-009  0.8850153E+02  0.7561462E-02  0.1306522E+00
         -2   -1    0    0    0  501 -0.00000000000E+00  0.00000000000E+00  0.30718026976E+02  0.30718026976E+02  0.00000000000E+00 0.  1.
          2   -1    0    0  501    0  0.00000000000E+00 -0.00000000000E+00 -0.45437004852E+03  0.45437004852E+03  0.00000000000E+00 0. -1.
         25    2    1    2    0    0  0.47951437827E+02  0.23713181568E+02 -0.22124614617E+03  0.25972328741E+03  0.12507866908E+03 0.  0.
          5    1    3    3  502    0  0.33603839592E+02 -0.17470114747E+02 -0.42400522614E+01  0.38338927838E+02  0.41800000000E+01 0. -1.
         -5    1    3    3    0  502  0.14347598235E+02  0.41183296314E+02 -0.21700609391E+03  0.22138435957E+03  0.41800000000E+01 0. -1.
        -11    1    1    2    0    0  0.19665298490E+02  0.69320680176E+01 -0.75635681630E+02  0.78457210423E+02  0.00000000000E+00 0. -1.
         11    1    1    2    0    0 -0.67616736317E+02 -0.30645249585E+02 -0.12677019374E+03  0.14690757766E+03  0.00000000000E+00 0.  1.
</event>
<event>
 7    1  0.2490079E-009  0.1086050E+03  0.7561462E-02  0.1263175E+00
         -1   -1    0    0    0  501 -0.00000000000E+00  0.00000000000E+00  0.91804677347E+02  0.91804677347E+02  0.00000000000E+00 0.  1.
          1   -1    0    0  501    0  0.00000000000E+00 -0.00000000000E+00 -0.18703648350E+03  0.18703648350E+03  0.00000000000E+00 0. -1.
         25    2    1    2    0    0 -0.48438002067E+02 -0.15638546770E+01 -0.11201652383E+03  0.17476661049E+03  0.12508789249E+03 0.  0.
          5    1    3    3  502    0 -0.82068144715E+02 -0.21799910731E+02 -0.43029545444E+02  0.95286046544E+02  0.41800000000E+01 0.  1.
         -5    1    3    3    0  502  0.33630142648E+02  0.20236056054E+02 -0.68986978384E+02  0.79480563949E+02  0.41800000000E+01 0.  1.
        -11    1    1    2    0    0  0.67780618369E+02 -0.12347926138E+02  0.31832480142E+02  0.75894599929E+02  0.00000000000E+00 0.  1.
         11    1    1    2    0    0 -0.19342616301E+02  0.13911780815E+02 -0.15047762470E+02  0.28179950429E+02  0.00000000000E+00 0. -1.
</event>
<event>
 7    1  0.2490079E-009  0.1118411E+03  0.7561462E-02  0.1257198E+00
         -1   -1    0    0    0  501 -0.00000000000E+00  0.00000000000E+00  0.46050522914E+02  0.46050522914E+02  0.00000000000E+00 0.  1.
          1   -1    0    0  501    0  0.00000000000E+00 -0.00000000000E+00 -0.56700383497E+03  0.56700383497E+03  0.00000000000E+00 0. -1.
         25    2    1    2    0    0  0.95610203711E+02  0.51374272715E+02 -0.18300280289E+03  0.24681618562E+03  0.12509027407E+03 0.  0.
          5    1    3    3  502    0  0.41481034174E+02  0.39212377181E+02 -0.17977871533E+01  0.57262476011E+02  0.41800000000E+01 0.  1.
         -5    1    3    3    0  502  0.54129169537E+02  0.12161895535E+02 -0.18120501574E+03  0.18955370961E+03  0.41800000000E+01 0.  1.
        -11    1    1    2    0    0 -0.12663400186E+02  0.10180549386E+01  0.15942700584E+01  0.12803899294E+02  0.00000000000E+00 0.  1.
         11    1    1    2    0    0 -0.82946803525E+02 -0.52392327654E+02 -0.33954477922E+03  0.35343427296E+03  0.00000000000E+00 0. -1.
</event>
<event>
 7    1  0.2490079E-009  0.2268037E+03  0.7561462E-02  0.1128910E+00
          4   -1    0    0  501    0  0.00000000000E+00  0.00000000000E+00  0.37978383070E+03  0.37978383070E+03  0.00000000000E+00 0. -1.
         -4   -1    0    0    0  501 -0.00000000000E+00 -0.00000000000E+00 -0.29437372316E+03  0.29437372316E+03  0.00000000000E+00 0.  1.
         25    2    1    2    0    0 -0.14358517578E+03  0.15280184681E+03  0.28159671406E+03  0.37270484042E+03  0.12508829528E+03 0.  0.
          5    1    3    3  502    0 -0.25793823784E+01  0.84264280652E+02  0.72121260799E+02  0.11102283939E+03  0.41800000000E+01 0. -1.
         -5    1    3    3    0  502 -0.14100579340E+03  0.68537566155E+02  0.20947545326E+03  0.26168200103E+03  0.41800000000E+01 0. -1.
        -11    1    1    2    0    0  0.12197335866E+03 -0.10925926200E+03 -0.95299991524E+02  0.18946549802E+03  0.00000000000E+00 0. -1.
         11    1    1    2    0    0  0.21611817121E+02 -0.43542584809E+02 -0.10088661500E+03  0.11198721542E+03  0.00000000000E+00 0.  1.
</event>
<event>
 7    1  0.2490079E-009  0.1035487E+03  0.7561462E-02  0.1273006E+00
         -1   -1    0    0    0  501 -0.00000000000E+00  0.00000000000E+00  0.54788998818E+02  0.54788998818E+02  0.00000000000E+00 0.  1.
          1   -1    0    0  501    0  0.00000000000E+00 -0.00000000000E+00 -0.39949721812E+03  0.39949721812E+03  0.00000000000E+00 0. -1.
         25    2    1    2    0    0  0.42962275806E+02  0.71662446759E+02 -0.10246177744E+03  0.18200794828E+03  0.12508882438E+03 0.  0.
          5    1    3    3  502    0  0.42121265465E+01  0.80114225374E+02 -0.95508042741E+01  0.80899452282E+02  0.41800000000E+01 0.  1.
         -5    1    3    3    0  502  0.38750149259E+02 -0.84517786143E+01 -0.92910973164E+02  0.10110849600E+03  0.41800000000E+01 0.  1.
        -11    1    1    2    0    0 -0.93388511570E+01 -0.38650155993E+02 -0.18918855299E+02  0.44033757335E+02  0.00000000000E+00 0.  1.
         11    1    1    2    0    0 -0.33623424649E+02 -0.33012290767E+02 -0.22332758656E+03  0.22824451132E+03  0.00000000000E+00 0. -1.
</event>
<event>
 7    1  0.2490079E-009  0.5950626E+02  0.7561462E-02  0.1399915E+00
          1   -1    0    0  501    0  0.00000000000E+00  0.00000000000E+00  0.40825677239E+03  0.40825677239E+03  0.00000000000E+00 0. -1.
         -1   -1    0    0    0  501 -0.00000000000E+00 -0.00000000000E+00 -0.32209562975E+02  0.32209562975E+02  0.00000000000E+00 0.  1.
         25    2    1    2    0    0  0.29523419803E+02  0.23042507497E+02  0.21233475164E+03  0.24927475862E+03  0.12509703858E+03 0.  0.
          5    1    3    3  502    0  0.81235930562E+01  0.40295881533E+02  0.21715876916E+03  0.22105464088E+03  0.41800000000E+01 0.  1.
         -5    1    3    3    0  502  0.21399826747E+02 -0.17253374036E+02 -0.48240175134E+01  0.28220117743E+02  0.41800000000E+01 0.  1.
        -11    1    1    2    0    0 -0.16829517830E+01 -0.21963464380E+02 -0.29427026325E+01  0.22223536916E+02  0.00000000000E+00 0.  1.
         11    1    1    2    0    0 -0.27840468020E+02 -0.10790431170E+01  0.16665516040E+03  0.16896803982E+03  0.00000000000E+00 0. -1.
</event>
<event>
 7    1  0.2490079E-009  0.1238283E+03  0.7561462E-02  0.1236912E+00
         -2   -1    0    0    0  501 -0.00000000000E+00  0.00000000000E+00  0.15237958467E+03  0.15237958467E+03  0.00000000000E+00 0. -1.
          2   -1    0    0  501    0  0.00000000000E+00 -0.00000000000E+00 -0.16581202370E+03  0.16581202370E+03  0.00000000000E+00 0.  1.
         25    2    1    2    0    0  0.59902757509E+01  0.10010705733E+03  0.53158151874E+02  0.16890992347E+03  0.12508983493E+03 0.  0.
          5    1    3    3  502    0  0.56468954474E+02  0.53372531826E+02  0.61912167783E+02  0.99438216459E+02  0.41800000000E+01 0.  1.
         -5    1    3    3    0  502 -0.50478678723E+02  0.46734525505E+02 -0.87540159096E+01  0.69471707006E+02  0.41800000000E+01 0.  1.
        -11    1    1    2    0    0 -0.94003036658E+01 -0.75802179023E+02 -0.88132181773E+02  0.11662597274E+03  0.00000000000E+00 0.  1.
         11    1    1    2    0    0  0.34100279148E+01 -0.24304878308E+02  0.21541590863E+02  0.32655712163E+02  0.00000000000E+00 0. -1.
</event>
<event>
 7    1  0.2490079E-009  0.1176411E+03  0.7561462E-02  0.1247040E+00
          2   -1    0    0  501    0  0.00000000000E+00  0.00000000000E+00  0.39446709346E+03  0.39446709346E+03  0.00000000000E+00 0. -1.
         -2   -1    0    0    0  501 -0.00000000000E+00 -0.00000000000E+00 -0.43872088212E+02  0.43872088212E+02  0.00000000000E+00 0.  1.
         25    2    1    2    0    0  0.48143037638E+02  0.65540850134E+02  0.20897166571E+03  0.25676801550E+03  0.12508917462E+03 0.  0.
          5    1    3    3  502    0  0.26844899838E+02  0.98701136104E+02  0.18204239275E+03  0.20885274256E+03  0.41800000000E+01 0. -1.
         -5    1    3    3    0  502  0.21298137800E+02 -0.33160285970E+02  0.26929272963E+02  0.47915272948E+02  0.41800000000E+01 0. -1.
        -11    1    1    2    0    0 -0.56252595616E+02 -0.47980323034E+02  0.53274663578E+02  0.91129883635E+02  0.00000000000E+00 0.  1.
         11    1    1    2    0    0  0.81095579783E+01 -0.17560527100E+02  0.88348675955E+02  0.90441282530E+02  0.00000000000E+00 0. -1.
</event>
<event>
 7    1  0.2490079E-009  0.3419895E+03  0.7561462E-02  0.1065952E+00
          1   -1    0    0  501    0  0.00000000000E+00  0.00000000000E+00  0.80441021977E+03  0.80441021977E+03  0.00000000000E+00 0. -1.
         -1   -1    0    0    0  501 -0.00000000000E+00 -0.00000000000E+00 -0.15157690174E+03  0.15157690174E+03  0.00000000000E+00 0.  1.
         25    2    1    2    0    0 -0.32676511874E+03  0.12622315825E+02  0.40698044083E+03  0.53685709254E+03  0.12509073873E+03 0.  0.
          5    1    3    3  502    0 -0.36274639551E+02  0.40117302770E+02  0.96922473620E+02  0.11107063405E+03  0.41800000000E+01 0. -1.
         -5    1    3    3    0  502 -0.29049047919E+03 -0.27494986945E+02  0.31005796721E+03  0.42578645849E+03  0.41800000000E+01 0. -1.
        -11    1    1    2    0    0  0.16306009577E+03  0.36305579463E+02  0.10163692358E+03  0.19554220559E+03  0.00000000000E+00 0.  1.
         11    1    1    2    0    0  0.16370502297E+03 -0.48927895288E+02  0.14421595362E+03  0.22358782338E+03  0.00000000000E+00 0. -1.
</event>
<event>
 7    1  0.2490079E-009  0.1103605E+03  0.7561462E-02  0.1259904E+00
          2   -1    0    0  501    0  0.00000000000E+00  0.00000000000E+00  0.12226008855E+03  0.12226008855E+03  0.00000000000E+00 0. -1.
         -2   -1    0    0    0  501 -0.00000000000E+00 -0.00000000000E+00 -0.12621555017E+03  0.12621555017E+03  0.00000000000E+00 0.  1.
         25    2    1    2    0    0  0.12448405043E+02 -0.57627412896E+02 -0.17187954611E+02  0.13935013897E+03  0.12508858438E+03 0.  0.
          5    1    3    3  502    0  0.62810744030E+02 -0.39771028521E+02  0.16201791749E+02  0.76202983741E+02  0.41800000000E+01 0.  1.
         -5    1    3    3    0  502 -0.50362338987E+02 -0.17856384376E+02 -0.33389746361E+02  0.63147155227E+02  0.41800000000E+01 0.  1.
        -11    1    1    2    0    0  0.29945746374E+02  0.27468417984E+02 -0.22079236987E+02  0.46246669268E+02  0.00000000000E+00 0.  1.
         11    1    1    2    0    0 -0.42394151417E+02  0.30158994912E+02  0.35311729980E+02  0.62878830481E+02  0.00000000000E+00 0. -1.
</event>
<event>
 7    1  0.2490079E-009  0.1038646E+03  0.7561462E-02  0.1272373E+00
         -2   -1    0    0    0  501 -0.00000000000E+00  0.00000000000E+00  0.22369976862E+02  0.22369976862E+02  0.00000000000E+00 0.  1.
          2   -1    0    0  501    0  0.00000000000E+00 -0.00000000000E+00 -0.65786177467E+03  0.65786177467E+03  0.00000000000E+00 0. -1.
         25    2    1    2    0    0 -0.47746491747E+02 -0.18658432135E+02 -0.38591661761E+03  0.40891036364E+03  0.12509270632E+03 0.  0.
          5    1    3    3  502    0  0.57482585718E+01 -0.44695805482E+02 -0.30526656867E+03  0.30860315594E+03  0.41800000000E+01 0. -1.
         -5    1    3    3    0  502 -0.53494750319E+02  0.26037373347E+02 -0.80650048942E+02  0.10030720770E+03  0.41800000000E+01 0. -1.
        -11    1    1    2    0    0  0.58383172203E+01 -0.34583881378E+02 -0.54466275774E+02  0.64781988205E+02  0.00000000000E+00 0.  1.
         11    1    1    2    0    0  0.41908174527E+02  0.53242313513E+02 -0.19510890442E+03  0.20653939969E+03  0.00000000000E+00 0. -1.
</event>
<event>
 7    1  0.2490079E-009  0.1492564E+03  0.7561462E-02  0.1201390E+00
          2   -1    0    0  501    0  0.00000000000E+00  0.00000000000E+00  0.98975721441E+02  0.98975721441E+02  0.00000000000E+00 0. -1.
         -2   -1    0    0    0  501 -0.00000000000E+00 -0.00000000000E+00 -0.25398530871E+03  0.25398530871E+03  0.00000000000E+00 0.  1.
         25    2    1    2    0    0 -0.27100792069E+02  0.97480829766E+02 -0.26285309404E+02  0.16303506315E+03  0.12511014836E+03 0.  0.
          5    1    3    3  502    0  0.10627958837E+02 -0.26959675842E+02  0.37320540990E+01  0.29515728999E+02  0.41800000000E+01 0. -1.
         -5    1    3    3    0  502 -0.37728750905E+02  0.12444050561E+03 -0.30017363503E+02  0.13351933415E+03  0.41800000000E+01 0. -1.
        -11    1    1    2    0    0  0.52913956592E+02 -0.10006120875E+03 -0.98051696792E+02  0.14975402346E+03  0.00000000000E+00 0. -1.
         11    1    1    2    0    0 -0.25813164523E+02  0.25803789813E+01 -0.30672581077E+02  0.40171943547E+02  0.00000000000E+00 0.  1.
</event>
<event>
 7    1  0.2490079E-009  0.1780654E+03  0.7561462E-02  0.1169689E+00
          2   -1    0    0  501    0  0.00000000000E+00  0.00000000000E+00  0.10069973479E+04  0.10069973479E+04  0.00000000000E+00 0. -1.
         -2   -1    0    0    0  501 -0.00000000000E+00 -0.00000000000E+00 -0.66499860060E+02  0.66499860060E+02  0.00000000000E+00 0.  1.
         25    2    1    2    0    0  0.30521395461E+02  0.13858923382E+03  0.87097053099E+03  0.89127843108E+03  0.12509614125E+03 0.  0.
          5    1    3    3  502    0  0.47180814023E+02 -0.68307355903E+00  0.27159304367E+03  0.27569321640E+03  0.41800000000E+01 0.  1.
         -5    1    3    3    0  502 -0.16659418562E+02  0.13927230737E+03  0.59937748732E+03  0.61558521468E+03  0.41800000000E+01 0.  1.
        -11    1    1    2    0    0 -0.46950272865E+02 -0.14374162740E+03  0.62350998646E+02  0.16356537104E+03  0.00000000000E+00 0.  1.
         11    1    1    2    0    0  0.16428877404E+02  0.51523935869E+01  0.71759581718E+01  0.18653405805E+02  0.00000000000E+00 0. -1.
</event>
<event>
 7    1  0.2490079E-009  0.1251345E+03  0.7561462E-02  0.1234859E+00
         -2   -1    0    0    0  501 -0.00000000000E+00  0.00000000000E+00  0.14125226762E+03  0.14125226762E+03  0.00000000000E+00 0.  1.
          2   -1    0    0  501    0  0.00000000000E+00 -0.00000000000E+00 -0.12098794080E+03  0.12098794080E+03  0.00000000000E+00 0. -1.
         25    2    1    2    0    0 -0.20116599846E+02 -0.67775862317E+02  0.31396407650E+02  0.14707190088E+03  0.12508462940E+03 0.  0.
          5    1    3    3  502    0 -0.72320631758E+02 -0.50754090655E+02  0.22735976897E+02  0.91327151174E+02  0.41800000000E+01 0. -1.
         -5    1    3    3    0  502  0.52204031912E+02 -0.17021771663E+02  0.86604307533E+01  0.55744749701E+02  0.41800000000E+01 0. -1.
        -11    1    1    2    0    0  0.51278429865E+02  0.40688855988E+02  0.13850591456E+02  0.66909634992E+02  0.00000000000E+00 0.  1.
         11    1    1    2    0    0 -0.31161830019E+02  0.27087006329E+02 -0.24982672283E+02  0.48258672551E+02  0.00000000000E+00 0. -1.
</event>
<event>
 7    1  0.2490079E-009  0.1099696E+03  0.7561462E-02  0.1260626E+00
         -2   -1    0    0    0  501 -0.00000000000E+00  0.00000000000E+00  0.44073104133E+02  0.44073104133E+02  0.00000000000E+00 0.  1.
          2   -1    0    0  501    0  0.00000000000E+00 -0.00000000000E+00 -0.34622833497E+03  0.34622833497E+03  0.00000000000E+00 0. -1.
         25    2    1    2    0    0  0.46093556724E+02  0.28282748727E+02 -0.13066478886E+03  0.18879534922E+03  0.12508344012E+03 0.  0.
          5    1    3    3  502    0  0.33272888981E+02 -0.46871934553E+02 -0.39454021602E+02  0.69843794359E+02  0.41800000000E+01 0. -1.
         -5    1    3    3    0  502  0.12820667743E+02  0.75154683280E+02 -0.91210767263E+02  0.11895155487E+03  0.41800000000E+01 0. -1.
        -11    1    1    2    0    0  0.16646989259E+02 -0.13648427027E+02 -0.11122097902E+03  0.11328507398E+03  0.00000000000E+00 0. -1.
         11    1    1    2    0    0 -0.62740545983E+02 -0.14634321700E+02 -0.60269462946E+02  0.88221015896E+02  0.00000000000E+00 0.  1.
</event>
<event>
 7    1  0.2490079E-009  0.1597743E+03  0.7561462E-02  0.1188952E+00
         -1   -1    0    0    0  501 -0.00000000000E+00  0.00000000000E+00  0.24924904877E+03  0.24924904877E+03  0.00000000000E+00 0.  1.
          1   -1    0    0  501    0  0.00000000000E+00 -0.00000000000E+00 -0.16676421792E+03  0.16676421792E+03  0.00000000000E+00 0. -1.
         25    2    1    2    0    0 -0.12883589598E+03 -0.59903698016E+02  0.14099352391E+03  0.23603838920E+03  0.12509119179E+03 0.  0.
          5    1    3    3  502    0 -0.13008124716E+03 -0.46679740767E+02  0.16064486952E+03  0.21195371089E+03  0.41800000000E+01 0. -1.
         -5    1    3    3    0  502  0.12453511735E+01 -0.13223957250E+02 -0.19651345610E+02  0.24084678307E+02  0.41800000000E+01 0. -1.
        -11    1    1    2    0    0  0.37636455957E+02 -0.23000365088E+02 -0.13816748867E+01  0.44129679770E+02  0.00000000000E+00 0.  1.
         11    1    1    2    0    0  0.91199440027E+02  0.82904063104E+02 -0.57127018169E+02  0.13584519773E+03  0.00000000000E+00 0. -1.
</event>
<event>
 7    1  0.2490079E-009  0.1079442E+03  0.7561462E-02  0.1264425E+00
          2   -1    0    0  501    0  0.00000000000E+00  0.00000000000E+00  0.12382005680E+04  0.12382005680E+04  0.00000000000E+00 0. -1.
         -2   -1    0    0    0  501 -0.00000000000E+00 -0.00000000000E+00 -0.12616667014E+02  0.12616667014E+02  0.00000000000E+00 0.  1.
         25    2    1    2    0    0 -0.16194280133E+02  0.38646676343E+02  0.89722243051E+03  0.90686876696E+03  0.12508817037E+03 0.  0.
          5    1    3    3  502    0  0.47562607290E+02  0.25349241408E+02  0.22146139413E+03  0.22796360925E+03  0.41800000000E+01 0.  1.
         -5    1    3    3    0  502 -0.63756887422E+02  0.13297434935E+02  0.67576103639E+03  0.67890515771E+03  0.41800000000E+01 0.  1.
        -11    1    1    2    0    0 -0.32951933857E+02  0.16791604545E+01  0.17238059148E+03  0.17550987962E+03  0.00000000000E+00 0. -1.
         11    1    1    2    0    0  0.49146213990E+02 -0.40325836798E+02  0.15598087899E+03  0.16843858843E+03  0.00000000000E+00 0.  1.
</event>
<event>
 7    1  0.2490079E-009  0.1082789E+03  0.7561462E-02  0.1263791E+00
         -2   -1    0    0    0  501 -0.00000000000E+00  0.00000000000E+00  0.29157432231E+02  0.29157432231E+02  0.00000000000E+00 0.  1.
          2   -1    0    0  501    0  0.00000000000E+00 -0.00000000000E+00 -0.85287672609E+03  0.85287672609E+03  0.00000000000E+00 0. -1.
         25    2    1    2    0    0  0.82648897808E+02  0.27923264392E+02 -0.64818700088E+03  0.66588622442E+03  0.12509007454E+03 0.  0.
          5    1    3    3  502    0  0.91806005885E+02  0.47415426637E+02 -0.30609664701E+03  0.32309316785E+03  0.41800000000E+01 0.  1.
         -5    1    3    3    0  502 -0.91571080766E+01 -0.19492162245E+02 -0.34209035388E+03  0.34279305657E+03  0.41800000000E+01 0.  1.
        -11    1    1    2    0    0 -0.35597015041E+02 -0.26064688966E+02 -0.16089865204E+03  0.16683792051E+03  0.00000000000E+00 0. -1.
         11    1    1    2    0    0 -0.47051882767E+02 -0.18585754259E+01 -0.14633640937E+02  0.49310013401E+02  0.00000000000E+00 0.  1.
</event>
<event>
 7    1  0.2490079E-009  0.1051700E+03  0.7561462E-02  0.1269785E+00
         -1   -1    0    0    0  501 -0.00000000000E+00  0.00000000000E+00  0.28329711236E+02  0.28329711236E+02  0.00000000000E+00 0.  1.
          1   -1    0    0  501    0  0.00000000000E+00 -0.00000000000E+00 -0.68891342623E+03  0.68891342623E+03  0.00000000000E+00 0. -1.
         25    2    1    2    0    0 -0.86832262939E+02 -0.64470677911E+01 -0.35577372621E+03  0.38704407170E+03  0.12508702013E+03 0.  0.
          5    1    3    3  502    0 -0.44757692570E+02 -0.15570831224E+01 -0.21114045531E+02  0.49688538625E+02  0.41800000000E+01 0. -1.
         -5    1    3    3    0  502 -0.42074570369E+02 -0.48899846687E+01 -0.33465968068E+03  0.33735553307E+03  0.41800000000E+01 0. -1.
        -11    1    1    2    0    0  0.10393293737E+03  0.12444345335E+02 -0.28360399508E+03  0.30230471915E+03  0.00000000000E+00 0. -1.
         11    1    1    2    0    0 -0.17100674428E+02 -0.59972775440E+01 -0.21205993709E+02  0.27894346614E+02  0.00000000000E+00 0.  1.
</event>
<event>
 7    1  0.3630939E-009  0.1576564E+03  0.7561462E-02  0.1191368E+00
         -2   -1    0    0    0  501 -0.00000000000E+00  0.00000000000E+00  0.26046853830E+02  0.26046853830E+02  0.00000000000E+00 0.  1.
          2   -1    0    0  501    0  0.00000000000E+00 -0.00000000000E+00 -0.11283848815E+04  0.11283848815E+04  0.00000000000E+00 0. -1.
         25    2    1    2    0    0 -0.55504669595E+02  0.10896231859E+03 -0.41605033747E+03  0.45133264292E+03  0.12509882509E+03 0.  0.
          5    1    3    3  502    0 -0.50404927106E+02  0.13165873670E+03 -0.28298421612E+03  0.31618383671E+03  0.41800000000E+01 0.  1.
         -5    1    3    3    0  502 -0.50997424887E+01 -0.22696418110E+02 -0.13306612135E+03  0.13514880621E+03  0.41800000000E+01 0.  1.
        -11    1    1    2    0    0 -0.20965856828E+02 -0.49542082520E+02 -0.30482177532E+03  0.30953238894E+03  0.00000000000E+00 0. -1.
         11    1    1    2    0    0  0.76470526423E+02 -0.59420236068E+02 -0.38146591491E+03  0.39356670350E+03  0.00000000000E+00 0.  1.
</event>
<event>
 7    1  0.2490079E-009  0.8460514E+02  0.7561462E-02  0.1316468E+00
          1   -1    0    0  501    0  0.00000000000E+00  0.00000000000E+00  0.32833959584E+03  0.32833959584E+03  0.00000000000E+00 0. -1.
         -1   -1    0    0    0  501 -0.00000000000E+00 -0.00000000000E+00 -0.38679868084E+02  0.38679868084E+02  0.00000000000E+00 0.  1.
         25    2    1    2    0    0  0.19761159243E+02 -0.13025332517E+02  0.13393831712E+03  0.18478926447E+03  0.12508971488E+03 0.  0.
          5    1    3    3  502    0  0.48271935317E+02  0.30622425361E+02  0.11618889927E+03  0.12955788431E+03  0.41800000000E+01 0. -1.
         -5    1    3    3    0  502 -0.28510776074E+02 -0.43647757878E+02  0.17749417850E+02  0.55231380158E+02  0.41800000000E+01 0. -1.
        -11    1    1    2    0    0  0.11854940709E+02  0.23469616842E+02  0.36376632962E+01  0.26544210822E+02  0.00000000000E+00 0.  1.
         11    1    1    2    0    0 -0.31616099952E+02 -0.10444284325E+02  0.15208374734E+03  0.15568598863E+03  0.00000000000E+00 0. -1.
</event>
<event>
 7    1  0.2490079E-009  0.1127216E+03  0.7561462E-02  0.1255611E+00
         -2   -1    0    0    0  501 -0.00000000000E+00  0.00000000000E+00  0.17945331670E+02  0.17945331670E+02  0.00000000000E+00 0.  1.
          2   -1    0    0  501    0  0.00000000000E+00 -0.00000000000E+00 -0.10923888619E+04  0.10923888619E+04  0.00000000000E+00 0. -1.
         25    2    1    2    0    0 -0.17432962299E+02 -0.45479845810E+02 -0.88161698758E+03  0.89177809005E+03  0.12508926637E+03 0.  0.
          5    1    3    3  502    0  0.50315687940E+02 -0.25407816897E+02 -0.25575608156E+03  0.26192722513E+03  0.41800000000E+01 0. -1.
         -5    1    3    3    0  502 -0.67748650239E+02 -0.20072028913E+02 -0.62586090602E+03  0.62985086492E+03  0.41800000000E+01 0. -1.
        -11    1    1    2    0    0  0.44540720271E+02 -0.75022764774E+00 -0.12100010675E+03  0.12893977058E+03  0.00000000000E+00 0. -1.
         11    1    1    2    0    0 -0.27107757972E+02  0.46230073458E+02 -0.71826435882E+02  0.89616332918E+02  0.00000000000E+00 0.  1.
</event>
<event>
 7    1  0.4604339E-009  0.8842256E+02  0.7561462E-02  0.1306717E+00
          1   -1    0    0  501    0  0.00000000000E+00  0.00000000000E+00  0.77943023491E+03  0.77943023491E+03  0.00000000000E+00 0. -1.
         -1   -1    0    0    0  501 -0.00000000000E+00 -0.00000000000E+00 -0.21464742605E+02  0.21464742605E+02  0.00000000000E+00 0.  1.
         25    2    1    2    0    0  0.29113202794E+02  0.36550807174E+02  0.58135369142E+03  0.59649086535E+03  0.12508276395E+03 0.  0.
          5    1    3    3  502    0  0.55238145169E+02  0.48700160329E+02  0.54475071805E+03  0.54972154362E+03  0.41800000000E+01 0.  1.
         -5    1    3    3    0  502 -0.26124942375E+02 -0.12149353155E+02  0.36602973368E+02  0.46769321735E+02  0.41800000000E+01 0.  1.
        -11    1    1    2    0    0 -0.88591820301E+01  0.15648046008E+02 -0.11641404972E+01  0.18019480381E+02  0.00000000000E+00 0.  1.
         11    1    1    2    0    0 -0.20254020764E+02 -0.52198853182E+02  0.17777594138E+03  0.18638463178E+03  0.00000000000E+00 0. -1.
</event>
<event>
 7    1  0.2490079E-009  0.1285501E+03  0.7561462E-02  0.1229623E+00
         -2   -1    0    0    0  501 -0.00000000000E+00  0.00000000000E+00  0.21965580728E+03  0.21965580728E+03  0.00000000000E+00 0.  1.
          2   -1    0    0  501    0  0.00000000000E+00 -0.00000000000E+00 -0.97731192219E+02  0.97731192219E+02  0.00000000000E+00 0. -1.
         25    2    1    2    0    0 -0.24416787900E+02  0.76338289149E+02  0.12529566898E+03  0.19434245431E+03  0.12508505491E+03 0.  0.
          5    1    3    3  502    0  0.41176176161E+02  0.48903791098E+02  0.19801298291E+02  0.67056857077E+02  0.41800000000E+01 0.  1.
         -5    1    3    3    0  502 -0.65592964062E+02  0.27434498051E+02  0.10549437069E+03  0.12728559724E+03  0.41800000000E+01 0.  1.
        -11    1    1    2    0    0  0.28655626271E+02  0.13638121842E+02  0.66114460996E+01  0.32416886092E+02  0.00000000000E+00 0.  1.
         11    1    1    2    0    0 -0.42388383709E+01 -0.89976410992E+02 -0.99825000176E+01  0.90627659091E+02  0.00000000000E+00 0. -1.
</event>
<event>
 7    1  0.2490079E-009  0.2738685E+03  0.7561462E-02  0.1099086E+00
          2   -1    0    0  501    0  0.00000000000E+00  0.00000000000E+00  0.29628481728E+03  0.29628481728E+03  0.00000000000E+00 0. -1.
         -2   -1    0    0    0  501 -0.00000000000E+00 -0.00000000000E+00 -0.27531067288E+03  0.27531067288E+03  0.00000000000E+00 0.  1.
         25    2    1    2    0    0 -0.24043257296E+03  0.98057225354E+02 -0.35323237881E+02  0.29037553557E+03  0.12508868429E+03 0.  0.
          5    1    3    3  502    0 -0.84060076978E+02 -0.20437640240E+02 -0.36861231372E+02  0.94127660432E+02  0.41800000000E+01 0.  1.
         -5    1    3    3    0  502 -0.15637249598E+03  0.11849486559E+03  0.15379934917E+01  0.19624787514E+03  0.41800000000E+01 0.  1.
        -11    1    1    2    0    0  0.14831269907E+03 -0.32532973242E+02 -0.63568950801E+01  0.15197190914E+03  0.00000000000E+00 0.  1.
         11    1    1    2    0    0  0.92119873893E+02 -0.65524252111E+02  0.62654277370E+02  0.12924804545E+03  0.00000000000E+00 0. -1.
</event>
<event>
 7    1  0.2490079E-009  0.2284827E+03  0.7561462E-02  0.1127712E+00
         -2   -1    0    0    0  501 -0.00000000000E+00  0.00000000000E+00  0.11462186296E+03  0.11462186296E+03  0.00000000000E+00 0.  1.
          2   -1    0    0  501    0  0.00000000000E+00 -0.00000000000E+00 -0.55591630341E+03  0.55591630341E+03  0.00000000000E+00 0. -1.
         25    2    1    2    0    0  0.18371650098E+03  0.11451644981E+03 -0.31844276308E+03  0.40486326052E+03  0.12507076537E+03 0.  0.
          5    1    3    3  502    0  0.85728928234E+02  0.81839456835E+02 -0.26080758752E+03  0.28650517611E+03  0.41800000000E+01 0. -1.
         -5    1    3    3    0  502  0.97987572748E+02  0.32676992976E+02 -0.57635175561E+02  0.11835808441E+03  0.41800000000E+01 0. -1.
        -11    1    1    2    0    0 -0.98010504068E+02 -0.80840352929E+01 -0.60578107056E+02  0.11550375573E+03  0.00000000000E+00 0.  1.
         11    1    1    2    0    0 -0.85705996914E+02 -0.10643241452E+03 -0.62273570314E+02  0.15017115011E+03  0.00000000000E+00 0. -1.
</event>
<event>
 7    1  0.2490079E-009  0.1293901E+03  0.7561462E-02  0.1228364E+00
          1   -1    0    0  501    0  0.00000000000E+00  0.00000000000E+00  0.60644375196E+02  0.60644375196E+02  0.00000000000E+00 0. -1.
         -1   -1    0    0    0  501 -0.00000000000E+00 -0.00000000000E+00 -0.36380311194E+03  0.36380311194E+03  0.00000000000E+00 0.  1.
         25    2    1    2    0    0 -0.75662265893E+02 -0.39016701781E+02 -0.18341287964E+03  0.23777477313E+03  0.12509786896E+03 0.  0.
          5    1    3    3  502    0  0.33897650446E+02 -0.11789100808E+02 -0.28361803565E+02  0.45933624994E+02  0.41800000000E+01 0.  1.
         -5    1    3    3    0  502 -0.10955991634E+03 -0.27227600973E+02 -0.15505107608E+03  0.19184114813E+03  0.41800000000E+01 0.  1.
        -11    1    1    2    0    0  0.57297085202E+02 -0.92472718227E+01 -0.12187499830E+03  0.13498882627E+03  0.00000000000E+00 0. -1.
         11    1    1    2    0    0  0.18365180691E+02  0.48263973603E+02  0.21291411940E+01  0.51683887741E+02  0.00000000000E+00 0.  1.
</event>
<event>
 7    1  0.2490079E-009  0.2035046E+03  0.7561462E-02  0.1146815E+00
          2   -1    0    0  501    0  0.00000000000E+00  0.00000000000E+00  0.10841364923E+04  0.10841364923E+04  0.00000000000E+00 0. -1.
         -2   -1    0    0    0  501 -0.00000000000E+00 -0.00000000000E+00 -0.67998668847E+02  0.67998668847E+02  0.00000000000E+00 0.  1.
         25    2    1    2    0    0  0.21155617595E+00  0.17525623679E+03  0.90023296100E+03  0.92562500390E+03  0.12508984965E+03 0.  0.
          5    1    3    3  502    0 -0.60557329762E+02  0.99913227650E+02  0.43691489876E+03  0.45228524672E+03  0.41800000000E+01 0.  1.
         -5    1    3    3    0  502  0.60768885938E+02  0.75343009140E+02  0.46331806225E+03  0.47333975718E+03  0.41800000000E+01 0.  1.
        -11    1    1    2    0    0  0.40452658029E+02 -0.80110465746E+02  0.40397597049E+02  0.98417834314E+02  0.00000000000E+00 0. -1.
         11    1    1    2    0    0 -0.40664214205E+02 -0.95145771043E+02  0.75507265391E+02  0.12809232292E+03  0.00000000000E+00 0.  1.
</event>
<event>
 7    1  0.2490079E-009  0.7882555E+02  0.7561462E-02  0.1332418E+00
          1   -1    0    0  501    0  0.00000000000E+00  0.00000000000E+00  0.55515246672E+02  0.55515246672E+02  0.00000000000E+00 0. -1.
         -1   -1    0    0    0  501 -0.00000000000E+00 -0.00000000000E+00 -0.24576595086E+03  0.24576595086E+03  0.00000000000E+00 0.  1.
         25    2    1    2    0    0 -0.31875858601E+02 -0.30512677164E+02 -0.10078529361E+03  0.16659148348E+03  0.12509177883E+03 0.  0.
          5    1    3    3  502    0 -0.39977764826E+02  0.20159451154E+02  0.85197982427E+01  0.45767723490E+02  0.41800000000E+01 0.  1.
         -5    1    3    3    0  502  0.81019062250E+01 -0.50672128318E+02 -0.10930509185E+03  0.12082375999E+03  0.41800000000E+01 0.  1.
        -11    1    1    2    0    0  0.21442526281E+02 -0.67674384574E+01 -0.93128283556E+02  0.95804265848E+02  0.00000000000E+00 0.  1.
         11    1    1    2    0    0  0.10433332320E+02  0.37280115621E+02  0.36628729749E+01  0.38885448210E+02  0.00000000000E+00 0. -1.
</event>
<event>
 7    1  0.2490079E-009  0.9254504E+02  0.7561462E-02  0.1296803E+00
         -2   -1    0    0    0  501 -0.00000000000E+00  0.00000000000E+00  0.23857327384E+02  0.23857327384E+02  0.00000000000E+00 0. -1.
          2   -1    0    0  501    0  0.00000000000E+00 -0.00000000000E+00 -0.58258135625E+03  0.58258135625E+03  0.00000000000E+00 0.  1.
         25    2    1    2    0    0  0.41586910030E+02  0.20309900735E+02 -0.33460469071E+03  0.36020748076E+03  0.12508863657E+03 0.  0.
          5    1    3    3  502    0  0.56019586241E+02  0.32816807069E+02 -0.72642767002E+02  0.97517079871E+02  0.41800000000E+01 0. -1.
         -5    1    3    3    0  502 -0.14432676212E+02 -0.12506906334E+02 -0.26196192371E+03  0.26269040089E+03  0.41800000000E+01 0. -1.
        -11    1    1    2    0    0  0.22403296404E+02 -0.28190030197E+02 -0.10144541279E+03  0.10764644568E+03  0.00000000000E+00 0.  1.
         11    1    1    2    0    0 -0.63990206434E+02  0.78801294619E+01 -0.12267392537E+03  0.13858475719E+03  0.00000000000E+00 0. -1.
</event>
<event>
 7    1  0.2490079E-009  0.1306384E+03  0.7561462E-02  0.1226511E+00
          2   -1    0    0  501    0  0.00000000000E+00  0.00000000000E+00  0.37179754319E+03  0.37179754319E+03  0.00000000000E+00 0. -1.
         -2   -1    0    0    0  501 -0.00000000000E+00 -0.00000000000E+00 -0.14714961956E+03  0.14714961956E+03  0.00000000000E+00 0.  1.
         25    2    1    2    0    0  0.49313087595E+02 -0.88608803010E+02 -0.85887972053E+02  0.18250805723E+03  0.12509654924E+03 0.  0.
          5    1    3    3  502    0  0.16917175247E+02  0.15178857617E+02 -0.68535157385E+02  0.72326542395E+02  0.41800000000E+01 0. -1.
         -5    1    3    3    0  502  0.32395912348E+02 -0.10378766063E+03 -0.17352814668E+02  0.11018151484E+03  0.41800000000E+01 0. -1.
        -11    1    1    2    0    0 -0.11323229119E+02 -0.15122303092E+02  0.50062287538E+02  0.53508244244E+02  0.00000000000E+00 0.  1.
         11    1    1    2    0    0 -0.37989858476E+02  0.10373110610E+03  0.26047360814E+03  0.28293086127E+03  0.00000000000E+00 0. -1.
</event>
<event>
 7    1  0.2490079E-009  0.1109511E+03  0.7561462E-02  0.1258819E+00
         -1   -1    0    0    0  501 -0.00000000000E+00  0.00000000000E+00  0.16651974984E+02  0.16651974984E+02  0.00000000000E+00 0.  1.
          1   -1    0    0  501    0  0.00000000000E+00 -0.00000000000E+00 -0.12556765631E+04  0.12556765631E+04  0.00000000000E+00 0. -1.
         25    2    1    2    0    0 -0.28414242367E+02 -0.82664808871E+02 -0.73277236984E+03  0.74849424011E+03  0.12508973451E+03 0.  0.
          5    1    3    3  502    0 -0.87288225054E+01 -0.48890328862E+02 -0.78132060899E+02  0.92674419010E+02  0.41800000000E+01 0. -1.
         -5    1    3    3    0  502 -0.19685419861E+02 -0.33774480009E+02 -0.65464030894E+03  0.65581982110E+03  0.41800000000E+01 0. -1.
        -11    1    1    2    0    0  0.51298288964E+02  0.94093418961E+02 -0.43873137147E+03  0.45163071447E+03  0.00000000000E+00 0.  1.
         11    1    1    2    0    0 -0.22884046597E+02 -0.11428610091E+02 -0.67520846785E+02  0.72203583484E+02  0.00000000000E+00 0. -1.
</event>
<event>
 7    1  0.2490079E-009  0.1117321E+03  0.7561462E-02  0.1257396E+00
         -1   -1    0    0    0  501 -0.00000000000E+00  0.00000000000E+00  0.54947234659E+02  0.54947234659E+02  0.00000000000E+00 0.  1.
          1   -1    0    0  501    0  0.00000000000E+00 -0.00000000000E+00 -0.32958934266E+03  0.32958934266E+03  0.00000000000E+00 0. -1.
         25    2    1    2    0    0 -0.41553912672E+02  0.21537515032E+02 -0.24270132309E+03  0.27702347799E+03  0.12508989934E+03 0.  0.
          5    1    3    3  502    0  0.41199089003E+02  0.25668991849E+02 -0.11304302739E+03  0.12309533102E+03  0.41800000000E+01 0. -1.
         -5    1    3    3    0  502 -0.82753001675E+02 -0.41314768167E+01 -0.12965829570E+03  0.15392814697E+03  0.41800000000E+01 0. -1.
        -11    1    1    2    0    0  0.65059075653E+02 -0.20658267851E+02 -0.43867382443E+02  0.81140585392E+02  0.00000000000E+00 0. -1.
         11    1    1    2    0    0 -0.23505162981E+02 -0.87924718159E+00  0.11926597533E+02  0.26372513932E+02  0.00000000000E+00 0.  1.
</event>
<event>
 7    1  0.2490079E-009  0.1745611E+03  0.7561462E-02  0.1173173E+00
         -2   -1    0    0    0  501 -0.00000000000E+00  0.00000000000E+00  0.32477731949E+02  0.32477731949E+02  0.00000000000E+00 0.  1.
          2   -1    0    0  501    0  0.00000000000E+00 -0.00000000000E+00 -0.12117064460E+04  0.12117064460E+04  0.00000000000E+00 0. -1.
         25    2    1    2    0    0 -0.11423559735E+03  0.11408849710E+03 -0.47973606339E+03  0.52140108893E+03  0.12508576316E+03 0.  0.
          5    1    3    3  502    0 -0.10218468986E+03  0.53217961323E+02 -0.41862118454E+03  0.43420620769E+03  0.41800000000E+01 0.  1.
         -5    1    3    3    0  502 -0.12050907494E+02  0.60870535782E+02 -0.61114878849E+02  0.87194881241E+02  0.41800000000E+01 0.  1.
        -11    1    1    2    0    0  0.85122341785E+02 -0.44161076158E+02 -0.26680067213E+03  0.28351122089E+03  0.00000000000E+00 0.  1.
         11    1    1    2    0    0  0.29113255568E+02 -0.69927420947E+02 -0.43269197853E+03  0.43927186813E+03  0.00000000000E+00 0. -1.
</event>
<event>
 7    1  0.2490079E-009  0.7359610E+02  0.7561462E-02  0.1348274E+00
         -1   -1    0    0    0  501 -0.00000000000E+00  0.00000000000E+00  0.11619844825E+03  0.11619844825E+03  0.00000000000E+00 0.  1.
          1   -1    0    0  501    0  0.00000000000E+00 -0.00000000000E+00 -0.11390652353E+03  0.11390652353E+03  0.00000000000E+00 0. -1.
         25    2    1    2    0    0  0.44214478710E+02  0.11400491271E+02  0.23399275014E+01  0.13318172178E+03  0.12508798674E+03 0.  0.
          5    1    3    3  502    0  0.70615431821E+01  0.42930163890E+02  0.48948380550E+02  0.65622257826E+02  0.41800000000E+01 0.  1.
         -5    1    3    3    0  502  0.37152935528E+02 -0.31529672619E+02 -0.46608453049E+02  0.67559463951E+02  0.41800000000E+01 0.  1.
        -11    1    1    2    0    0 -0.10665397361E+02 -0.17484937457E+02  0.39628952422E+02  0.44608604650E+02  0.00000000000E+00 0.  1.
         11    1    1    2    0    0 -0.33549081349E+02  0.60844461861E+01 -0.39676955199E+02  0.52314645355E+02  0.00000000000E+00 0. -1.
</event>
<event>
 7    1  0.2490079E-009  0.1360765E+03  0.7561462E-02  0.1218708E+00
          1   -1    0    0  501    0  0.00000000000E+00  0.00000000000E+00  0.34498170370E+03  0.34498170370E+03  0.00000000000E+00 0. -1.
         -1   -1    0    0    0  501 -0.00000000000E+00 -0.00000000000E+00 -0.60797106338E+02  0.60797106338E+02  0.00000000000E+00 0.  1.
         25    2    1    2    0    0 -0.97490224924E+01 -0.94763445157E+02  0.16076758928E+03  0.22487543238E+03  0.12509032076E+03 0.  0.
          5    1    3    3  502    0 -0.26059232930E+02  0.17524753812E+02  0.49320051846E+01  0.32062403094E+02  0.41800000000E+01 0. -1.
         -5    1    3    3    0  502  0.16310210437E+02 -0.11228819897E+03  0.15583558410E+03  0.19281302929E+03  0.41800000000E+01 0. -1.
        -11    1    1    2    0    0 -0.78529052862E+01 -0.14374834631E+02  0.16857770008E+01  0.16466506496E+02  0.00000000000E+00 0.  1.
         11    1    1    2    0    0  0.17601927779E+02  0.10913827979E+03  0.12173123107E+03  0.16443687115E+03  0.00000000000E+00 0. -1.
</event>
<event>
 7    1  0.2490079E-009  0.1865870E+03  0.7561462E-02  0.1161576E+00
          1   -1    0    0  501    0  0.00000000000E+00  0.00000000000E+00  0.38166866852E+03  0.38166866852E+03  0.00000000000E+00 0. -1.
         -1   -1    0    0    0  501 -0.00000000000E+00 -0.00000000000E+00 -0.11319079690E+03  0.11319079690E+03  0.00000000000E+00 0.  1.
         25    2    1    2    0    0 -0.87733802326E+00 -0.17660502259E+03  0.14292718267E+03  0.25935835917E+03  0.12509386555E+03 0.  0.
          5    1    3    3  502    0 -0.20885620727E+02 -0.44237281479E+01  0.66323488737E+02  0.69800115201E+02  0.41800000000E+01 0.  1.
         -5    1    3    3    0  502  0.20008282704E+02 -0.17218129444E+03  0.76603693938E+02  0.18955824397E+03  0.41800000000E+01 0.  1.
        -11    1    1    2    0    0  0.99576419187E+01  0.43946322672E+02  0.85473201618E+02  0.96623506994E+02  0.00000000000E+00 0. -1.
         11    1    1    2    0    0 -0.90803038955E+01  0.13265869992E+03  0.40077487327E+02  0.13887759925E+03  0.00000000000E+00 0.  1.
</event>
<event>
 7    1  0.2490079E-009  0.1019939E+03  0.7561462E-02  0.1276158E+00
         -2   -1    0    0    0  501 -0.00000000000E+00  0.00000000000E+00  0.14365488521E+03  0.14365488521E+03  0.00000000000E+00 0.  1.
          2   -1    0    0  501    0  0.00000000000E+00 -0.00000000000E+00 -0.10336289017E+03  0.10336289017E+03  0.00000000000E+00 0. -1.
         25    2    1    2    0    0 -0.22965439491E+02  0.29218267244E+02 -0.19828256096E+02  0.13199166798E+03  0.12509005606E+03 0.  0.
          5    1    3    3  502    0  0.43875750300E+02 -0.18971537081E+02 -0.69116091131E+01  0.48479309238E+02  0.41800000000E+01 0. -1.
         -5    1    3    3    0  502 -0.66841189791E+02  0.48189804325E+02 -0.12916646983E+02  0.83512358744E+02  0.41800000000E+01 0. -1.
        -11    1    1    2    0    0  0.24078887288E+02 -0.48517986561E+02  0.73655342289E+02  0.91427005205E+02  0.00000000000E+00 0.  1.
         11    1    1    2    0    0 -0.11134477969E+01  0.19299719316E+02 -0.13535091156E+02  0.23599102192E+02  0.00000000000E+00 0. -1.
</event>
<event>
 7    1  0.2490079E-009  0.1647812E+03  0.7561462E-02  0.1183402E+00
         -4   -1    0    0    0  501 -0.00000000000E+00  0.00000000000E+00  0.18690430357E+03  0.18690430357E+03  0.00000000000E+00 0.  1.
          4   -1    0    0  501    0  0.00000000000E+00 -0.00000000000E+00 -0.15133626920E+03  0.15133626920E+03  0.00000000000E+00 0. -1.
         25    2    1    2    0    0 -0.41017183257E+02 -0.11580984367E+03  0.45432345940E+02  0.18112988985E+03  0.12509840018E+03 0.  0.
          5    1    3    3  502    0  0.30871035273E+02  0.78233533270E+01  0.11195485886E+02  0.34015246293E+02  0.41800000000E+01 0. -1.
         -5    1    3    3    0  502 -0.71888218530E+02 -0.12363319700E+03  0.34236860054E+02  0.14711464356E+03  0.41800000000E+01 0. -1.
        -11    1    1    2    0    0 -0.23383551551E+02  0.73946517542E+02  0.88311542908E+01  0.78056820495E+02  0.00000000000E+00 0.  1.
         11    1    1    2    0    0  0.64400734808E+02  0.41863326131E+02 -0.18695465860E+02  0.79053862412E+02  0.00000000000E+00 0. -1.
</event>
<event>
 7    1  0.2490079E-009  0.1194307E+03  0.7561462E-02  0.1244039E+00
         -2   -1    0    0    0  501 -0.00000000000E+00  0.00000000000E+00  0.30146506649E+02  0.30146506649E+02  0.00000000000E+00 0.  1.
          2   -1    0    0  501    0  0.00000000000E+00 -0.00000000000E+00 -0.90369791394E+03  0.90369791394E+03  0.00000000000E+00 0. -1.
         25    2    1    2    0    0 -0.88012968695E+02 -0.29007862282E+02 -0.69309487844E+03  0.71036300688E+03  0.12508937716E+03 0.  0.
          5    1    3    3  502    0 -0.36476409028E+02 -0.62892752400E+02 -0.18990315554E+03  0.20338807144E+03  0.41800000000E+01 0.  1.
         -5    1    3    3    0  502 -0.51536559666E+02  0.33884890118E+02 -0.50319172291E+03  0.50697493544E+03  0.41800000000E+01 0.  1.
        -11    1    1    2    0    0  0.77946580241E+02  0.41393800395E+02 -0.18656871350E+03  0.20639040903E+03  0.00000000000E+00 0. -1.
         11    1    1    2    0    0  0.10066388454E+02 -0.12385938113E+02  0.61121846620E+01  0.17091004674E+02  0.00000000000E+00 0.  1.
</event>
<event>
 7    1  0.2490079E-009  0.9877814E+02  0.7561462E-02  0.1282887E+00
         -3   -1    0    0    0  501 -0.00000000000E+00  0.00000000000E+00  0.68783178119E+02  0.68783178119E+02  0.00000000000E+00 0.  1.
          3   -1    0    0  501    0  0.00000000000E+00 -0.00000000000E+00 -0.21547794834E+03  0.21547794834E+03  0.00000000000E+00 0. -1.
         25    2    1    2    0    0  0.33599247125E+02  0.43992091031E+02 -0.95013186367E+02  0.16655292172E+03  0.12509259238E+03 0.  0.
          5    1    3    3  502    0 -0.21858174115E+02  0.30081421814E+02  0.16709876214E+02  0.40980044865E+02  0.41800000000E+01 0.  1.
         -5    1    3    3    0  502  0.55457421241E+02  0.13910669217E+02 -0.11172306258E+03  0.12557287685E+03  0.41800000000E+01 0.  1.
        -11    1    1    2    0    0 -0.61503033460E+02 -0.16590666622E+02 -0.45098638599E+02  0.78049731244E+02  0.00000000000E+00 0. -1.
         11    1    1    2    0    0  0.27903786335E+02 -0.27401424409E+02 -0.65829452502E+01  0.39658473491E+02  0.00000000000E+00 0.  1.
</event>
<event>
 7    1  0.2490079E-009  0.8457729E+02  0.7561462E-02  0.1316542E+00
         -2   -1    0    0    0  501 -0.00000000000E+00  0.00000000000E+00  0.42047758105E+02  0.42047758105E+02  0.00000000000E+00 0.  1.
          2   -1    0    0  501    0  0.00000000000E+00 -0.00000000000E+00 -0.38665979173E+03  0.38665979173E+03  0.00000000000E+00 0. -1.
         25    2    1    2    0    0 -0.63791111233E+02  0.14775597625E+02 -0.18595433712E+03  0.23348291339E+03  0.12509049201E+03 0.  0.
          5    1    3    3  502    0 -0.29126360847E+02 -0.13203475170E+02  0.89810987706E+01  0.33478488435E+02  0.41800000000E+01 0.  1.
         -5    1    3    3    0  502 -0.34664750385E+02  0.27979072794E+02 -0.19493543589E+03  0.20000442495E+03  0.41800000000E+01 0.  1.
        -11    1    1    2    0    0 -0.10654269594E+00 -0.27087019085E+02 -0.39309347007E+01  0.27370973711E+02  0.00000000000E+00 0.  1.
         11    1    1    2    0    0  0.63897653929E+02  0.12311421461E+02 -0.15472676180E+03  0.16785366273E+03  0.00000000000E+00 0. -1.
</event>
<event>
 7    1  0.2490079E-009  0.1243354E+03  0.7561462E-02  0.1236112E+00
         -2   -1    0    0    0  501 -0.00000000000E+00  0.00000000000E+00  0.18968629670E+03  0.18968629670E+03  0.00000000000E+00 0.  1.
          2   -1    0    0  501    0  0.00000000000E+00 -0.00000000000E+00 -0.17424135572E+03  0.17424135572E+03  0.00000000000E+00 0. -1.
         25    2    1    2    0    0  0.12355347561E+03 -0.58318231444E+01  0.84940144930E+02  0.19534948102E+03  0.12508844878E+03 0.  0.
          5    1    3    3  502    0  0.28020353821E+02 -0.58548885466E+01  0.94896473573E+02  0.99208029135E+02  0.41800000000E+01 0. -1.
         -5    1    3    3    0  502  0.95533121787E+02  0.23065402267E-01 -0.99563286436E+01  0.96141451884E+02  0.41800000000E+01 0. -1.
        -11    1    1    2    0    0 -0.93152996192E+02  0.88230422837E+01 -0.99476187682E+00  0.93575190760E+02  0.00000000000E+00 0.  1.
         11    1    1    2    0    0 -0.30400479416E+02 -0.29912191393E+01 -0.68500442071E+02  0.75002980638E+02  0.00000000000E+00 0. -1.
</event>
<event>
 7    1  0.2490079E-009  0.1355653E+03  0.7561462E-02  0.1219424E+00
          2   -1    0    0  501    0  0.00000000000E+00  0.00000000000E+00  0.81199467717E+03  0.81199467717E+03  0.00000000000E+00 0.  1.
         -2   -1    0    0    0  501 -0.00000000000E+00 -0.00000000000E+00 -0.31008144193E+02  0.31008144193E+02  0.00000000000E+00 0. -1.
         25    2    1    2    0    0 -0.14390771619E+02 -0.11627330608E+03  0.46874984022E+03  0.49909973165E+03  0.12509018112E+03 0.  0.
          5    1    3    3  502    0 -0.49383652848E+02 -0.57368447071E+02  0.37681874125E+03  0.38436924961E+03  0.41800000000E+01 0. -1.
         -5    1    3    3    0  502  0.34992881229E+02 -0.58904859012E+02  0.91931098979E+02  0.11473048205E+03  0.41800000000E+01 0. -1.
        -11    1    1    2    0    0 -0.12192400878E+02  0.83930754775E+02  0.11867498349E+03  0.14586561604E+03  0.00000000000E+00 0. -1.
         11    1    1    2    0    0  0.26583172497E+02  0.32342551308E+02  0.19356170926E+03  0.19803747367E+03  0.00000000000E+00 0.  1.
</event>
<event>
 7    1  0.2490079E-009  0.7697129E+02  0.7561462E-02  0.1337873E+00
         -2   -1    0    0    0  501 -0.00000000000E+00  0.00000000000E+00  0.33825207327E+02  0.33825207327E+02  0.00000000000E+00 0.  1.
          2   -1    0    0  501    0  0.00000000000E+00 -0.00000000000E+00 -0.58811775517E+03  0.58811775517E+03  0.00000000000E+00 0. -1.
         25    2    1    2    0    0 -0.12897588060E+02 -0.37118002960E+02 -0.48206249507E+03  0.49957576884E+03  0.12509039026E+03 0.  0.
          5    1    3    3  502    0 -0.29055516263E+02  0.16636513827E+02 -0.39147172978E+03  0.39292312764E+03  0.41800000000E+01 0. -1.
         -5    1    3    3    0  502  0.16157928203E+02 -0.53754516787E+02 -0.90590765293E+02  0.10665264120E+03  0.41800000000E+01 0. -1.
        -11    1    1    2    0    0  0.32436819706E+02  0.24603784149E+02  0.56514578890E+01  0.41102706035E+02  0.00000000000E+00 0.  1.
         11    1    1    2    0    0 -0.19539231646E+02  0.12514218811E+02 -0.77881510657E+02  0.81264487619E+02  0.00000000000E+00 0. -1.
</event>
<event>
 7    1  0.2490079E-009  0.7654594E+02  0.7561462E-02  0.1339149E+00
          2   -1    0    0  501    0  0.00000000000E+00  0.00000000000E+00  0.19422175376E+03  0.19422175376E+03  0.00000000000E+00 0. -1.
         -2   -1    0    0    0  501 -0.00000000000E+00 -0.00000000000E+00 -0.75522339805E+02  0.75522339805E+02  0.00000000000E+00 0.  1.
         25    2    1    2    0    0 -0.29140904269E+02 -0.38638279962E+02  0.89286076017E+02  0.16112607382E+03  0.12508996488E+03 0.  0.
          5    1    3    3  502    0 -0.19074185575E+02 -0.20295260066E+02 -0.29296925707E+02  0.40638705594E+02  0.41800000000E+01 0.  1.
         -5    1    3    3    0  502 -0.10066718694E+02 -0.18343019896E+02  0.11858300172E+03  0.12048736823E+03  0.41800000000E+01 0.  1.
        -11    1    1    2    0    0  0.58519026868E+02  0.47058434783E+01  0.23944117728E+02  0.63403014457E+02  0.00000000000E+00 0.  1.
         11    1    1    2    0    0 -0.29378122599E+02  0.33932436484E+02  0.54692202060E+01  0.45215005284E+02  0.00000000000E+00 0. -1.
</event>
<event>
 7    1  0.2490079E-009  0.1407354E+03  0.7561462E-02  0.1212343E+00
          1   -1    0    0  501    0  0.00000000000E+00  0.00000000000E+00  0.42088651727E+03  0.42088651727E+03  0.00000000000E+00 0. -1.
         -1   -1    0    0    0  501 -0.00000000000E+00 -0.00000000000E+00 -0.83551357318E+02  0.83551357318E+02  0.00000000000E+00 0.  1.
         25    2    1    2    0    0  0.71901398574E+02  0.10332798041E+03  0.29387164773E+03  0.34329981590E+03  0.12509090937E+03 0.  0.
          5    1    3    3  502    0  0.37744742981E+02  0.61357806046E+02  0.37645469985E+02  0.81388572883E+02  0.41800000000E+01 0. -1.
         -5    1    3    3    0  502  0.34156655593E+02  0.41970174361E+02  0.25622617775E+03  0.26191124302E+03  0.41800000000E+01 0. -1.
        -11    1    1    2    0    0 -0.35926583531E+02  0.90444375202E+01  0.13192778409E+02  0.39326462546E+02  0.00000000000E+00 0. -1.
         11    1    1    2    0    0 -0.35974815043E+02 -0.11237241793E+03  0.30270733810E+02  0.12181159614E+03  0.00000000000E+00 0.  1.
</event>
<event>
 7    1  0.2490079E-009  0.1054543E+03  0.7561462E-02  0.1269227E+00
         -1   -1    0    0    0  501 -0.00000000000E+00  0.00000000000E+00  0.64991534370E+02  0.64991534370E+02  0.00000000000E+00 0.  1.
          1   -1    0    0  501    0  0.00000000000E+00 -0.00000000000E+00 -0.29122720853E+03  0.29122720853E+03  0.00000000000E+00 0. -1.
         25    2    1    2    0    0  0.17992033635E+02  0.69525247853E+02 -0.17455667992E+03  0.22644231159E+03  0.12509441478E+03 0.  0.
          5    1    3    3  502    0 -0.40895750001E+02  0.19371935621E+02 -0.12988906700E+02  0.47264345496E+02  0.41800000000E+01 0. -1.
         -5    1    3    3    0  502  0.58887783636E+02  0.50153312231E+02 -0.16156777322E+03  0.17917796609E+03  0.41800000000E+01 0. -1.
        -11    1    1    2    0    0  0.10037060646E+02  0.28113396561E+01 -0.51146155165E+02  0.52197465505E+02  0.00000000000E+00 0. -1.
         11    1    1    2    0    0 -0.28029094280E+02 -0.72336587509E+02 -0.53283907627E+00  0.77578965809E+02  0.00000000000E+00 0.  1.
</event>
<event>
 7    1  0.2490079E-009  0.8535182E+02  0.7561462E-02  0.1314515E+00
          3   -1    0    0  501    0  0.00000000000E+00  0.00000000000E+00  0.18563407472E+03  0.18563407472E+03  0.00000000000E+00 0. -1.
         -3   -1    0    0    0  501 -0.00000000000E+00 -0.00000000000E+00 -0.84489282963E+02  0.84489282963E+02  0.00000000000E+00 0.  1.
         25    2    1    2    0    0 -0.56083592677E+01  0.14782478566E+02 -0.89977927271E+01  0.12641345290E+03  0.12509766359E+03 0.  0.
          5    1    3    3  502    0 -0.41429042168E+02 -0.92064240424E+01 -0.50725550363E+02  0.66269733953E+02  0.41800000000E+01 0. -1.
         -5    1    3    3    0  502  0.35820682900E+02  0.23988902608E+02  0.41727757636E+02  0.60143718950E+02  0.41800000000E+01 0. -1.
        -11    1    1    2    0    0 -0.37667681005E+02  0.33658351177E+01  0.21732844687E+02  0.43617652121E+02  0.00000000000E+00 0.  1.
         11    1    1    2    0    0  0.43276040273E+02 -0.18148313684E+02  0.88409739798E+02  0.10009225266E+03  0.00000000000E+00 0. -1.
</event>
<event>
 7    1  0.2490079E-009  0.1277421E+03  0.7561462E-02  0.1230845E+00
          2   -1    0    0  501    0  0.00000000000E+00  0.00000000000E+00  0.32810968022E+03  0.32810968022E+03  0.00000000000E+00 0. -1.
         -2   -1    0    0    0  501 -0.00000000000E+00 -0.00000000000E+00 -0.55999614466E+02  0.55999614466E+02  0.00000000000E+00 0.  1.
         25    2    1    2    0    0 -0.12602801488E+02 -0.76769519252E+02  0.17560137003E+03  0.22920585774E+03  0.12508834627E+03 0.  0.
          5    1    3    3  502    0  0.51223819082E+02 -0.20802237123E+02  0.37121122538E+02  0.66723780238E+02  0.41800000000E+01 0.  1.
         -5    1    3    3    0  502 -0.63826620571E+02 -0.55967282129E+02  0.13848024749E+03  0.16248207750E+03  0.41800000000E+01 0.  1.
        -11    1    1    2    0    0 -0.70302715450E+01  0.90701649666E+02  0.93812241892E+02  0.13067880738E+03  0.00000000000E+00 0. -1.
         11    1    1    2    0    0  0.19633073033E+02 -0.13932130414E+02  0.26964538347E+01  0.24224629571E+02  0.00000000000E+00 0.  1.
</event>
<event>
 7    1  0.2490079E-009  0.9027768E+02  0.7561462E-02  0.1302181E+00
         -1   -1    0    0    0  501 -0.00000000000E+00  0.00000000000E+00  0.12013928164E+03  0.12013928164E+03  0.00000000000E+00 0.  1.
          1   -1    0    0  501    0  0.00000000000E+00 -0.00000000000E+00 -0.11079359522E+03  0.11079359522E+03  0.00000000000E+00 0. -1.
         25    2    1    2    0    0 -0.33591643510E+02  0.25572886895E+02  0.49884252629E+00  0.13202260222E+03  0.12508935845E+03 0.  0.
          5    1    3    3  502    0  0.12795639657E+02 -0.31720493084E+02 -0.35849014084E+02  0.49724664770E+02  0.41800000000E+01 0. -1.
         -5    1    3    3    0  502 -0.46387283166E+02  0.57293379979E+02  0.36347856610E+02  0.82297937454E+02  0.41800000000E+01 0. -1.
        -11    1    1    2    0    0  0.43382844749E+02 -0.37137734908E+02  0.36218315866E+02  0.67624322376E+02  0.00000000000E+00 0.  1.
         11    1    1    2    0    0 -0.97912012394E+01  0.11564848013E+02 -0.27371471964E+02  0.31285952259E+02  0.00000000000E+00 0. -1.
</event>
<event>
 7    1  0.2490079E-009  0.6474626E+02  0.7561462E-02  0.1378929E+00
          1   -1    0    0  501    0  0.00000000000E+00  0.00000000000E+00  0.42887307351E+03  0.42887307351E+03  0.00000000000E+00 0. -1.
         -1   -1    0    0    0  501 -0.00000000000E+00 -0.00000000000E+00 -0.39608340847E+02  0.39608340847E+02  0.00000000000E+00 0.  1.
         25    2    1    2    0    0 -0.32687134540E+01 -0.21647037817E+02  0.91503413002E+02  0.15652373352E+03  0.12509007087E+03 0.  0.
          5    1    3    3  502    0 -0.43434066379E+01 -0.28230092852E+02 -0.25944527725E+02  0.38812294992E+02  0.41800000000E+01 0. -1.
         -5    1    3    3    0  502  0.10746931839E+01  0.65830550358E+01  0.11744794073E+03  0.11771143853E+03  0.41800000000E+01 0. -1.
        -11    1    1    2    0    0  0.43897268023E+02 -0.49783543330E+01  0.12973935774E+03  0.13705493460E+03  0.00000000000E+00 0.  1.
         11    1    1    2    0    0 -0.40628554569E+02  0.26625392150E+02  0.16802196192E+03  0.17490274624E+03  0.00000000000E+00 0. -1.
</event>
<event>
 7    1  0.2490079E-009  0.1615687E+03  0.7561462E-02  0.1186937E+00
          2   -1    0    0  501    0  0.00000000000E+00  0.00000000000E+00  0.14508557929E+03  0.14508557929E+03  0.00000000000E+00 0. -1.
         -2   -1    0    0    0  501 -0.00000000000E+00 -0.00000000000E+00 -0.20955739631E+03  0.20955739631E+03  0.00000000000E+00 0.  1.
         25    2    1    2    0    0  0.61533463621E+00 -0.12022906256E+03 -0.99242544303E+02  0.19987884013E+03  0.12508821691E+03 0.  0.
          5    1    3    3  502    0 -0.46946276037E+02 -0.11590211011E+03 -0.65259124171E+02  0.14111512197E+03  0.41800000000E+01 0. -1.
         -5    1    3    3    0  502  0.47561610674E+02 -0.43269524512E+01 -0.33983420132E+02  0.58763718154E+02  0.41800000000E+01 0. -1.
        -11    1    1    2    0    0 -0.36154327298E+02  0.10564972115E+03  0.32434955103E+02  0.11627994356E+03  0.00000000000E+00 0. -1.
         11    1    1    2    0    0  0.35538992662E+02  0.14579341410E+02  0.23357721750E+01  0.38484191911E+02  0.00000000000E+00 0.  1.
</event>
<event>
 7    1  0.2490079E-009  0.1485488E+03  0.7561462E-02  0.1202268E+00
          2   -1    0    0  501    0  0.00000000000E+00  0.00000000000E+00  0.56618770712E+03  0.56618770712E+03  0.00000000000E+00 0. -1.
         -2   -1    0    0    0  501 -0.00000000000E+00 -0.00000000000E+00 -0.49277219208E+02  0.49277219208E+02  0.00000000000E+00 0.  1.
         25    2    1    2    0    0  0.24923006549E+02  0.11952928667E+03  0.26737642687E+03  0.31944774077E+03  0.12509316053E+03 0.  0.
          5    1    3    3  502    0 -0.49232618675E+02  0.69360907632E+02  0.13238727360E+03  0.15741235295E+03  0.41800000000E+01 0. -1.
         -5    1    3    3    0  502  0.74155625224E+02  0.50168379040E+02  0.13498915326E+03  0.16203538782E+03  0.41800000000E+01 0. -1.
        -11    1    1    2    0    0 -0.11759048973E+02 -0.39846780667E+02  0.93039546977E+01  0.42574695951E+02  0.00000000000E+00 0.  1.
         11    1    1    2    0    0 -0.13163957576E+02 -0.79682506004E+02  0.24023010635E+03  0.25344248961E+03  0.00000000000E+00 0. -1.
</event>
<event>
 7    1  0.2490079E-009  0.2024502E+03  0.7561462E-02  0.1147688E+00
         -1   -1    0    0    0  501 -0.00000000000E+00  0.00000000000E+00  0.14286665252E+03  0.14286665252E+03  0.00000000000E+00 0.  1.
          1   -1    0    0  501    0  0.00000000000E+00 -0.00000000000E+00 -0.32541456708E+03  0.32541456708E+03  0.00000000000E+00 0. -1.
         25    2    1    2    0    0  0.13366271013E+03  0.33942729291E+02 -0.13293769238E+03  0.22877381653E+03  0.12508876897E+03 0.  0.
          5    1    3    3  502    0  0.10685268064E+03 -0.34628075543E+02 -0.82582914208E+02  0.13947762937E+03  0.41800000000E+01 0. -1.
         -5    1    3    3    0  502  0.26810029495E+02  0.68570804834E+02 -0.50354778173E+02  0.89296187163E+02  0.41800000000E+01 0. -1.
        -11    1    1    2    0    0 -0.14302067265E+03  0.36571376300E+02  0.81940351896E+01  0.14784965533E+03  0.00000000000E+00 0.  1.
         11    1    1    2    0    0  0.93579625120E+01 -0.70514105591E+02 -0.57804257367E+02  0.91657747733E+02  0.00000000000E+00 0. -1.
</event>
<event>
 7    1  0.2490079E-009  0.8034159E+02  0.7561462E-02  0.1328085E+00
         -2   -1    0    0    0  501 -0.00000000000E+00  0.00000000000E+00  0.12175602193E+03  0.12175602193E+03  0.00000000000E+00 0.  1.
          2   -1    0    0  501    0  0.00000000000E+00 -0.00000000000E+00 -0.10064697960E+03  0.10064697960E+03  0.00000000000E+00 0. -1.
         25    2    1    2    0    0  0.56921001392E+01 -0.55748088413E+01 -0.94063195709E+01  0.12569109971E+03  0.12508515180E+03 0.  0.
          5    1    3    3  502    0  0.45211078590E+02  0.62361770650E+01 -0.49890445679E+02  0.67745557062E+02  0.41800000000E+01 0.  1.
         -5    1    3    3    0  502 -0.39518978451E+02 -0.11810985906E+02  0.40484126108E+02  0.57945542646E+02  0.41800000000E+01 0.  1.
        -11    1    1    2    0    0  0.33686055195E+02  0.46592831608E+01 -0.14436752260E+02  0.36944269515E+02  0.00000000000E+00 0. -1.
         11    1    1    2    0    0 -0.39378155335E+02  0.91552568046E+00  0.44952114161E+02  0.59767632313E+02  0.00000000000E+00 0.  1.
</event>
<event>
 7    1  0.2490079E-009  0.2253975E+03  0.7561462E-02  0.1129922E+00
          1   -1    0    0  501    0  0.00000000000E+00  0.00000000000E+00  0.36211001972E+03  0.36211001972E+03  0.00000000000E+00 0. -1.
         -1   -1    0    0    0  501 -0.00000000000E+00 -0.00000000000E+00 -0.18271808298E+03  0.18271808298E+03  0.00000000000E+00 0.  1.
         25    2    1    2    0    0 -0.42587511283E+02  0.18998914825E+03  0.21489716390E+03  0.31581299273E+03  0.12508989869E+03 0.  0.
          5    1    3    3  502    0  0.26669722602E+02  0.40895228985E+01  0.53391768688E+02  0.59967921965E+02  0.41800000000E+01 0. -1.
         -5    1    3    3    0  502 -0.69257233885E+02  0.18589962535E+03  0.16150539521E+03  0.25584507076E+03  0.41800000000E+01 0. -1.
        -11    1    1    2    0    0 -0.31079810985E+02 -0.11814985242E+03 -0.76199352944E+01  0.12240672241E+03  0.00000000000E+00 0.  1.
         11    1    1    2    0    0  0.73667322267E+02 -0.71839295828E+02 -0.27885291865E+02  0.10660838756E+03  0.00000000000E+00 0. -1.
</event>
<event>
 7    1  0.2490079E-009  0.1308076E+03  0.7561462E-02  0.1226262E+00
          4   -1    0    0  501    0  0.00000000000E+00  0.00000000000E+00  0.15501513494E+04  0.15501513494E+04  0.00000000000E+00 0. -1.
         -4   -1    0    0    0  501 -0.00000000000E+00 -0.00000000000E+00 -0.18293009463E+02  0.18293009463E+02  0.00000000000E+00 0.  1.
         25    2    1    2    0    0  0.77682246933E+01  0.11582361444E+03  0.10636763741E+04  0.10772787560E+04  0.12508650693E+03 0.  0.
          5    1    3    3  502    0  0.38963450433E+02  0.26638714351E+02  0.12221865779E+03  0.13108258573E+03  0.41800000000E+01 0. -1.
         -5    1    3    3    0  502 -0.31195225740E+02  0.89184900090E+02  0.94145771636E+03  0.94619617025E+03  0.41800000000E+01 0. -1.
        -11    1    1    2    0    0  0.10452644139E+02 -0.26392362150E+02  0.22466532914E+02  0.36201652594E+02  0.00000000000E+00 0.  1.
         11    1    1    2    0    0 -0.18220868832E+02 -0.89431252290E+02  0.44571543286E+03  0.45496395026E+03  0.00000000000E+00 0. -1.
</event>
<event>
 7    1  0.2490079E-009  0.8562383E+02  0.7561462E-02  0.1313809E+00
         -2   -1    0    0    0  501 -0.00000000000E+00  0.00000000000E+00  0.14021210737E+03  0.14021210737E+03  0.00000000000E+00 0.  1.
          2   -1    0    0  501    0  0.00000000000E+00 -0.00000000000E+00 -0.99885072017E+02  0.99885072017E+02  0.00000000000E+00 0. -1.
         25    2    1    2    0    0 -0.37215079431E+02  0.28555763895E+02  0.25883211367E+02  0.13607709257E+03  0.12508653286E+03 0.  0.
          5    1    3    3  502    0 -0.70191499046E+02  0.48092204186E+02  0.41151457737E+02  0.94607724397E+02  0.41800000000E+01 0. -1.
         -5    1    3    3    0  502  0.32976419615E+02 -0.19536440291E+02 -0.15268246369E+02  0.41469368177E+02  0.41800000000E+01 0. -1.
        -11    1    1    2    0    0  0.23637396727E+02 -0.13469588883E+02 -0.38600954254E+02  0.47224887697E+02  0.00000000000E+00 0. -1.
         11    1    1    2    0    0  0.13577682704E+02 -0.15086175012E+02  0.53044778244E+02  0.56795199120E+02  0.00000000000E+00 0.  1.
</event>
<event>
 7    1  0.2490079E-009  0.1212183E+03  0.7561462E-02  0.1241101E+00
         -2   -1    0    0    0  501 -0.00000000000E+00  0.00000000000E+00  0.18242763973E+02  0.18242763973E+02  0.00000000000E+00 0.  1.
          2   -1    0    0  501    0  0.00000000000E+00 -0.00000000000E+00 -0.11091564147E+04  0.11091564147E+04  0.00000000000E+00 0. -1.
         25    2    1    2    0    0 -0.91120535626E+02 -0.78497007252E+01 -0.57628619979E+03  0.59675616601E+03  0.12509023859E+03 0.  0.
          5    1    3    3  502    0  0.68037503228E+00  0.19438462333E+02 -0.35550997039E+03  0.35606618511E+03  0.41800000000E+01 0.  1.
         -5    1    3    3    0  502 -0.91800910658E+02 -0.27288163058E+02 -0.22077622939E+03  0.24068998090E+03  0.41800000000E+01 0.  1.
        -11    1    1    2    0    0  0.95242009208E+02 -0.21006466363E+02 -0.34464542770E+03  0.35817981906E+03  0.00000000000E+00 0.  1.
         11    1    1    2    0    0 -0.41214735823E+01  0.28856167088E+02 -0.16998202323E+03  0.17246319359E+03  0.00000000000E+00 0. -1.
</event>
<event>
 7    1  0.2490079E-009  0.9638004E+02  0.7561462E-02  0.1288098E+00
          1   -1    0    0  501    0  0.00000000000E+00  0.00000000000E+00  0.24725283055E+03  0.24725283055E+03  0.00000000000E+00 0. -1.
         -1   -1    0    0    0  501 -0.00000000000E+00 -0.00000000000E+00 -0.64195350871E+02  0.64195350871E+02  0.00000000000E+00 0.  1.
         25    2    1    2    0    0  0.46993805354E+02 -0.39620140497E+02  0.98455615753E+02  0.17064240869E+03  0.12508856901E+03 0.  0.
          5    1    3    3  502    0 -0.19509720595E+02 -0.47265189809E+02 -0.25037868895E+00  0.51304604617E+02  0.41800000000E+01 0. -1.
         -5    1    3    3    0  502  0.66503525949E+02  0.76450493122E+01  0.98705994442E+02  0.11933780407E+03  0.41800000000E+01 0. -1.
        -11    1    1    2    0    0 -0.35039593185E+02  0.48256905040E+02  0.49959663811E+01  0.59845314393E+02  0.00000000000E+00 0.  1.
         11    1    1    2    0    0 -0.11954212169E+02 -0.86367645437E+01  0.79605897545E+02  0.80960458338E+02  0.00000000000E+00 0. -1.
</event>
<event>
 7    1  0.2490079E-009  0.8092771E+02  0.7561462E-02  0.1326439E+00
          1   -1    0    0  501    0  0.00000000000E+00  0.00000000000E+00  0.19401937694E+03  0.19401937694E+03  0.00000000000E+00 0. -1.
         -1   -1    0    0    0  501 -0.00000000000E+00 -0.00000000000E+00 -0.78927480312E+02  0.78927480312E+02  0.00000000000E+00 0.  1.
         25    2    1    2    0    0 -0.37321835933E+01 -0.44090033403E+02  0.10924226156E+03  0.17186935644E+03  0.12508934300E+03 0.  0.
          5    1    3    3  502    0  0.24361641351E+02  0.90841957313E+01  0.10842712562E+03  0.11157923710E+03  0.41800000000E+01 0. -1.
         -5    1    3    3    0  502 -0.28093824944E+02 -0.53174229134E+02  0.81513594340E+00  0.60290119345E+02  0.41800000000E+01 0. -1.
        -11    1    1    2    0    0 -0.10560899166E+02  0.55780614611E+02  0.34910497832E+02  0.66646473398E+02  0.00000000000E+00 0. -1.
         11    1    1    2    0    0  0.14293082759E+02 -0.11690581208E+02 -0.29060862767E+02  0.34431027410E+02  0.00000000000E+00 0.  1.
</event>
<event>
 7    1  0.2490079E-009  0.9338578E+02  0.7561462E-02  0.1294854E+00
          2   -1    0    0  501    0  0.00000000000E+00  0.00000000000E+00  0.10679971704E+03  0.10679971704E+03  0.00000000000E+00 0. -1.
         -2   -1    0    0    0  501 -0.00000000000E+00 -0.00000000000E+00 -0.13695873404E+03  0.13695873404E+03  0.00000000000E+00 0.  1.
         25    2    1    2    0    0  0.76074055245E+00 -0.31005827316E+02  0.23581131078E+02  0.13101663662E+03  0.12508936515E+03 0.  0.
          5    1    3    3  502    0 -0.60240289129E+02 -0.21625717475E+02 -0.17673135072E+01  0.64165098673E+02  0.41800000000E+01 0. -1.
         -5    1    3    3    0  502  0.61001029681E+02 -0.93801098412E+01  0.25348444585E+02  0.66851537946E+02  0.41800000000E+01 0. -1.
        -11    1    1    2    0    0 -0.14008294435E+02 -0.10303739331E+02  0.20422327349E+02  0.26822953072E+02  0.00000000000E+00 0. -1.
         11    1    1    2    0    0  0.13247553882E+02  0.41309566647E+02 -0.74162475433E+02  0.85918861391E+02  0.00000000000E+00 0.  1.
</event>
<event>
 7    1  0.2490079E-009  0.1839712E+03  0.7561462E-02  0.1164014E+00
         -2   -1    0    0    0  501 -0.00000000000E+00  0.00000000000E+00  0.17841590563E+02  0.17841590563E+02  0.00000000000E+00 0. -1.
          2   -1    0    0  501    0  0.00000000000E+00 -0.00000000000E+00 -0.21396045783E+04  0.21396045783E+04  0.00000000000E+00 0.  1.
         25    2    1    2    0    0 -0.12505181760E+03 -0.91914913474E+02 -0.13651406334E+04  0.13796172318E+04  0.12509376069E+03 0.  0.
          5    1    3    3  502    0 -0.11565809591E+03 -0.17762087671E+02 -0.64000693642E+03  0.65062941678E+03  0.41800000000E+01 0. -1.
         -5    1    3    3    0  502 -0.93937216817E+01 -0.74152825803E+02 -0.72513369700E+03  0.72898781506E+03  0.41800000000E+01 0. -1.
        -11    1    1    2    0    0  0.49763576271E+02  0.87392307847E+02 -0.34523217963E+03  0.35958182219E+03  0.00000000000E+00 0. -1.
         11    1    1    2    0    0  0.75288241324E+02  0.45226056271E+01 -0.41139017470E+03  0.41824711485E+03  0.00000000000E+00 0.  1.
</event>
<event>
 7    1  0.2490079E-009  0.1211880E+03  0.7561462E-02  0.1241150E+00
         -2   -1    0    0    0  501 -0.00000000000E+00  0.00000000000E+00  0.22748755551E+03  0.22748755551E+03  0.00000000000E+00 0.  1.
          2   -1    0    0  501    0  0.00000000000E+00 -0.00000000000E+00 -0.10244630687E+03  0.10244630687E+03  0.00000000000E+00 0. -1.
         25    2    1    2    0    0  0.45885688533E+02 -0.92837295446E+02  0.89307466340E+02  0.18532998796E+03  0.12508845292E+03 0.  0.
          5    1    3    3  502    0  0.45119606359E+02 -0.40067014541E+02  0.11234534415E+03  0.12759346881E+03  0.41800000000E+01 0. -1.
         -5    1    3    3    0  502  0.76608217354E+00 -0.52770280905E+02 -0.23037877808E+02  0.57736519141E+02  0.41800000000E+01 0. -1.
        -11    1    1    2    0    0 -0.46421872915E+02  0.11785065347E+02  0.41461532814E+02  0.63347744660E+02  0.00000000000E+00 0.  1.
         11    1    1    2    0    0  0.53618438244E+00  0.81052230098E+02 -0.57277505129E+01  0.81256129760E+02  0.00000000000E+00 0. -1.
</event>
<event>
 7    1  0.2490079E-009  0.9708536E+02  0.7561462E-02  0.1286547E+00
          1   -1    0    0  501    0  0.00000000000E+00  0.00000000000E+00  0.90882438264E+02  0.90882438264E+02  0.00000000000E+00 0. -1.
         -1   -1    0    0    0  501 -0.00000000000E+00 -0.00000000000E+00 -0.13146300685E+03  0.13146300685E+03  0.00000000000E+00 0.  1.
         25    2    1    2    0    0 -0.59456913939E+01 -0.31536054296E+00 -0.20930159318E+02  0.12697173666E+03  0.12509316386E+03 0.  0.
          5    1    3    3  502    0  0.44023665847E+02 -0.25162544981E+02 -0.43195701593E+02  0.66742624017E+02  0.41800000000E+01 0. -1.
         -5    1    3    3    0  502 -0.49969357241E+02  0.24847184438E+02  0.22265542275E+02  0.60229112648E+02  0.41800000000E+01 0. -1.
        -11    1    1    2    0    0 -0.21158880552E+02 -0.36153897872E+02  0.73325658677E+01  0.42527274539E+02  0.00000000000E+00 0. -1.
         11    1    1    2    0    0  0.27104571946E+02  0.36469258414E+02 -0.26982975132E+02  0.52846433906E+02  0.00000000000E+00 0.  1.
</event>
<event>
 7    1  0.2490079E-009  0.1371293E+03  0.7561462E-02  0.1217245E+00
          2   -1    0    0  501    0  0.00000000000E+00  0.00000000000E+00  0.89205269408E+02  0.89205269408E+02  0.00000000000E+00 0. -1.
         -2   -1    0    0    0  501 -0.00000000000E+00 -0.00000000000E+00 -0.25162256243E+03  0.25162256243E+03  0.00000000000E+00 0.  1.
         25    2    1    2    0    0  0.98543147437E+02 -0.74553176026E+01 -0.53890973885E+02  0.16828024626E+03  0.12509064932E+03 0.  0.
          5    1    3    3  502    0  0.11622432711E+03  0.16345601462E+02 -0.67424548051E+02  0.13542088089E+03  0.41800000000E+01 0. -1.
         -5    1    3    3    0  502 -0.17681179677E+02 -0.23800919065E+02  0.13533574166E+02  0.32859365375E+02  0.41800000000E+01 0. -1.
        -11    1    1    2    0    0 -0.37155505826E+02  0.42287532924E+02 -0.76655232364E+02  0.95104109810E+02  0.00000000000E+00 0.  1.
         11    1    1    2    0    0 -0.61387641612E+02 -0.34832215321E+02 -0.31871086776E+02  0.77443475768E+02  0.00000000000E+00 0. -1.
</event>
<event>
 7    1  0.2490079E-009  0.2106600E+03  0.7561462E-02  0.1141044E+00
          2   -1    0    0  501    0  0.00000000000E+00  0.00000000000E+00  0.71706545988E+03  0.71706545988E+03  0.00000000000E+00 0. -1.
         -2   -1    0    0    0  501 -0.00000000000E+00 -0.00000000000E+00 -0.71222592559E+02  0.71222592559E+02  0.00000000000E+00 0.  1.
         25    2    1    2    0    0  0.14691654448E+03 -0.12509299820E+03  0.41266850048E+03  0.47241198565E+03  0.12508022886E+03 0.  0.
          5    1    3    3  502    0  0.39617918476E+02 -0.97675869155E+02  0.28194672585E+03  0.30103418991E+03  0.41800000000E+01 0. -1.
         -5    1    3    3    0  502  0.10729862601E+03 -0.27417129041E+02  0.13072177464E+03  0.17137779574E+03  0.41800000000E+01 0. -1.
        -11    1    1    2    0    0 -0.14836068503E+03  0.97843121545E+02  0.16525383198E+03  0.24267879652E+03  0.00000000000E+00 0.  1.
         11    1    1    2    0    0  0.14441405500E+01  0.27249876652E+02  0.67920534863E+02  0.73197270274E+02  0.00000000000E+00 0. -1.
</event>
<event>
 7    1  0.2490079E-009  0.1902445E+03  0.7561462E-02  0.1158241E+00
         -1   -1    0    0    0  501 -0.00000000000E+00  0.00000000000E+00  0.72281855087E+02  0.72281855087E+02  0.00000000000E+00 0.  1.
          1   -1    0    0  501    0  0.00000000000E+00 -0.00000000000E+00 -0.64393784478E+03  0.64393784478E+03  0.00000000000E+00 0. -1.
         25    2    1    2    0    0  0.17573087758E+02 -0.18397430867E+03 -0.33526292663E+03  0.40274448561E+03  0.12508609456E+03 0.  0.
          5    1    3    3  502    0  0.34909270166E+02 -0.16664124890E+03 -0.18912954109E+03  0.25451015440E+03  0.41800000000E+01 0. -1.
         -5    1    3    3    0  502 -0.17336182408E+02 -0.17333059775E+02 -0.14613338553E+03  0.14823433121E+03  0.41800000000E+01 0. -1.
        -11    1    1    2    0    0 -0.26112521014E+01  0.98636723644E+02 -0.19258342221E+03  0.21638945538E+03  0.00000000000E+00 0. -1.
         11    1    1    2    0    0 -0.14961835657E+02  0.85337585030E+02 -0.43809640851E+02  0.97085758875E+02  0.00000000000E+00 0.  1.
</event>
<event>
 7    1  0.2490079E-009  0.1244168E+03  0.7561462E-02  0.1235984E+00
          1   -1    0    0  501    0  0.00000000000E+00  0.00000000000E+00  0.24811694400E+03  0.24811694400E+03  0.00000000000E+00 0. -1.
         -1   -1    0    0    0  501 -0.00000000000E+00 -0.00000000000E+00 -0.97495705908E+02  0.97495705908E+02  0.00000000000E+00 0.  1.
         25    2    1    2    0    0 -0.12795960398E+02  0.10265810138E+03  0.12467038847E+03  0.20467735000E+03  0.12509072491E+03 0.  0.
          5    1    3    3  502    0 -0.18490959828E+02  0.20636031269E+02  0.11889134997E+03  0.12214903552E+03  0.41800000000E+01 0.  1.
         -5    1    3    3    0  502  0.56949994295E+01  0.82022070113E+02  0.57790385007E+01  0.82528314475E+02  0.41800000000E+01 0.  1.
        -11    1    1    2    0    0 -0.20211658687E+02 -0.10351244376E+03  0.18323814340E+02  0.10704718274E+03  0.00000000000E+00 0. -1.
         11    1    1    2    0    0  0.33007619085E+02  0.85434237714E+00  0.76270352869E+01  0.33888117178E+02  0.00000000000E+00 0.  1.
</event>
<event>
 7    1  0.2490079E-009  0.1259232E+03  0.7561462E-02  0.1233633E+00
         -2   -1    0    0    0  501 -0.00000000000E+00  0.00000000000E+00  0.16628832116E+02  0.16628832116E+02  0.00000000000E+00 0.  1.
          2   -1    0    0  501    0  0.00000000000E+00 -0.00000000000E+00 -0.10104737812E+04  0.10104737812E+04  0.00000000000E+00 0. -1.
         25    2    1    2    0    0  0.65015728941E+02  0.27452183154E+02 -0.54233156864E+03  0.56102590898E+03  0.12508346346E+03 0.  0.
          5    1    3    3  502    0  0.99885415515E+02  0.11530260203E+02 -0.44705917770E+03  0.45824602988E+03  0.41800000000E+01 0. -1.
         -5    1    3    3    0  502 -0.34869686574E+02  0.15921922951E+02 -0.95272390942E+02  0.10277987910E+03  0.41800000000E+01 0. -1.
        -11    1    1    2    0    0  0.10189200093E+02 -0.35577883023E+02 -0.20151934684E+03  0.20488936700E+03  0.00000000000E+00 0. -1.
         11    1    1    2    0    0 -0.75204929034E+02  0.81256998683E+01 -0.24999403362E+03  0.26118733736E+03  0.00000000000E+00 0.  1.
</event>
<event>
 7    1  0.2490079E-009  0.1228056E+03  0.7561462E-02  0.1238539E+00
          2   -1    0    0  501    0  0.00000000000E+00  0.00000000000E+00  0.65957379260E+03  0.65957379260E+03  0.00000000000E+00 0. -1.
         -2   -1    0    0    0  501 -0.00000000000E+00 -0.00000000000E+00 -0.33619630273E+02  0.33619630273E+02  0.00000000000E+00 0.  1.
         25    2    1    2    0    0  0.75961352393E+02 -0.67165661816E+02  0.36363419914E+03  0.39769150995E+03  0.12508938054E+03 0.  0.
          5    1    3    3  502    0  0.18083703530E+01 -0.34715195235E+02  0.27642787993E+03  0.27863643011E+03  0.41800000000E+01 0. -1.
         -5    1    3    3    0  502  0.74152982040E+02 -0.32450466581E+02  0.87206319207E+02  0.11905507984E+03  0.41800000000E+01 0. -1.
        -11    1    1    2    0    0 -0.49089573565E+02  0.84390508357E+02  0.23099880351E+03  0.25078275729E+03  0.00000000000E+00 0.  1.
         11    1    1    2    0    0 -0.26871778828E+02 -0.17224846542E+02  0.31321159679E+02  0.44719155620E+02  0.00000000000E+00 0. -1.
</event>
<event>
 7    1  0.2490079E-009  0.9244282E+02  0.7561462E-02  0.1297042E+00
         -1   -1    0    0    0  501 -0.00000000000E+00  0.00000000000E+00  0.91095094937E+02  0.91095094937E+02  0.00000000000E+00 0.  1.
          1   -1    0    0  501    0  0.00000000000E+00 -0.00000000000E+00 -0.25109892826E+03  0.25109892826E+03  0.00000000000E+00 0. -1.
         25    2    1    2    0    0 -0.16550525782E+02  0.55101852613E+02 -0.18726082994E+03  0.23243111839E+03  0.12508985692E+03 0.  0.
          5    1    3    3  502    0 -0.15184932554E+01 -0.35247198238E+02 -0.17752627465E+02  0.39715223622E+02  0.41800000000E+01 0.  1.
         -5    1    3    3    0  502 -0.15032032526E+02  0.90349050851E+02 -0.16950820247E+03  0.19271589477E+03  0.41800000000E+01 0.  1.
        -11    1    1    2    0    0  0.79714172726E+01 -0.19825093406E+02 -0.33059098313E+02  0.39363457714E+02  0.00000000000E+00 0. -1.
         11    1    1    2    0    0  0.85791085093E+01 -0.35276759206E+02  0.60316094930E+02  0.70399447090E+02  0.00000000000E+00 0.  1.
</event>
<event>
 7    1  0.2490079E-009  0.1955030E+03  0.7561462E-02  0.1153590E+00
         -1   -1    0    0    0  501 -0.00000000000E+00  0.00000000000E+00  0.83084233338E+02  0.83084233338E+02  0.00000000000E+00 0.  1.
          1   -1    0    0  501    0  0.00000000000E+00 -0.00000000000E+00 -0.61729093207E+03  0.61729093207E+03  0.00000000000E+00 0. -1.
         25    2    1    2    0    0 -0.18896514368E+03 -0.50177777416E+01 -0.18406065859E+03  0.29199137954E+03  0.12509051150E+03 0.  0.
          5    1    3    3  502    0 -0.49881431576E+02  0.27181349566E+02 -0.12513633776E+03  0.13749021205E+03  0.41800000000E+01 0.  1.
         -5    1    3    3    0  502 -0.13908371210E+03 -0.32199127308E+02 -0.58924320830E+02  0.15450116749E+03  0.41800000000E+01 0.  1.
        -11    1    1    2    0    0  0.17967234140E+02 -0.81276916551E+01 -0.14248901348E+01  0.19771474052E+02  0.00000000000E+00 0.  1.
         11    1    1    2    0    0  0.17099790954E+03  0.13145469397E+02 -0.34872115001E+03  0.38861231182E+03  0.00000000000E+00 0. -1.
</event>
<event>
 7    1  0.2490079E-009  0.7944161E+02  0.7561462E-02  0.1330644E+00
         -2   -1    0    0    0  501 -0.00000000000E+00  0.00000000000E+00  0.11244668566E+03  0.11244668566E+03  0.00000000000E+00 0.  1.
          2   -1    0    0  501    0  0.00000000000E+00 -0.00000000000E+00 -0.10544414728E+03  0.10544414728E+03  0.00000000000E+00 0. -1.
         25    2    1    2    0    0  0.42871730345E+02  0.27041200127E+02 -0.13584164802E+02  0.13566413910E+03  0.12510402606E+03 0.  0.
          5    1    3    3  502    0 -0.12173117144E+02  0.47582955370E+02  0.34051754417E+02  0.59910907201E+02  0.41800000000E+01 0. -1.
         -5    1    3    3    0  502  0.55044847489E+02 -0.20541755243E+02 -0.47635919218E+02  0.75753231900E+02  0.41800000000E+01 0. -1.
        -11    1    1    2    0    0 -0.18050437054E+02 -0.11613268353E+02  0.41205185170E+02  0.46460236381E+02  0.00000000000E+00 0.  1.
         11    1    1    2    0    0 -0.24821293291E+02 -0.15427931773E+02 -0.20618481984E+02  0.35766457453E+02  0.00000000000E+00 0. -1.
</event>
<event>
 7    1  0.2490079E-009  0.1438319E+03  0.7561462E-02  0.1208264E+00
         -2   -1    0    0    0  501 -0.00000000000E+00  0.00000000000E+00  0.32936128520E+02  0.32936128520E+02  0.00000000000E+00 0.  1.
          2   -1    0    0  501    0  0.00000000000E+00 -0.00000000000E+00 -0.73279295789E+03  0.73279295789E+03  0.00000000000E+00 0. -1.
         25    2    1    2    0    0 -0.55448692274E+02 -0.94807618021E+02 -0.43106408276E+03  0.46208972669E+03  0.12509048789E+03 0.  0.
          5    1    3    3  502    0 -0.37487823626E+02  0.11022342593E+02 -0.38204762320E+02  0.54807893778E+02  0.41800000000E+01 0. -1.
         -5    1    3    3    0  502 -0.17960868648E+02 -0.10582996061E+03 -0.39285932044E+03  0.40728183291E+03  0.41800000000E+01 0. -1.
        -11    1    1    2    0    0  0.79043855235E+02  0.61636209481E+02 -0.18205535836E+03  0.20782470228E+03  0.00000000000E+00 0.  1.
         11    1    1    2    0    0 -0.23595162961E+02  0.33171408540E+02 -0.86737388258E+02  0.95814657447E+02  0.00000000000E+00 0. -1.
</event>
<event>
 7    1  0.2490079E-009  0.1364798E+03  0.7561462E-02  0.1218146E+00
          3   -1    0    0  501    0  0.00000000000E+00  0.00000000000E+00  0.21251048856E+02  0.21251048856E+02  0.00000000000E+00 0. -1.
         -3   -1    0    0    0  501 -0.00000000000E+00 -0.00000000000E+00 -0.10936419344E+04  0.10936419344E+04  0.00000000000E+00 0.  1.
         25    2    1    2    0    0  0.13995058263E+02  0.99966404355E+02 -0.46659904496E+03  0.49350908769E+03  0.12508959676E+03 0.  0.
          5    1    3    3  502    0 -0.36001308013E+02  0.10332349243E+03 -0.34374923317E+03  0.36076702450E+03  0.41800000000E+01 0. -1.
         -5    1    3    3    0  502  0.49996366276E+02 -0.33570880743E+01 -0.12284981180E+03  0.13274206319E+03  0.41800000000E+01 0. -1.
        -11    1    1    2    0    0 -0.25370087374E+02 -0.98496334273E+02 -0.59995305035E+03  0.60851362501E+03  0.00000000000E+00 0.  1.
         11    1    1    2    0    0  0.11375029111E+02 -0.14700700821E+01 -0.58387902716E+01  0.12870270594E+02  0.00000000000E+00 0. -1.
</event>
<event>
 7    1  0.2490079E-009  0.5691635E+02  0.7561462E-02  0.1411248E+00
         -1   -1    0    0    0  501 -0.00000000000E+00  0.00000000000E+00  0.28700491506E+03  0.28700491506E+03  0.00000000000E+00 0.  1.
          1   -1    0    0  501    0  0.00000000000E+00 -0.00000000000E+00 -0.40271597381E+02  0.40271597381E+02  0.00000000000E+00 0. -1.
         25    2    1    2    0    0 -0.23561625602E+02  0.37342223433E+01  0.14641876345E+03  0.19405632933E+03  0.12510119922E+03 0.  0.
          5    1    3    3  502    0  0.24005078868E+02 -0.17652023741E+02 -0.79009620747E+01  0.31108445080E+02  0.41800000000E+01 0.  1.
         -5    1    3    3    0  502 -0.47566704470E+02  0.21386246084E+02  0.15431972552E+03  0.16294788425E+03  0.41800000000E+01 0.  1.
        -11    1    1    2    0    0  0.73522740397E+01  0.84093603202E+01 -0.13554395324E+02  0.17564023091E+02  0.00000000000E+00 0. -1.
         11    1    1    2    0    0  0.16209351562E+02 -0.12143582664E+02  0.11386894955E+03  0.11565616002E+03  0.00000000000E+00 0.  1.
</event>
<event>
 7    1  0.2490079E-009  0.1148452E+03  0.7561462E-02  0.1251852E+00
         -2   -1    0    0    0  501 -0.00000000000E+00  0.00000000000E+00  0.60425999679E+02  0.60425999679E+02  0.00000000000E+00 0.  1.
          2   -1    0    0  501    0  0.00000000000E+00 -0.00000000000E+00 -0.25002870027E+03  0.25002870027E+03  0.00000000000E+00 0. -1.
         25    2    1    2    0    0  0.22645695090E+02  0.30555125921E+02 -0.15657241441E+03  0.20398160163E+03  0.12508848718E+03 0.  0.
          5    1    3    3  502    0 -0.36417455853E+02 -0.28770480769E+02 -0.49159199821E+02  0.67735300852E+02  0.41800000000E+01 0. -1.
         -5    1    3    3    0  502  0.59063150943E+02  0.59325606690E+02 -0.10741321459E+03  0.13624630078E+03  0.41800000000E+01 0. -1.
        -11    1    1    2    0    0 -0.58511660166E+02 -0.16994018801E+02 -0.10001196319E+02  0.61744918643E+02  0.00000000000E+00 0.  1.
         11    1    1    2    0    0  0.35865965076E+02 -0.13561107121E+02 -0.23029089870E+02  0.44728179679E+02  0.00000000000E+00 0. -1.
</event>
<event>
 7    1  0.2490079E-009  0.2107248E+03  0.7561462E-02  0.1140993E+00
         -2   -1    0    0    0  501 -0.00000000000E+00  0.00000000000E+00  0.99775230905E+02  0.99775230905E+02  0.00000000000E+00 0. -1.
          2   -1    0    0  501    0  0.00000000000E+00 -0.00000000000E+00 -0.53299705758E+03  0.53299705758E+03  0.00000000000E+00 0.  1.
         25    2    1    2    0    0 -0.94387987597E+02  0.15597147638E+03 -0.33926543295E+03  0.40495271872E+03  0.12509786873E+03 0.  0.
          5    1    3    3  502    0 -0.70969943061E+02  0.17514775619E+03 -0.30690556056E+03  0.36044689598E+03  0.41800000000E+01 0.  1.
         -5    1    3    3    0  502 -0.23418044536E+02 -0.19176279812E+02 -0.32359872390E+02  0.44505822748E+02  0.41800000000E+01 0.  1.
        -11    1    1    2    0    0 -0.21982955166E+01 -0.77205906428E+02 -0.62298575531E+02  0.99230524556E+02  0.00000000000E+00 0.  1.
         11    1    1    2    0    0  0.96586283114E+02 -0.78765569947E+02 -0.31657818195E+02  0.12858904521E+03  0.00000000000E+00 0. -1.
</event>
<event>
 7    1  0.2490079E-009  0.1214977E+03  0.7561462E-02  0.1240647E+00
          1   -1    0    0  501    0  0.00000000000E+00  0.00000000000E+00  0.64980741890E+03  0.64980741890E+03  0.00000000000E+00 0. -1.
         -1   -1    0    0    0  501 -0.00000000000E+00 -0.00000000000E+00 -0.39200516122E+02  0.39200516122E+02  0.00000000000E+00 0.  1.
         25    2    1    2    0    0  0.10166186718E+03 -0.71331682692E+01  0.20370765975E+03  0.25985979034E+03  0.12507710688E+03 0.  0.
          5    1    3    3  502    0  0.10113777731E+03  0.20674916937E+02  0.20718974364E+03  0.23151968482E+03  0.41800000000E+01 0.  1.
         -5    1    3    3    0  502  0.52408987250E+00 -0.27808085206E+02 -0.34820838817E+01  0.28340105525E+02  0.41800000000E+01 0.  1.
        -11    1    1    2    0    0 -0.32070743935E+02 -0.18934347178E+02  0.39422161996E+02  0.54232360967E+02  0.00000000000E+00 0.  1.
         11    1    1    2    0    0 -0.69591123249E+02  0.26067515447E+02  0.36747708103E+03  0.37491578372E+03  0.00000000000E+00 0. -1.
</event>
<event>
 7    1  0.2490079E-009  0.1094836E+03  0.7561462E-02  0.1261529E+00
          1   -1    0    0  501    0  0.00000000000E+00  0.00000000000E+00  0.52589701646E+02  0.52589701646E+02  0.00000000000E+00 0. -1.
         -1   -1    0    0    0  501 -0.00000000000E+00 -0.00000000000E+00 -0.42908403999E+03  0.42908403999E+03  0.00000000000E+00 0.  1.
         25    2    1    2    0    0 -0.35116760228E+01 -0.83292006665E+02 -0.10644102619E+03  0.18419172772E+03  0.12508801006E+03 0.  0.
          5    1    3    3  502    0 -0.35622605940E+01  0.21067671652E+02  0.13133426057E+02  0.25426281076E+02  0.41800000000E+01 0.  1.
         -5    1    3    3    0  502  0.50584571121E-01 -0.10435967832E+03 -0.11957445224E+03  0.15876544664E+03  0.41800000000E+01 0.  1.
        -11    1    1    2    0    0  0.22108645777E+02  0.48509104988E+02 -0.47315383902E+02  0.71278826019E+02  0.00000000000E+00 0. -1.
         11    1    1    2    0    0 -0.18596969755E+02  0.34782901676E+02 -0.22273792825E+03  0.22620318790E+03  0.00000000000E+00 0.  1.
</event>
<event>
 7    1  0.2490079E-009  0.9254289E+02  0.7561462E-02  0.1296808E+00
          2   -1    0    0  501    0  0.00000000000E+00  0.00000000000E+00  0.96308414292E+02  0.96308414292E+02  0.00000000000E+00 0.  1.
         -2   -1    0    0    0  501 -0.00000000000E+00 -0.00000000000E+00 -0.12542299894E+03  0.12542299894E+03  0.00000000000E+00 0. -1.
         25    2    1    2    0    0  0.10171818380E+01 -0.18108156516E+01 -0.34054953578E+02  0.12965800812E+03  0.12508855061E+03 0.  0.
          5    1    3    3  502    0  0.59344159739E+02 -0.17245248014E+02 -0.38606977443E+01  0.62060496785E+02  0.41800000000E+01 0.  1.
         -5    1    3    3    0  502 -0.58326977901E+02  0.15434432362E+02 -0.30194255834E+02  0.67597511335E+02  0.41800000000E+01 0.  1.
        -11    1    1    2    0    0  0.27378426854E+02  0.15153358660E+02  0.36155117550E+02  0.47816263559E+02  0.00000000000E+00 0.  1.
         11    1    1    2    0    0 -0.28395608692E+02 -0.13342543009E+02 -0.31214748617E+02  0.44257141550E+02  0.00000000000E+00 0. -1.
</event>
<event>
 7    1  0.2490079E-009  0.1006544E+03  0.7561462E-02  0.1278926E+00
         -1   -1    0    0    0  501 -0.00000000000E+00  0.00000000000E+00  0.72691053316E+02  0.72691053316E+02  0.00000000000E+00 0.  1.
          1   -1    0    0  501    0  0.00000000000E+00 -0.00000000000E+00 -0.17186126164E+03  0.17186126164E+03  0.00000000000E+00 0. -1.
         25    2    1    2    0    0  0.16757945019E+02  0.15422465494E+02 -0.69357473004E+02  0.14483307058E+03  0.12508988012E+03 0.  0.
          5    1    3    3  502    0 -0.46346199455E+02  0.79112985176E+01  0.43741297456E+01  0.47404264146E+02  0.41800000000E+01 0. -1.
         -5    1    3    3    0  502  0.63104144474E+02  0.75111669762E+01 -0.73731602749E+02  0.97428806434E+02  0.41800000000E+01 0. -1.
        -11    1    1    2    0    0  0.34711521019E+02  0.49550005607E+01 -0.27066023822E+02  0.44294597499E+02  0.00000000000E+00 0.  1.
         11    1    1    2    0    0 -0.51469466038E+02 -0.20377466054E+02 -0.27467114947E+01  0.55424646874E+02  0.00000000000E+00 0. -1.
</event>
<event>
 7    1  0.2490079E-009  0.1911208E+03  0.7561462E-02  0.1157454E+00
         -2   -1    0    0    0  501 -0.00000000000E+00  0.00000000000E+00  0.69248890786E+02  0.69248890786E+02  0.00000000000E+00 0.  1.
          2   -1    0    0  501    0  0.00000000000E+00 -0.00000000000E+00 -0.66348599609E+03  0.66348599609E+03  0.00000000000E+00 0. -1.
         25    2    1    2    0    0  0.14429679769E+03  0.94747303698E+02 -0.19852601774E+03  0.29130551486E+03  0.12509079057E+03 0.  0.
          5    1    3    3  502    0  0.12158898801E+03  0.14413616335E+02 -0.80176382083E+02  0.14641502309E+03  0.41800000000E+01 0. -1.
         -5    1    3    3    0  502  0.22707809681E+02  0.80333687364E+02 -0.11834963565E+03  0.14489049177E+03  0.41800000000E+01 0. -1.
        -11    1    1    2    0    0 -0.10124284845E+03 -0.84535902097E+02 -0.36352588269E+03  0.38671371904E+03  0.00000000000E+00 0. -1.
         11    1    1    2    0    0 -0.43053949241E+02 -0.10211401601E+02 -0.32185204873E+02  0.54715652976E+02  0.00000000000E+00 0.  1.
</event>
<event>
 7    1  0.2490079E-009  0.1328951E+03  0.7561462E-02  0.1223222E+00
         -2   -1    0    0    0  501 -0.00000000000E+00  0.00000000000E+00  0.33227501618E+02  0.33227501618E+02  0.00000000000E+00 0.  1.
          2   -1    0    0  501    0  0.00000000000E+00 -0.00000000000E+00 -0.60572407825E+03  0.60572407825E+03  0.00000000000E+00 0. -1.
         25    2    1    2    0    0  0.51189801471E+02 -0.71975518311E+02 -0.25713332181E+03  0.29927584332E+03  0.12509042410E+03 0.  0.
          5    1    3    3  502    0  0.69590996669E+02 -0.95951425355E+02 -0.17275287988E+03  0.20954859282E+03  0.41800000000E+01 0.  1.
         -5    1    3    3    0  502 -0.18401195198E+02  0.23975907045E+02 -0.84380441927E+02  0.89727250505E+02  0.41800000000E+01 0.  1.
        -11    1    1    2    0    0  0.17437399253E+02  0.34074200101E+02 -0.49970720688E+02  0.62945904802E+02  0.00000000000E+00 0.  1.
         11    1    1    2    0    0 -0.68627200724E+02  0.37901318209E+02 -0.26539253414E+03  0.27672983174E+03  0.00000000000E+00 0. -1.
</event>
<event>
 7    1  0.2490079E-009  0.1430040E+03  0.7561462E-02  0.1209343E+00
         -2   -1    0    0    0  501 -0.00000000000E+00  0.00000000000E+00  0.20046494925E+03  0.20046494925E+03  0.00000000000E+00 0.  1.
          2   -1    0    0  501    0  0.00000000000E+00 -0.00000000000E+00 -0.32510313994E+03  0.32510313994E+03  0.00000000000E+00 0. -1.
         25    2    1    2    0    0 -0.12315736907E+03  0.36590372302E+02 -0.26129764912E+03  0.31690791277E+03  0.12509025078E+03 0.  0.
          5    1    3    3  502    0 -0.98110532274E+02  0.31007620009E+02 -0.27041224531E+03  0.28935687975E+03  0.41800000000E+01 0.  1.
         -5    1    3    3    0  502 -0.25046836797E+02  0.55827522936E+01  0.91145961963E+01  0.27551033021E+02  0.41800000000E+01 0.  1.
        -11    1    1    2    0    0  0.10802704808E+03  0.95726175213E+01  0.85404267928E+02  0.13804117902E+03  0.00000000000E+00 0. -1.
         11    1    1    2    0    0  0.15130320986E+02 -0.46162989824E+02  0.51255190496E+02  0.70618997411E+02  0.00000000000E+00 0.  1.
</event>
<event>
 7    1  0.2490079E-009  0.1297281E+03  0.7561462E-02  0.1227860E+00
          1   -1    0    0  501    0  0.00000000000E+00  0.00000000000E+00  0.55881056909E+03  0.55881056909E+03  0.00000000000E+00 0. -1.
         -1   -1    0    0    0  501 -0.00000000000E+00 -0.00000000000E+00 -0.55275541572E+02  0.55275541572E+02  0.00000000000E+00 0.  1.
         25    2    1    2    0    0 -0.51181319038E+01 -0.10575053374E+03  0.42340460091E+03  0.45401527293E+03  0.12509612833E+03 0.  0.
          5    1    3    3  502    0 -0.27750578713E+02 -0.19906102198E+02  0.29983981004E+03  0.30180744127E+03  0.41800000000E+01 0.  1.
         -5    1    3    3    0  502  0.22632446809E+02 -0.85844431537E+02  0.12356479087E+03  0.15220783166E+03  0.41800000000E+01 0.  1.
        -11    1    1    2    0    0  0.34621041549E+02  0.10082371939E+02  0.87212545378E+01  0.37098935599E+02  0.00000000000E+00 0.  1.
         11    1    1    2    0    0 -0.29502909645E+02  0.95668161797E+02  0.71409172077E+02  0.12297190214E+03  0.00000000000E+00 0. -1.
</event>
<event>
 7    1  0.2490079E-009  0.1804035E+03  0.7561462E-02  0.1167413E+00
         -1   -1    0    0    0  501 -0.00000000000E+00  0.00000000000E+00  0.56711264431E+02  0.56711264431E+02  0.00000000000E+00 0.  1.
          1   -1    0    0  501    0  0.00000000000E+00 -0.00000000000E+00 -0.78690034161E+03  0.78690034161E+03  0.00000000000E+00 0. -1.
         25    2    1    2    0    0 -0.16640351288E+03  0.13733563558E+02 -0.51462080650E+03  0.55530294872E+03  0.12509216803E+03 0.  0.
          5    1    3    3  502    0 -0.14736277063E+03  0.36993854881E+02 -0.27881831304E+03  0.31755543698E+03  0.41800000000E+01 0.  1.
         -5    1    3    3    0  502 -0.19040742257E+02 -0.23260291323E+02 -0.23580249346E+03  0.23774751174E+03  0.41800000000E+01 0.  1.
        -11    1    1    2    0    0  0.12936881968E+03  0.16815047525E+02 -0.10396140523E+03  0.16681430126E+03  0.00000000000E+00 0.  1.
         11    1    1    2    0    0  0.37034693205E+02 -0.30548611083E+02 -0.11160686544E+03  0.12149435606E+03  0.00000000000E+00 0. -1.
</event>
<event>
 7    1  0.2490079E-009  0.1146849E+03  0.7561462E-02  0.1252132E+00
         -2   -1    0    0    0  501 -0.00000000000E+00  0.00000000000E+00  0.17490493220E+02  0.17490493220E+02  0.00000000000E+00 0.  1.
          2   -1    0    0  501    0  0.00000000000E+00 -0.00000000000E+00 -0.89320994423E+03  0.89320994423E+03  0.00000000000E+00 0. -1.
         25    2    1    2    0    0  0.24994488602E+02  0.46076805140E+02 -0.60577932297E+03  0.62077642627E+03  0.12508791644E+03 0.  0.
          5    1    3    3  502    0  0.52949806813E+02  0.74871511157E+02 -0.35020511628E+03  0.36203662949E+03  0.41800000000E+01 0. -1.
         -5    1    3    3    0  502 -0.27955318211E+02 -0.28794706017E+02 -0.25557420669E+03  0.25873979677E+03  0.41800000000E+01 0. -1.
        -11    1    1    2    0    0  0.27754378149E+02 -0.32530525234E+02 -0.64495181982E+02  0.77383260963E+02  0.00000000000E+00 0.  1.
         11    1    1    2    0    0 -0.52748866750E+02 -0.13546279906E+02 -0.20544494605E+03  0.21254075021E+03  0.00000000000E+00 0. -1.
</event>
<event>
 7    1  0.2490079E-009  0.1255185E+03  0.7561462E-02  0.1234261E+00
          2   -1    0    0  501    0  0.00000000000E+00  0.00000000000E+00  0.34173926566E+03  0.34173926566E+03  0.00000000000E+00 0. -1.
         -2   -1    0    0    0  501 -0.00000000000E+00 -0.00000000000E+00 -0.66794188336E+02  0.66794188336E+02  0.00000000000E+00 0.  1.
         25    2    1    2    0    0  0.35668967970E+01 -0.10469930007E+03  0.15426074514E+03  0.22453845891E+03  0.12508587390E+03 0.  0.
          5    1    3    3  502    0  0.30063404769E+02 -0.82711024743E+02  0.26279117981E+02  0.91940123788E+02  0.41800000000E+01 0. -1.
         -5    1    3    3    0  502 -0.26496507972E+02 -0.21988275328E+02  0.12798162715E+03  0.13259833512E+03  0.41800000000E+01 0. -1.
        -11    1    1    2    0    0 -0.28569426590E+02  0.98400739387E+02  0.12054786193E+03  0.15821094989E+03  0.00000000000E+00 0. -1.
         11    1    1    2    0    0  0.25002529793E+02  0.62985606843E+01  0.13647025257E+00  0.25784045200E+02  0.00000000000E+00 0.  1.
</event>
<event>
 7    1  0.2490079E-009  0.1382213E+03  0.7561462E-02  0.1215743E+00
         -2   -1    0    0    0  501 -0.00000000000E+00  0.00000000000E+00  0.87450745919E+02  0.87450745919E+02  0.00000000000E+00 0.  1.
          2   -1    0    0  501    0  0.00000000000E+00 -0.00000000000E+00 -0.33963270027E+03  0.33963270027E+03  0.00000000000E+00 0. -1.
         25    2    1    2    0    0 -0.76173099521E+02  0.46271674384E+02 -0.25629682269E+03  0.29879473460E+03  0.12508726220E+03 0.  0.
          5    1    3    3  502    0 -0.86624240843E+02 -0.15331543785E+02 -0.17746555017E+03  0.19811690799E+03  0.41800000000E+01 0. -1.
         -5    1    3    3    0  502  0.10451141322E+02  0.61603218169E+02 -0.78831272521E+02  0.10067782661E+03  0.41800000000E+01 0. -1.
        -11    1    1    2    0    0  0.45970934917E+02  0.22097906310E+02 -0.10636604835E+02  0.52103566892E+02  0.00000000000E+00 0.  1.
         11    1    1    2    0    0  0.30202164604E+02 -0.68369580694E+02  0.14751473174E+02  0.76185144693E+02  0.00000000000E+00 0. -1.
</event>
<event>
 7    1  0.2490079E-009  0.1320888E+03  0.7561462E-02  0.1224389E+00
         -1   -1    0    0    0  501 -0.00000000000E+00  0.00000000000E+00  0.15647731319E+03  0.15647731319E+03  0.00000000000E+00 0.  1.
          1   -1    0    0  501    0  0.00000000000E+00 -0.00000000000E+00 -0.16834105301E+03  0.16834105301E+03  0.00000000000E+00 0. -1.
         25    2    1    2    0    0  0.35848528480E+02  0.68519982699E+02  0.87064798002E+02  0.17090277023E+03  0.12508945918E+03 0.  0.
          5    1    3    3  502    0 -0.42809707328E+02  0.50182125287E+02  0.36129733510E+02  0.75324277517E+02  0.41800000000E+01 0.  1.
         -5    1    3    3    0  502  0.78658235809E+02  0.18337857412E+02  0.50935064492E+02  0.95578492715E+02  0.41800000000E+01 0.  1.
        -11    1    1    2    0    0 -0.61474101811E+02 -0.24305951160E+02 -0.47393966004E+02  0.81338997221E+02  0.00000000000E+00 0.  1.
         11    1    1    2    0    0  0.25625573331E+02 -0.44214031539E+02 -0.51534571817E+02  0.72576598748E+02  0.00000000000E+00 0. -1.
</event>
<event>
 7    1  0.2490079E-009  0.1066473E+03  0.7561462E-02  0.1266908E+00
         -1   -1    0    0    0  501 -0.00000000000E+00  0.00000000000E+00  0.75195822118E+02  0.75195822118E+02  0.00000000000E+00 0.  1.
          1   -1    0    0  501    0  0.00000000000E+00 -0.00000000000E+00 -0.39181155420E+03  0.39181155420E+03  0.00000000000E+00 0. -1.
         25    2    1    2    0    0 -0.37966953054E+02  0.28180734822E+02 -0.33579548994E+03  0.36144477467E+03  0.12509224889E+03 0.  0.
          5    1    3    3  502    0 -0.60215802282E+02  0.52400310567E+02 -0.12719095752E+03  0.15022232679E+03  0.41800000000E+01 0.  1.
         -5    1    3    3    0  502  0.22248849228E+02 -0.24219575745E+02 -0.20860453242E+03  0.21122244787E+03  0.41800000000E+01 0.  1.
        -11    1    1    2    0    0  0.34781742805E+02  0.27560734950E+02  0.22255682717E+02  0.49645535114E+02  0.00000000000E+00 0. -1.
         11    1    1    2    0    0  0.31852102491E+01 -0.55741469772E+02 -0.30759248659E+01  0.55917066540E+02  0.00000000000E+00 0.  1.
</event>
<event>
 7    1  0.2490079E-009  0.1113465E+03  0.7561462E-02  0.1258096E+00
          1   -1    0    0  501    0  0.00000000000E+00  0.00000000000E+00  0.24143685832E+03  0.24143685832E+03  0.00000000000E+00 0. -1.
         -1   -1    0    0    0  501 -0.00000000000E+00 -0.00000000000E+00 -0.56695244396E+02  0.56695244396E+02  0.00000000000E+00 0.  1.
         25    2    1    2    0    0  0.33554092557E+02  0.27166683756E+02  0.92477425952E+02  0.16143870130E+03  0.12508586703E+03 0.  0.
          5    1    3    3  502    0 -0.18842242886E+02 -0.36440546049E+02  0.55901285582E+01  0.41613284545E+02  0.41800000000E+01 0.  1.
         -5    1    3    3    0  502  0.52396335443E+02  0.63607229805E+02  0.86887297394E+02  0.11982541675E+03  0.41800000000E+01 0.  1.
        -11    1    1    2    0    0  0.29954087421E+02 -0.22374917408E+00  0.16391389348E+02  0.34146376992E+02  0.00000000000E+00 0.  1.
         11    1    1    2    0    0 -0.63508179979E+02 -0.26942934582E+02  0.75872798625E+02  0.10254702443E+03  0.00000000000E+00 0. -1.
</event>
<event>
 7    1  0.2490079E-009  0.1018775E+03  0.7561462E-02  0.1276397E+00
         -1   -1    0    0    0  501 -0.00000000000E+00  0.00000000000E+00  0.58049330921E+02  0.58049330921E+02  0.00000000000E+00 0.  1.
          1   -1    0    0  501    0  0.00000000000E+00 -0.00000000000E+00 -0.35725914965E+03  0.35725914965E+03  0.00000000000E+00 0. -1.
         25    2    1    2    0    0  0.26033517869E+02 -0.73987013073E+02 -0.87326510954E+02  0.17152657612E+03  0.12507447640E+03 0.  0.
          5    1    3    3  502    0 -0.59678536067E+01 -0.81164834898E+01  0.30690787280E+02  0.32571297253E+02  0.41800000000E+01 0.  1.
         -5    1    3    3    0  502  0.32001371476E+02 -0.65870529583E+02 -0.11801729823E+03  0.13895527887E+03  0.41800000000E+01 0.  1.
        -11    1    1    2    0    0  0.15927949169E+02 -0.14515480911E+02 -0.51911135183E+02  0.56206447199E+02  0.00000000000E+00 0. -1.
         11    1    1    2    0    0 -0.41961467039E+02  0.88502493983E+02 -0.15997217259E+03  0.18757545725E+03  0.00000000000E+00 0.  1.
</event>
<event>
 7    1  0.2490079E-009  0.1706148E+03  0.7561462E-02  0.1177208E+00
          4   -1    0    0  501    0  0.00000000000E+00  0.00000000000E+00  0.58585067017E+02  0.58585067017E+02  0.00000000000E+00 0. -1.
         -4   -1    0    0    0  501 -0.00000000000E+00 -0.00000000000E+00 -0.85209570161E+03  0.85209570161E+03  0.00000000000E+00 0.  1.
         25    2    1    2    0    0  0.12017960328E+03 -0.89580022803E+02 -0.66483975355E+03  0.69291314264E+03  0.12509599442E+03 0.  0.
          5    1    3    3  502    0  0.12068517119E+03 -0.21375991893E+02 -0.49204564526E+03  0.50709785347E+03  0.41800000000E+01 0.  1.
         -5    1    3    3    0  502 -0.50556790848E+00 -0.68204030911E+02 -0.17279410828E+03  0.18581528917E+03  0.41800000000E+01 0.  1.
        -11    1    1    2    0    0 -0.27827218498E+02  0.15390866406E+02 -0.86274576113E+02  0.91948547251E+02  0.00000000000E+00 0.  1.
         11    1    1    2    0    0 -0.92352384779E+02  0.74189156397E+02 -0.42396304930E+02  0.12581907873E+03  0.00000000000E+00 0. -1.
</event>
<event>
 7    1  0.2490079E-009  0.1016472E+03  0.7561462E-02  0.1276870E+00
         -1   -1    0    0    0  501 -0.00000000000E+00  0.00000000000E+00  0.78437661477E+02  0.78437661477E+02  0.00000000000E+00 0.  1.
          1   -1    0    0  501    0  0.00000000000E+00 -0.00000000000E+00 -0.24597775690E+03  0.24597775690E+03  0.00000000000E+00 0. -1.
         25    2    1    2    0    0  0.14156252843E+02  0.80020958154E+02 -0.54914711993E+02  0.15895826127E+03  0.12509336510E+03 0.  0.
          5    1    3    3  502    0  0.24143591060E+02  0.80924833251E+01  0.34886981975E+02  0.43393262000E+02  0.41800000000E+01 0.  1.
         -5    1    3    3    0  502 -0.99873382169E+01  0.71928474829E+02 -0.89801693968E+02  0.11556499927E+03  0.41800000000E+01 0.  1.
        -11    1    1    2    0    0 -0.27952083834E+02 -0.85465053411E+02 -0.53788407217E+02  0.10477970746E+03  0.00000000000E+00 0.  1.
         11    1    1    2    0    0  0.13795830991E+02  0.54440952572E+01 -0.58836976210E+02  0.60677449645E+02  0.00000000000E+00 0. -1.
</event>
<event>
 7    1  0.2490079E-009  0.1117712E+03  0.7561462E-02  0.1257325E+00
          1   -1    0    0  501    0  0.00000000000E+00  0.00000000000E+00  0.42650779872E+03  0.42650779872E+03  0.00000000000E+00 0. -1.
         -1   -1    0    0    0  501 -0.00000000000E+00 -0.00000000000E+00 -0.50704811353E+02  0.50704811353E+02  0.00000000000E+00 0.  1.
         25    2    1    2    0    0  0.89503871352E+02  0.37445434403E+02  0.17871411214E+03  0.23874240614E+03  0.12508436779E+03 0.  0.
          5    1    3    3  502    0  0.76390245338E+02  0.61638370728E+02  0.18566236905E+03  0.21005415019E+03  0.41800000000E+01 0. -1.
         -5    1    3    3    0  502  0.13113626014E+02 -0.24192936325E+02 -0.69482569141E+01  0.28688255949E+02  0.41800000000E+01 0. -1.
        -11    1    1    2    0    0 -0.64673288643E+02 -0.31467356737E+02  0.46306682085E+02  0.85540268936E+02  0.00000000000E+00 0.  1.
         11    1    1    2    0    0 -0.24830582708E+02 -0.59780776657E+01  0.15078219314E+03  0.15292993500E+03  0.00000000000E+00 0. -1.
</event>
<event>
 7    1  0.2490079E-009  0.5073843E+02  0.7561462E-02  0.1441399E+00
         -1   -1    0    0    0  501 -0.00000000000E+00  0.00000000000E+00  0.96520130309E+02  0.96520130309E+02  0.00000000000E+00 0.  1.
          1   -1    0    0  501    0  0.00000000000E+00 -0.00000000000E+00 -0.12528964753E+03  0.12528964753E+03  0.00000000000E+00 0. -1.
         25    2    1    2    0    0  0.47504801091E+01 -0.20120454860E+02 -0.17090283835E+00  0.12678740014E+03  0.12509043074E+03 0.  0.
          5    1    3    3  502    0  0.16003848301E+02 -0.32533524793E+02 -0.56838383310E+02  0.67547225059E+02  0.41800000000E+01 0.  1.
         -5    1    3    3    0  502 -0.11253368192E+02  0.12413069933E+02  0.56667480471E+02  0.59240175082E+02  0.41800000000E+01 0.  1.
        -11    1    1    2    0    0 -0.18073880564E+02  0.27174420031E+02  0.23868153768E+02  0.40432697497E+02  0.00000000000E+00 0.  1.
         11    1    1    2    0    0  0.13323400455E+02 -0.70539651704E+01 -0.52466768152E+02  0.54589680202E+02  0.00000000000E+00 0. -1.
</event>
<event>
 7    1  0.2490079E-009  0.1495583E+03  0.7561462E-02  0.1201017E+00
         -1   -1    0    0    0  501 -0.00000000000E+00  0.00000000000E+00  0.24982680296E+02  0.24982680296E+02  0.00000000000E+00 0.  1.
          1   -1    0    0  501    0  0.00000000000E+00 -0.00000000000E+00 -0.95138371287E+03  0.95138371287E+03  0.00000000000E+00 0. -1.
         25    2    1    2    0    0 -0.12707750780E+02  0.10623162251E+03 -0.43620478190E+03  0.46622864465E+03  0.12509153764E+03 0.  0.
          5    1    3    3  502    0  0.30709273175E+02 -0.11790010492E+02 -0.49593875682E+02  0.59658098457E+02  0.41800000000E+01 0. -1.
         -5    1    3    3    0  502 -0.43417023954E+02  0.11802163300E+03 -0.38661090622E+03  0.40657054619E+03  0.41800000000E+01 0. -1.
        -11    1    1    2    0    0 -0.18755717286E+01 -0.12003728438E+03 -0.43971450104E+03  0.45580841351E+03  0.00000000000E+00 0.  1.
         11    1    1    2    0    0  0.14583322508E+02  0.13805661868E+02 -0.50481749634E+02  0.54329334995E+02  0.00000000000E+00 0. -1.
</event>
<event>
 7    1  0.2490079E-009  0.1511934E+03  0.7561462E-02  0.1199014E+00
          2   -1    0    0  501    0  0.00000000000E+00  0.00000000000E+00  0.21986111992E+03  0.21986111992E+03  0.00000000000E+00 0. -1.
         -2   -1    0    0    0  501 -0.00000000000E+00 -0.00000000000E+00 -0.12450963968E+03  0.12450963968E+03  0.00000000000E+00 0.  1.
         25    2    1    2    0    0  0.68976242447E+02 -0.94796569095E+02  0.67504604329E+01  0.17157292877E+03  0.12509032591E+03 0.  0.
          5    1    3    3  502    0  0.10347945257E+03 -0.50802589855E+02  0.32923855958E+01  0.11540022722E+03  0.41800000000E+01 0. -1.
         -5    1    3    3    0  502 -0.34503210121E+02 -0.43993979241E+02  0.34580748371E+01  0.56172701552E+02  0.41800000000E+01 0. -1.
        -11    1    1    2    0    0 -0.56560721325E+02  0.10198630686E+03  0.41861717737E+02  0.12390611525E+03  0.00000000000E+00 0.  1.
         11    1    1    2    0    0 -0.12415521122E+02 -0.71897377690E+01  0.46739302071E+02  0.48891715576E+02  0.00000000000E+00 0. -1.
</event>
<event>
 7    1  0.2490079E-009  0.8351614E+02  0.7561462E-02  0.1319359E+00
          1   -1    0    0  501    0  0.00000000000E+00  0.00000000000E+00  0.29311625071E+03  0.29311625071E+03  0.00000000000E+00 0. -1.
         -1   -1    0    0    0  501 -0.00000000000E+00 -0.00000000000E+00 -0.46258381539E+02  0.46258381539E+02  0.00000000000E+00 0.  1.
         25    2    1    2    0    0  0.58702340262E-01  0.45134499590E+02  0.14738929724E+03  0.19851448414E+03  0.12508904417E+03 0.  0.
          5    1    3    3  502    0  0.23781450510E+01  0.57450483332E+02  0.16598023545E+03  0.17570749719E+03  0.41800000000E+01 0.  1.
         -5    1    3    3    0  502 -0.23194427107E+01 -0.12315983742E+02 -0.18590938210E+02  0.22806986946E+02  0.41800000000E+01 0.  1.
        -11    1    1    2    0    0  0.42398021215E+02 -0.20660690151E+02  0.30182638469E+02  0.55995071082E+02  0.00000000000E+00 0.  1.
         11    1    1    2    0    0 -0.42456723556E+02 -0.24473809439E+02  0.69285933456E+02  0.84865077025E+02  0.00000000000E+00 0. -1.
</event>
<event>
 7    1  0.2490079E-009  0.1133649E+03  0.7561462E-02  0.1254463E+00
         -2   -1    0    0    0  501 -0.00000000000E+00  0.00000000000E+00  0.13510367722E+03  0.13510367722E+03  0.00000000000E+00 0.  1.
          2   -1    0    0  501    0  0.00000000000E+00 -0.00000000000E+00 -0.11323029130E+03  0.11323029130E+03  0.00000000000E+00 0. -1.
         25    2    1    2    0    0 -0.56842053898E+02  0.91208079552E+01  0.28042133042E+02  0.14052733859E+03  0.12508942176E+03 0.  0.
          5    1    3    3  502    0 -0.38479148721E+02 -0.50160727922E+02  0.42976646314E+02  0.76558526895E+02  0.41800000000E+01 0. -1.
         -5    1    3    3    0  502 -0.18362905177E+02  0.59281535877E+02 -0.14934513273E+02  0.63968811691E+02  0.41800000000E+01 0. -1.
        -11    1    1    2    0    0  0.51318235255E+02  0.31474593090E+02 -0.21698635786E+02  0.63992515772E+02  0.00000000000E+00 0. -1.
         11    1    1    2    0    0  0.55238186438E+01 -0.40595401046E+02  0.15529888661E+02  0.43814114168E+02  0.00000000000E+00 0.  1.
</event>
<event>
 7    1  0.2490079E-009  0.8915053E+02  0.7561462E-02  0.1304922E+00
          1   -1    0    0  501    0  0.00000000000E+00  0.00000000000E+00  0.15549131149E+03  0.15549131149E+03  0.00000000000E+00 0. -1.
         -1   -1    0    0    0  501 -0.00000000000E+00 -0.00000000000E+00 -0.14366663757E+03  0.14366663757E+03  0.00000000000E+00 0.  1.
         25    2    1    2    0    0 -0.18526446144E+02 -0.47163492001E+02  0.96112748248E+02  0.16568926204E+03  0.12509055519E+03 0.  0.
          5    1    3    3  502    0 -0.45815498970E+02 -0.51237997257E+02  0.11353871499E+03  0.13278894724E+03  0.41800000000E+01 0.  1.
         -5    1    3    3    0  502  0.27289052827E+02  0.40745052561E+01 -0.17425966740E+02  0.32900314802E+02  0.41800000000E+01 0.  1.
        -11    1    1    2    0    0  0.26104061306E+02  0.60669458687E+02 -0.22507573248E+02  0.69776758935E+02  0.00000000000E+00 0. -1.
         11    1    1    2    0    0 -0.75776151619E+01 -0.13505966686E+02 -0.61780501087E+02  0.63691928078E+02  0.00000000000E+00 0.  1.
</event>
<event>
 7    1  0.2490079E-009  0.1140211E+03  0.7561462E-02  0.1253300E+00
          4   -1    0    0  501    0  0.00000000000E+00  0.00000000000E+00  0.64739136436E+02  0.64739136436E+02  0.00000000000E+00 0. -1.
         -4   -1    0    0    0  501 -0.00000000000E+00 -0.00000000000E+00 -0.20379513091E+03  0.20379513091E+03  0.00000000000E+00 0.  1.
         25    2    1    2    0    0  0.17872150138E+02 -0.30784757614E+02 -0.80424929394E+02  0.15291359110E+03  0.12508909634E+03 0.  0.
          5    1    3    3  502    0  0.70372028835E+02 -0.29614855278E+02 -0.56403198539E+02  0.95016079170E+02  0.41800000000E+01 0. -1.
         -5    1    3    3    0  502 -0.52499878697E+02 -0.11699023360E+01 -0.24021730855E+02  0.57897511933E+02  0.41800000000E+01 0. -1.
        -11    1    1    2    0    0 -0.42286981062E+02 -0.16732183006E+02 -0.19925950217E+02  0.49650762406E+02  0.00000000000E+00 0. -1.
         11    1    1    2    0    0  0.24414830924E+02  0.47516940620E+02 -0.38705114859E+02  0.65969913834E+02  0.00000000000E+00 0.  1.
</event>
<event>
 7    1  0.2490079E-009  0.1209009E+03  0.7561462E-02  0.1241618E+00
         -3   -1    0    0    0  501 -0.00000000000E+00  0.00000000000E+00  0.50962979919E+03  0.50962979919E+03  0.00000000000E+00 0.  1.
          3   -1    0    0  501    0  0.00000000000E+00 -0.00000000000E+00 -0.31305026907E+02  0.31305026907E+02  0.00000000000E+00 0. -1.
         25    2    1    2    0    0 -0.34813287272E+02  0.53357810794E+02  0.28933212353E+03  0.32158880147E+03  0.12508900264E+03 0.  0.
          5    1    3    3  502    0 -0.79229975138E+02  0.45058370951E+02  0.22559588073E+03  0.24334876115E+03  0.41800000000E+01 0. -1.
         -5    1    3    3    0  502  0.44416687866E+02  0.82994398430E+01  0.63736242803E+02  0.78240040321E+02  0.41800000000E+01 0. -1.
        -11    1    1    2    0    0 -0.13227989055E+02 -0.55537081378E+02  0.65886888295E+02  0.87180440189E+02  0.00000000000E+00 0. -1.
         11    1    1    2    0    0  0.48041276327E+02  0.21792705842E+01  0.12310576046E+03  0.13216558444E+03  0.00000000000E+00 0.  1.
</event>
<event>
 7    1  0.2490079E-009  0.1145124E+03  0.7561462E-02  0.1252435E+00
         -2   -1    0    0    0  501 -0.00000000000E+00  0.00000000000E+00  0.19240246067E+02  0.19240246067E+02  0.00000000000E+00 0.  1.
          2   -1    0    0  501    0  0.00000000000E+00 -0.00000000000E+00 -0.80292903635E+03  0.80292903635E+03  0.00000000000E+00 0. -1.
         25    2    1    2    0    0 -0.30216103250E+02 -0.33064447052E+02 -0.30127838612E+03  0.32927718547E+03  0.12509407808E+03 0.  0.
          5    1    3    3  502    0 -0.98939287726E+01  0.45808866954E+02 -0.72822067230E+02  0.86699873090E+02  0.41800000000E+01 0.  1.
         -5    1    3    3    0  502 -0.20322174478E+02 -0.78873314006E+02 -0.22845631889E+03  0.24257731238E+03  0.41800000000E+01 0.  1.
        -11    1    1    2    0    0 -0.38735539673E+01  0.58032656483E+02 -0.25049128852E+03  0.25715497130E+03  0.00000000000E+00 0.  1.
         11    1    1    2    0    0  0.34089657217E+02 -0.24968209431E+02 -0.23191911563E+03  0.23573712565E+03  0.00000000000E+00 0. -1.
</event>
<event>
 7    1  0.2490079E-009  0.1156740E+03  0.7561462E-02  0.1250409E+00
          1   -1    0    0  501    0  0.00000000000E+00  0.00000000000E+00  0.33876170630E+03  0.33876170630E+03  0.00000000000E+00 0. -1.
         -1   -1    0    0    0  501 -0.00000000000E+00 -0.00000000000E+00 -0.44511472891E+02  0.44511472891E+02  0.00000000000E+00 0.  1.
         25    2    1    2    0    0 -0.55157126090E+02 -0.12641023387E+02  0.16080802379E+03  0.21144558148E+03  0.12509160396E+03 0.  0.
          5    1    3    3  502    0 -0.87755467198E+02 -0.35305779253E+02  0.92751477250E+02  0.13254368715E+03  0.41800000000E+01 0. -1.
         -5    1    3    3    0  502  0.32598341109E+02  0.22664755866E+02  0.68056546536E+02  0.78901894324E+02  0.41800000000E+01 0. -1.
        -11    1    1    2    0    0  0.18290866261E+02 -0.33206301065E+02  0.17376407802E+02  0.41703162556E+02  0.00000000000E+00 0.  1.
         11    1    1    2    0    0  0.36866259828E+02  0.45847324452E+02  0.11606580182E+03  0.13012443516E+03  0.00000000000E+00 0. -1.
</event>
<event>
 7    1  0.2490079E-009  0.1140793E+03  0.7561462E-02  0.1253197E+00
         -2   -1    0    0    0  501 -0.00000000000E+00  0.00000000000E+00  0.40755365630E+03  0.40755365630E+03  0.00000000000E+00 0.  1.
          2   -1    0    0  501    0  0.00000000000E+00 -0.00000000000E+00 -0.46442255763E+02  0.46442255763E+02  0.00000000000E+00 0. -1.
         25    2    1    2    0    0  0.29463535203E+02 -0.25588421317E+02  0.73833837776E+02  0.15040547512E+03  0.12508998415E+03 0.  0.
          5    1    3    3  502    0 -0.43234193417E+02  0.16799920027E+02  0.30368217771E+02  0.55597966185E+02  0.41800000000E+01 0.  1.
         -5    1    3    3    0  502  0.72697728620E+02 -0.42388341344E+02  0.43465620005E+02  0.94807508937E+02  0.41800000000E+01 0.  1.
        -11    1    1    2    0    0  0.32058303647E+02  0.49449558660E+01  0.11533976457E+03  0.11981422584E+03  0.00000000000E+00 0. -1.
         11    1    1    2    0    0 -0.61521838851E+02  0.20643465451E+02  0.17193779819E+03  0.18377621110E+03  0.00000000000E+00 0.  1.
</event>
<event>
 7    1  0.2490079E-009  0.1196973E+03  0.7561462E-02  0.1243597E+00
         -1   -1    0    0    0  501 -0.00000000000E+00  0.00000000000E+00  0.17016711075E+03  0.17016711075E+03  0.00000000000E+00 0.  1.
          1   -1    0    0  501    0  0.00000000000E+00 -0.00000000000E+00 -0.12338817358E+03  0.12338817358E+03  0.00000000000E+00 0. -1.
         25    2    1    2    0    0  0.69681200696E+02  0.58635105652E+02 -0.45951369706E+01  0.15478804414E+03  0.12507868715E+03 0.  0.
          5    1    3    3  502    0 -0.22126377348E+02  0.50413924233E+02 -0.24483750605E+02  0.60399228263E+02  0.41800000000E+01 0. -1.
         -5    1    3    3    0  502  0.91807578044E+02  0.82211814199E+01  0.19888613634E+02  0.94388815876E+02  0.41800000000E+01 0. -1.
        -11    1    1    2    0    0 -0.20733455491E+02 -0.25201783784E+02  0.69500870191E+02  0.76781358674E+02  0.00000000000E+00 0.  1.
         11    1    1    2    0    0 -0.48947745205E+02 -0.33433321869E+02 -0.18126796055E+02  0.61985881514E+02  0.00000000000E+00 0. -1.
</event>
<event>
 7    1  0.2490079E-009  0.9191494E+02  0.7561462E-02  0.1298280E+00
         -2   -1    0    0    0  501 -0.00000000000E+00  0.00000000000E+00  0.35416580249E+02  0.35416580249E+02  0.00000000000E+00 0.  1.
          2   -1    0    0  501    0  0.00000000000E+00 -0.00000000000E+00 -0.34449047392E+03  0.34449047392E+03  0.00000000000E+00 0. -1.
         25    2    1    2    0    0 -0.45814273199E+01  0.15263047513E+02 -0.21006810817E+03  0.24500906007E+03  0.12508748680E+03 0.  0.
          5    1    3    3  502    0  0.38410622467E+02 -0.40221509068E+02 -0.91413389432E+02  0.10708419994E+03  0.41800000000E+01 0. -1.
         -5    1    3    3    0  502 -0.42992049787E+02  0.55484556581E+02 -0.11865471873E+03  0.13792486013E+03  0.41800000000E+01 0. -1.
        -11    1    1    2    0    0  0.26888139143E+02 -0.21668913813E+02 -0.13894925712E+01  0.34560737001E+02  0.00000000000E+00 0.  1.
         11    1    1    2    0    0 -0.22306711823E+02  0.64058663002E+01 -0.97616292935E+02  0.10033725710E+03  0.00000000000E+00 0. -1.
</event>
<event>
 7    1  0.2490079E-009  0.6948346E+02  0.7561462E-02  0.1361858E+00
         -1   -1    0    0    0  501 -0.00000000000E+00  0.00000000000E+00  0.22717987518E+03  0.22717987518E+03  0.00000000000E+00 0.  1.
          1   -1    0    0  501    0  0.00000000000E+00 -0.00000000000E+00 -0.62601520060E+02  0.62601520060E+02  0.00000000000E+00 0. -1.
         25    2    1    2    0    0 -0.87540941711E+01 -0.39391336430E+02  0.13250225471E+03  0.18663788909E+03  0.12509413491E+03 0.  0.
          5    1    3    3  502    0  0.59304924993E+01  0.11388685937E+02  0.13292640935E+03  0.13361053705E+03  0.41800000000E+01 0. -1.
         -5    1    3    3    0  502 -0.14684586670E+02 -0.50780022367E+02 -0.42415463534E+00  0.53027352041E+02  0.41800000000E+01 0. -1.
        -11    1    1    2    0    0  0.15286897728E+02  0.54166744414E+02 -0.10813746638E+02  0.57311975703E+02  0.00000000000E+00 0. -1.
         11    1    1    2    0    0 -0.65328035572E+01 -0.14775407984E+02  0.42889847050E+02  0.45831530450E+02  0.00000000000E+00 0.  1.
</event>
<event>
 7    1  0.2490079E-009  0.1146649E+03  0.7561462E-02  0.1252167E+00
         -2   -1    0    0    0  501 -0.00000000000E+00  0.00000000000E+00  0.28642885460E+02  0.28642885460E+02  0.00000000000E+00 0.  1.
          2   -1    0    0  501    0  0.00000000000E+00 -0.00000000000E+00 -0.47680698868E+03  0.47680698868E+03  0.00000000000E+00 0. -1.
         25    2    1    2    0    0  0.47015225567E+02  0.44861253163E+01 -0.26502497451E+03  0.29684978731E+03  0.12510396618E+03 0.  0.
          5    1    3    3  502    0  0.53854609451E+02 -0.50515765167E+02 -0.18663099403E+03  0.20075049645E+03  0.41800000000E+01 0.  1.
         -5    1    3    3    0  502 -0.68393838839E+01  0.55001890483E+02 -0.78393980479E+02  0.96099290861E+02  0.41800000000E+01 0.  1.
        -11    1    1    2    0    0 -0.65116419335E+02  0.21098633300E+02 -0.12168326572E+03  0.13961417389E+03  0.00000000000E+00 0.  1.
         11    1    1    2    0    0  0.18101193768E+02 -0.25584758616E+02 -0.61455862989E+02  0.68985912946E+02  0.00000000000E+00 0. -1.
</event>
<event>
 7    1  0.2490079E-009  0.2103543E+03  0.7561462E-02  0.1141286E+00
         -1   -1    0    0    0  501 -0.00000000000E+00  0.00000000000E+00  0.35840125680E+03  0.35840125680E+03  0.00000000000E+00 0.  1.
          1   -1    0    0  501    0  0.00000000000E+00 -0.00000000000E+00 -0.13052410547E+03  0.13052410547E+03  0.00000000000E+00 0. -1.
         25    2    1    2    0    0  0.82490238592E+02 -0.16746572129E+03  0.11496436297E+03  0.25241472086E+03  0.12508788623E+03 0.  0.
          5    1    3    3  502    0  0.32608922014E+02  0.12213733647E+02  0.34764766326E+02  0.49381964949E+02  0.41800000000E+01 0. -1.
         -5    1    3    3    0  502  0.49881316578E+02 -0.17967945494E+03  0.80199596643E+02  0.20303275591E+03  0.41800000000E+01 0. -1.
        -11    1    1    2    0    0 -0.89693834331E+02  0.11345700690E+03  0.11042885660E+03  0.18196705389E+03  0.00000000000E+00 0. -1.
         11    1    1    2    0    0  0.72035957390E+01  0.54008714394E+02  0.24839317647E+01  0.54543587516E+02  0.00000000000E+00 0.  1.
</event>
<event>
 7    1  0.2490079E-009  0.1473969E+03  0.7561462E-02  0.1203709E+00
         -1   -1    0    0    0  501 -0.00000000000E+00  0.00000000000E+00  0.14255271568E+03  0.14255271568E+03  0.00000000000E+00 0. -1.
          1   -1    0    0  501    0  0.00000000000E+00 -0.00000000000E+00 -0.19132955695E+03  0.19132955695E+03  0.00000000000E+00 0.  1.
         25    2    1    2    0    0 -0.25711208845E+02 -0.11964759215E+03 -0.56281429459E+02  0.18381923191E+03  0.12508116625E+03 0.  0.
          5    1    3    3  502    0 -0.10303153791E+02  0.17543886137E+02  0.17563012398E+02  0.27200638289E+02  0.41800000000E+01 0.  1.
         -5    1    3    3    0  502 -0.15408055054E+02 -0.13719147829E+03 -0.73844441857E+02  0.15661859362E+03  0.41800000000E+01 0.  1.
        -11    1    1    2    0    0  0.38021066913E+02  0.39526354891E+02  0.34300745626E+02  0.64687521290E+02  0.00000000000E+00 0. -1.
         11    1    1    2    0    0 -0.12309858068E+02  0.80121237258E+02 -0.26796157438E+02  0.85375519436E+02  0.00000000000E+00 0.  1.
</event>
<event>
 7    1  0.2490079E-009  0.1218144E+03  0.7561462E-02  0.1240134E+00
          2   -1    0    0  501    0  0.00000000000E+00  0.00000000000E+00  0.10266606885E+03  0.10266606885E+03  0.00000000000E+00 0. -1.
         -2   -1    0    0    0  501 -0.00000000000E+00 -0.00000000000E+00 -0.18156598007E+03  0.18156598007E+03  0.00000000000E+00 0.  1.
         25    2    1    2    0    0 -0.63250114934E+02  0.24366435643E+02 -0.91847796531E+02  0.16934499430E+03  0.12508960446E+03 0.  0.
          5    1    3    3  502    0 -0.94576674943E+02  0.11263832424E+02 -0.95495059509E+02  0.13493850509E+03  0.41800000000E+01 0. -1.
         -5    1    3    3    0  502  0.31326560009E+02  0.13102603219E+02  0.36472629773E+01  0.34406489218E+02  0.41800000000E+01 0. -1.
        -11    1    1    2    0    0  0.67415439704E+02 -0.52620181567E+02  0.11514215118E+02  0.86291958886E+02  0.00000000000E+00 0.  1.
         11    1    1    2    0    0 -0.41653247702E+01  0.28253745924E+02  0.14336701944E+01  0.28595095723E+02  0.00000000000E+00 0. -1.
</event>
<event>
 7    1  0.2490079E-009  0.1236650E+03  0.7561462E-02  0.1237171E+00
          2   -1    0    0  501    0  0.00000000000E+00  0.00000000000E+00  0.42518270377E+03  0.42518270377E+03  0.00000000000E+00 0. -1.
         -2   -1    0    0    0  501 -0.00000000000E+00 -0.00000000000E+00 -0.38129090889E+02  0.38129090889E+02  0.00000000000E+00 0.  1.
         25    2    1    2    0    0 -0.57032074708E+02 -0.66584944584E+01  0.16374896942E+03  0.21391088606E+03  0.12508856501E+03 0.  0.
          5    1    3    3  502    0 -0.94906781098E+02  0.87320036364E+01  0.10126943199E+03  0.13912769402E+03  0.41800000000E+01 0.  1.
         -5    1    3    3    0  502  0.37874706390E+02 -0.15390498095E+02  0.62479537426E+02  0.74783192047E+02  0.41800000000E+01 0.  1.
        -11    1    1    2    0    0  0.83610780320E+02  0.92964258130E+01  0.17614072614E+03  0.19519923546E+03  0.00000000000E+00 0.  1.
         11    1    1    2    0    0 -0.26578705611E+02 -0.26379313545E+01  0.47163917318E+02  0.54201673134E+02  0.00000000000E+00 0. -1.
</event>
<event>
 7    1  0.2490079E-009  0.1086507E+03  0.7561462E-02  0.1263089E+00
         -2   -1    0    0    0  501 -0.00000000000E+00  0.00000000000E+00  0.79249414563E+02  0.79249414563E+02  0.00000000000E+00 0.  1.
          2   -1    0    0  501    0  0.00000000000E+00 -0.00000000000E+00 -0.19950634843E+03  0.19950634843E+03  0.00000000000E+00 0. -1.
         25    2    1    2    0    0  0.14154018344E+02  0.61378082378E+02 -0.57571679764E+02  0.15142661312E+03  0.12509162889E+03 0.  0.
          5    1    3    3  502    0  0.19147944580E+01  0.98610108193E+02 -0.52136643232E+02  0.11163924867E+03  0.41800000000E+01 0. -1.
         -5    1    3    3    0  502  0.12239223886E+02 -0.37232025815E+02 -0.54350365320E+01  0.39787364448E+02  0.41800000000E+01 0. -1.
        -11    1    1    2    0    0  0.77309554592E+01 -0.56135793299E+02  0.41397279840E+01  0.56816655212E+02  0.00000000000E+00 0.  1.
         11    1    1    2    0    0 -0.21884973803E+02 -0.52422890789E+01 -0.66824982090E+02  0.70512494669E+02  0.00000000000E+00 0. -1.
</event>
<event>
 7    1  0.2490079E-009  0.3209114E+03  0.7561462E-02  0.1075231E+00
         -2   -1    0    0    0  501 -0.00000000000E+00  0.00000000000E+00  0.14647683543E+03  0.14647683543E+03  0.00000000000E+00 0.  1.
          2   -1    0    0  501    0  0.00000000000E+00 -0.00000000000E+00 -0.75077375056E+03  0.75077375056E+03  0.00000000000E+00 0. -1.
         25    2    1    2    0    0 -0.30484884136E+03  0.13987800095E+02 -0.21301800305E+03  0.39262303086E+03  0.12509076749E+03 0.  0.
          5    1    3    3  502    0 -0.15114211811E+03 -0.50546813423E+02 -0.75128767486E+02  0.17624052973E+03  0.41800000000E+01 0.  1.
         -5    1    3    3    0  502 -0.15370672325E+03  0.64534613517E+02 -0.13788923556E+03  0.21638250113E+03  0.41800000000E+01 0.  1.
        -11    1    1    2    0    0  0.11011857552E+03  0.33692746057E+02 -0.11031898780E+03  0.15947282176E+03  0.00000000000E+00 0.  1.
         11    1    1    2    0    0  0.19473026584E+03 -0.47680546151E+02 -0.28095992428E+03  0.34515473337E+03  0.00000000000E+00 0. -1.
</event>
<event>
 7    1  0.2490079E-009  0.1119162E+03  0.7561462E-02  0.1257062E+00
          2   -1    0    0  501    0  0.00000000000E+00  0.00000000000E+00  0.77327328141E+02  0.77327328141E+02  0.00000000000E+00 0. -1.
         -2   -1    0    0    0  501 -0.00000000000E+00 -0.00000000000E+00 -0.28015320290E+03  0.28015320290E+03  0.00000000000E+00 0.  1.
         25    2    1    2    0    0 -0.69774300529E+02 -0.21178508487E+02 -0.32344263466E+02  0.14835997876E+03  0.12509016621E+03 0.  0.
          5    1    3    3  502    0 -0.45409190864E+02  0.23777979144E+02 -0.68454908628E+02  0.85620872585E+02  0.41800000000E+01 0.  1.
         -5    1    3    3    0  502 -0.24365109665E+02 -0.44956487630E+02  0.36110645162E+02  0.62739106171E+02  0.41800000000E+01 0.  1.
        -11    1    1    2    0    0 -0.24301567864E+02  0.10307785791E+02 -0.36059765752E+02  0.44689186104E+02  0.00000000000E+00 0. -1.
         11    1    1    2    0    0  0.94075868392E+02  0.10870722696E+02 -0.13442184555E+03  0.16443136618E+03  0.00000000000E+00 0.  1.
</event>
<event>
 7    1  0.2490079E-009  0.2251097E+03  0.7561462E-02  0.1130130E+00
         -2   -1    0    0    0  501 -0.00000000000E+00  0.00000000000E+00  0.40320065475E+03  0.40320065475E+03  0.00000000000E+00 0.  1.
          2   -1    0    0  501    0  0.00000000000E+00 -0.00000000000E+00 -0.15551459291E+03  0.15551459291E+03  0.00000000000E+00 0. -1.
         25    2    1    2    0    0 -0.52262293202E+02 -0.21841352457E+03  0.14117609612E+03  0.29328088012E+03  0.12508864666E+03 0.  0.
          5    1    3    3  502    0 -0.36377367344E+02 -0.11697473190E+03  0.49876270748E+01  0.12267334503E+03  0.41800000000E+01 0. -1.
         -5    1    3    3    0  502 -0.15884925858E+02 -0.10143879267E+03  0.13618846905E+03  0.17060753509E+03  0.41800000000E+01 0. -1.
        -11    1    1    2    0    0  0.30221315510E+02  0.14989045474E+03  0.11721096035E+03  0.19266262108E+03  0.00000000000E+00 0.  1.
         11    1    1    2    0    0  0.22040977693E+02  0.68523069828E+02 -0.10700994634E+02  0.72771746458E+02  0.00000000000E+00 0. -1.
</event>
<event>
 7    1  0.2490079E-009  0.6034269E+02  0.7561462E-02  0.1396399E+00
         -3   -1    0    0    0  501 -0.00000000000E+00  0.00000000000E+00  0.13865211639E+04  0.13865211639E+04  0.00000000000E+00 0.  1.
          3   -1    0    0  501    0  0.00000000000E+00 -0.00000000000E+00 -0.86593804353E+01  0.86593804353E+01  0.00000000000E+00 0. -1.
         25    2    1    2    0    0 -0.15735641591E+01  0.45037286602E+01  0.91100846383E+03  0.91956885603E+03  0.12509076755E+03 0.  0.
          5    1    3    3  502    0 -0.14694929055E+02 -0.15183654179E+01  0.90182379640E+03  0.90195447697E+03  0.41800000000E+01 0. -1.
         -5    1    3    3    0  502  0.13121364896E+02  0.60220940780E+01  0.91846674366E+01  0.17614379062E+02  0.41800000000E+01 0. -1.
        -11    1    1    2    0    0 -0.28201796095E+01  0.42750759026E+02  0.24778405309E+03  0.25146076786E+03  0.00000000000E+00 0.  1.
         11    1    1    2    0    0  0.43937437686E+01 -0.47254487686E+02  0.21906926654E+03  0.22415092043E+03  0.00000000000E+00 0. -1.
</event>
<event>
 7    1  0.2490079E-009  0.1043962E+03  0.7561462E-02  0.1271314E+00
          4   -1    0    0  501    0  0.00000000000E+00  0.00000000000E+00  0.14403117918E+03  0.14403117918E+03  0.00000000000E+00 0. -1.
         -4   -1    0    0    0  501 -0.00000000000E+00 -0.00000000000E+00 -0.13025017016E+03  0.13025017016E+03  0.00000000000E+00 0.  1.
         25    2    1    2    0    0 -0.59531977482E+01  0.50515055719E+02  0.73945987919E+02  0.15395253302E+03  0.12508461886E+03 0.  0.
          5    1    3    3  502    0 -0.16968207072E+02 -0.25927414841E+02 -0.16165999609E+02  0.35198903889E+02  0.41800000000E+01 0.  1.
         -5    1    3    3    0  502  0.11015009324E+02  0.76442470560E+02  0.90111987528E+02  0.11875362913E+03  0.41800000000E+01 0.  1.
        -11    1    1    2    0    0  0.29044300210E+02  0.13573051520E+02 -0.45340263567E+01  0.32378333763E+02  0.00000000000E+00 0. -1.
         11    1    1    2    0    0 -0.23091102462E+02 -0.64088107239E+02 -0.55630952537E+02  0.87950482560E+02  0.00000000000E+00 0.  1.
</event>
<event>
 7    1  0.2490079E-009  0.2765866E+03  0.7561462E-02  0.1097568E+00
          2   -1    0    0  501    0  0.00000000000E+00  0.00000000000E+00  0.10822172515E+04  0.10822172515E+04  0.00000000000E+00 0. -1.
         -2   -1    0    0    0  501 -0.00000000000E+00 -0.00000000000E+00 -0.77517442588E+02  0.77517442588E+02  0.00000000000E+00 0.  1.
         25    2    1    2    0    0  0.55597297372E+02 -0.25637644196E+03  0.40247894786E+03  0.49644333500E+03  0.12508693746E+03 0.  0.
          5    1    3    3  502    0 -0.78236117697E+01 -0.18748912987E+03  0.20560233015E+03  0.27839391747E+03  0.41800000000E+01 0.  1.
         -5    1    3    3    0  502  0.63420909142E+02 -0.68887312093E+02  0.19687661771E+03  0.21804941753E+03  0.41800000000E+01 0.  1.
        -11    1    1    2    0    0 -0.66926136059E+02  0.14392525485E+03  0.41851607639E+03  0.44760394644E+03  0.00000000000E+00 0.  1.
         11    1    1    2    0    0  0.11328838687E+02  0.11245118711E+03  0.18370478465E+03  0.21568741264E+03  0.00000000000E+00 0. -1.
</event>
<event>
 7    1  0.2490079E-009  0.2906103E+03  0.7561462E-02  0.1090031E+00
          1   -1    0    0  501    0  0.00000000000E+00  0.00000000000E+00  0.18836751531E+04  0.18836751531E+04  0.00000000000E+00 0. -1.
         -1   -1    0    0    0  501 -0.00000000000E+00 -0.00000000000E+00 -0.93975632594E+02  0.93975632594E+02  0.00000000000E+00 0.  1.
         25    2    1    2    0    0  0.25677138571E+03 -0.93032835335E+02  0.16114385193E+04  0.16391981030E+04  0.12509862682E+03 0.  0.
          5    1    3    3  502    0 -0.40559180805E+01  0.12424957816E+02  0.17008762175E+03  0.17064026934E+03  0.41800000000E+01 0.  1.
         -5    1    3    3    0  502  0.26082730379E+03 -0.10545779315E+03  0.14413508976E+04  0.14685578337E+04  0.41800000000E+01 0.  1.
        -11    1    1    2    0    0 -0.13619013029E+03  0.94106753941E+02  0.85508225670E+02  0.18632093115E+03  0.00000000000E+00 0.  1.
         11    1    1    2    0    0 -0.12058125542E+03 -0.10739186056E+01  0.92752775552E+02  0.15213175156E+03  0.00000000000E+00 0. -1.
</event>
<event>
 7    1  0.2490079E-009  0.1211314E+03  0.7561462E-02  0.1241242E+00
          2   -1    0    0  501    0  0.00000000000E+00  0.00000000000E+00  0.50494790482E+02  0.50494790482E+02  0.00000000000E+00 0. -1.
         -2   -1    0    0    0  501 -0.00000000000E+00 -0.00000000000E+00 -0.35837370877E+03  0.35837370877E+03  0.00000000000E+00 0.  1.
         25    2    1    2    0    0 -0.10142444042E+02  0.78897609770E+02 -0.21529113052E+03  0.26139139909E+03  0.12508993020E+03 0.  0.
          5    1    3    3  502    0  0.24939582401E+01 -0.27956357526E+02 -0.10953023863E+02  0.30417410895E+02  0.41800000000E+01 0.  1.
         -5    1    3    3    0  502 -0.12636402282E+02  0.10685396730E+03 -0.20433810665E+03  0.23097398819E+03  0.41800000000E+01 0.  1.
        -11    1    1    2    0    0 -0.23273142114E+02 -0.32398422680E+01 -0.23008206136E+00  0.23498694848E+02  0.00000000000E+00 0. -1.
         11    1    1    2    0    0  0.33415586156E+02 -0.75657767502E+02 -0.92357705713E+02  0.12397840532E+03  0.00000000000E+00 0.  1.
</event>
<event>
 7    1  0.2490079E-009  0.1396773E+03  0.7561462E-02  0.1213764E+00
         -2   -1    0    0    0  501 -0.00000000000E+00  0.00000000000E+00  0.63882564689E+02  0.63882564689E+02  0.00000000000E+00 0.  1.
          2   -1    0    0  501    0  0.00000000000E+00 -0.00000000000E+00 -0.55386900464E+03  0.55386900464E+03  0.00000000000E+00 0. -1.
         25    2    1    2    0    0 -0.42893066910E+02 -0.79864437984E+02 -0.46054244624E+03  0.48576213350E+03  0.12508941565E+03 0.  0.
          5    1    3    3  502    0  0.23573048459E+02 -0.80663284893E+02 -0.20299552039E+03  0.21974282205E+03  0.41800000000E+01 0. -1.
         -5    1    3    3    0  502 -0.66466115369E+02  0.79884690887E+00 -0.25754692585E+03  0.26601931145E+03  0.41800000000E+01 0. -1.
        -11    1    1    2    0    0  0.16087601036E+02  0.95990277453E+02 -0.23888128273E+02  0.10021769776E+03  0.00000000000E+00 0.  1.
         11    1    1    2    0    0  0.26805465873E+02 -0.16125839469E+02 -0.55558654390E+01  0.31771738071E+02  0.00000000000E+00 0. -1.
</event>
<event>
 7    1  0.2490079E-009  0.7303007E+02  0.7561462E-02  0.1350082E+00
         -3   -1    0    0    0  501 -0.00000000000E+00  0.00000000000E+00  0.25587887419E+03  0.25587887419E+03  0.00000000000E+00 0.  1.
          3   -1    0    0  501    0  0.00000000000E+00 -0.00000000000E+00 -0.53677780447E+02  0.53677780447E+02  0.00000000000E+00 0. -1.
         25    2    1    2    0    0 -0.35673112032E+02  0.12306035904E+02  0.92847690527E+02  0.16028513823E+03  0.12508645994E+03 0.  0.
          5    1    3    3  502    0  0.31729001902E+01  0.45447969134E+02  0.98632193714E+02  0.10872611108E+03  0.41800000000E+01 0. -1.
         -5    1    3    3    0  502 -0.38846012223E+02 -0.33141933230E+02 -0.57845031868E+01  0.51559027153E+02  0.41800000000E+01 0. -1.
        -11    1    1    2    0    0  0.12516647222E+02  0.10676263539E+02 -0.14046122513E+02  0.21631981381E+02  0.00000000000E+00 0. -1.
         11    1    1    2    0    0  0.23156464811E+02 -0.22982299443E+02  0.12339952573E+03  0.12763953502E+03  0.00000000000E+00 0.  1.
</event>
<event>
 7    1  0.2490079E-009  0.1357573E+03  0.7561462E-02  0.1219155E+00
         -2   -1    0    0    0  501 -0.00000000000E+00  0.00000000000E+00  0.99564312341E+02  0.99564312341E+02  0.00000000000E+00 0.  1.
          2   -1    0    0  501    0  0.00000000000E+00 -0.00000000000E+00 -0.20700823151E+03  0.20700823151E+03  0.00000000000E+00 0. -1.
         25    2    1    2    0    0  0.53347722672E+02  0.65936826383E+02 -0.13390328886E+02  0.15172531286E+03  0.12509046753E+03 0.  0.
          5    1    3    3  502    0 -0.28661940484E+02 -0.15602461360E+02  0.84313541078E+01  0.33963270821E+02  0.41800000000E+01 0.  1.
         -5    1    3    3    0  502  0.82009663155E+02  0.81539287743E+02 -0.21821682994E+02  0.11776204204E+03  0.41800000000E+01 0.  1.
        -11    1    1    2    0    0 -0.76751142443E+02 -0.35677340943E+02 -0.61594799873E+02  0.10467822073E+03  0.00000000000E+00 0. -1.
         11    1    1    2    0    0  0.23403419772E+02 -0.30259485440E+02 -0.32458790414E+02  0.50169010268E+02  0.00000000000E+00 0.  1.
</event>
<event>
 7    1  0.2490079E-009  0.1313623E+03  0.7561462E-02  0.1225448E+00
          2   -1    0    0  501    0  0.00000000000E+00  0.00000000000E+00  0.54045160620E+03  0.54045160620E+03  0.00000000000E+00 0. -1.
         -2   -1    0    0    0  501 -0.00000000000E+00 -0.00000000000E+00 -0.55006656589E+02  0.55006656589E+02  0.00000000000E+00 0.  1.
         25    2    1    2    0    0 -0.11238715267E+03  0.63298243410E+02  0.30627114684E+03  0.35508746175E+03  0.12509016907E+03 0.  0.
          5    1    3    3  502    0 -0.22430824744E+02  0.11883182259E+02  0.21622651245E+03  0.21775153043E+03  0.41800000000E+01 0.  1.
         -5    1    3    3    0  502 -0.89956327927E+02  0.51415061151E+02  0.90044634389E+02  0.13733593131E+03  0.41800000000E+01 0.  1.
        -11    1    1    2    0    0  0.19113349031E+02  0.23272513080E+01 -0.82722398708E+01  0.20956291712E+02  0.00000000000E+00 0.  1.
         11    1    1    2    0    0  0.93273803639E+02 -0.65625494718E+02  0.18744604264E+03  0.21941450933E+03  0.00000000000E+00 0. -1.
</event>
<event>
 7    1  0.2490079E-009  0.1178833E+03  0.7561462E-02  0.1246630E+00
          1   -1    0    0  501    0  0.00000000000E+00  0.00000000000E+00  0.64599968172E+02  0.64599968172E+02  0.00000000000E+00 0. -1.
         -1   -1    0    0    0  501 -0.00000000000E+00 -0.00000000000E+00 -0.24518334343E+03  0.24518334343E+03  0.00000000000E+00 0.  1.
         25    2    1    2    0    0  0.23194681927E+02  0.38112909518E+02 -0.48254128766E+02  0.14129980560E+03  0.12508631811E+03 0.  0.
          5    1    3    3  502    0 -0.21844087628E+01  0.81716019817E+02 -0.24956545737E+02  0.85572081379E+02  0.41800000000E+01 0. -1.
         -5    1    3    3    0  502  0.25379090689E+02 -0.43603110299E+02 -0.23297583030E+02  0.55727724223E+02  0.41800000000E+01 0. -1.
        -11    1    1    2    0    0  0.28726917355E+02  0.11997524450E+02 -0.29705338340E+02  0.43030030206E+02  0.00000000000E+00 0. -1.
         11    1    1    2    0    0 -0.51921599282E+02 -0.50110433968E+02 -0.10262390815E+03  0.12545347579E+03  0.00000000000E+00 0.  1.
</event>
<event>
 7    1  0.2490079E-009  0.9327973E+02  0.7561462E-02  0.1295098E+00
         -2   -1    0    0    0  501 -0.00000000000E+00  0.00000000000E+00  0.12598085615E+03  0.12598085615E+03  0.00000000000E+00 0.  1.
          2   -1    0    0  501    0  0.00000000000E+00 -0.00000000000E+00 -0.11483716831E+03  0.11483716831E+03  0.00000000000E+00 0. -1.
         25    2    1    2    0    0 -0.49816873655E+02 -0.11473610383E+02  0.23681309149E+02  0.13719473620E+03  0.12509287191E+03 0.  0.
          5    1    3    3  502    0 -0.39577521376E+02 -0.67319777164E+02  0.13433016532E+02  0.79348918888E+02  0.41800000000E+01 0.  1.
         -5    1    3    3    0  502 -0.10239352279E+02  0.55846166781E+02  0.10248292617E+02  0.57845817314E+02  0.41800000000E+01 0.  1.
        -11    1    1    2    0    0  0.28119749817E+02  0.93075647770E+01 -0.51249148062E+02  0.59193126872E+02  0.00000000000E+00 0. -1.
         11    1    1    2    0    0  0.21697123837E+02  0.21660456059E+01  0.38711526761E+02  0.44430161384E+02  0.00000000000E+00 0.  1.
</event>
<event>
 7    1  0.2842187E-009  0.1026827E+03  0.7561462E-02  0.1274754E+00
          1   -1    0    0  501    0  0.00000000000E+00  0.00000000000E+00  0.14346542190E+03  0.14346542190E+03  0.00000000000E+00 0. -1.
         -1   -1    0    0    0  501 -0.00000000000E+00 -0.00000000000E+00 -0.98786920399E+02  0.98786920399E+02  0.00000000000E+00 0.  1.
         25    2    1    2    0    0 -0.55900585509E+01  0.47708220130E+02  0.31539355270E+02  0.13766022530E+03  0.12509310004E+03 0.  0.
          5    1    3    3  502    0 -0.62875231851E+02  0.67229012835E+01  0.12769404847E+02  0.64645357778E+02  0.41800000000E+01 0.  1.
         -5    1    3    3    0  502  0.57285173301E+02  0.40985318846E+02  0.18769950424E+02  0.73014867526E+02  0.41800000000E+01 0.  1.
        -11    1    1    2    0    0  0.29319388428E+02 -0.28708111290E+02 -0.30698203347E+02  0.51246091367E+02  0.00000000000E+00 0.  1.
         11    1    1    2    0    0 -0.23729329877E+02 -0.19000108840E+02  0.43837349577E+02  0.53346025628E+02  0.00000000000E+00 0. -1.
</event>
<event>
 7    1  0.2490079E-009  0.9904609E+02  0.7561462E-02  0.1282315E+00
         -2   -1    0    0    0  501 -0.00000000000E+00  0.00000000000E+00  0.49533472019E+02  0.49533472019E+02  0.00000000000E+00 0.  1.
          2   -1    0    0  501    0  0.00000000000E+00 -0.00000000000E+00 -0.38399896916E+03  0.38399896916E+03  0.00000000000E+00 0. -1.
         25    2    1    2    0    0  0.41520553833E+02  0.11669140717E+02 -0.69230617724E+02  0.14934644323E+03  0.12510538133E+03 0.  0.
          5    1    3    3  502    0 -0.14965689071E+02  0.54406148233E+02 -0.50791758281E+02  0.76034702105E+02  0.41800000000E+01 0.  1.
         -5    1    3    3    0  502  0.56486242904E+02 -0.42737007515E+02 -0.18438859443E+02  0.73311741122E+02  0.41800000000E+01 0.  1.
        -11    1    1    2    0    0 -0.55390130207E+02 -0.65703080548E+01 -0.26346328727E+03  0.26930306202E+03  0.00000000000E+00 0. -1.
         11    1    1    2    0    0  0.13869576374E+02 -0.50988326627E+01 -0.17715921465E+01  0.14882935935E+02  0.00000000000E+00 0.  1.
</event>
<event>
 7    1  0.2490079E-009  0.1858563E+03  0.7561462E-02  0.1162253E+00
          1   -1    0    0  501    0  0.00000000000E+00  0.00000000000E+00  0.40995599388E+03  0.40995599388E+03  0.00000000000E+00 0. -1.
         -1   -1    0    0    0  501 -0.00000000000E+00 -0.00000000000E+00 -0.11091603607E+03  0.11091603607E+03  0.00000000000E+00 0.  1.
         25    2    1    2    0    0  0.15944560200E+03  0.77306549286E+02  0.21357832887E+03  0.30440266778E+03  0.12508428770E+03 0.  0.
          5    1    3    3  502    0  0.93912130661E+02  0.14588816992E+01  0.36448140664E+02  0.10083429962E+03  0.41800000000E+01 0. -1.
         -5    1    3    3    0  502  0.65533471339E+02  0.75847667587E+02  0.17713018820E+03  0.20356836817E+03  0.41800000000E+01 0. -1.
        -11    1    1    2    0    0 -0.12547059585E+03 -0.64352179311E+02  0.10441889799E+03  0.17546332854E+03  0.00000000000E+00 0. -1.
         11    1    1    2    0    0 -0.33975006147E+02 -0.12954369976E+02 -0.18957269047E+02  0.41006033628E+02  0.00000000000E+00 0.  1.
</event>
<event>
 7    1  0.2490079E-009  0.1043767E+03  0.7561462E-02  0.1271353E+00
          2   -1    0    0  501    0  0.00000000000E+00  0.00000000000E+00  0.62467561069E+03  0.62467561069E+03  0.00000000000E+00 0. -1.
         -2   -1    0    0    0  501 -0.00000000000E+00 -0.00000000000E+00 -0.25599963788E+02  0.25599963788E+02  0.00000000000E+00 0.  1.
         25    2    1    2    0    0  0.25760309188E+02 -0.50543966182E+02  0.41924574138E+03  0.44117196638E+03  0.12508967266E+03 0.  0.
          5    1    3    3  502    0  0.58147227073E+02 -0.17716115899E+02  0.36410632841E+03  0.36916913680E+03  0.41800000000E+01 0. -1.
         -5    1    3    3    0  502 -0.32386917885E+02 -0.32827850283E+02  0.55139412970E+02  0.72002829576E+02  0.41800000000E+01 0. -1.
        -11    1    1    2    0    0 -0.27619997492E+02 -0.17988949008E+02  0.31030207557E+02  0.45269640256E+02  0.00000000000E+00 0.  1.
         11    1    1    2    0    0  0.18596883037E+01  0.68532915190E+02  0.14879969796E+03  0.16383396784E+03  0.00000000000E+00 0. -1.
</event>
<event>
 7    1  0.2490079E-009  0.1101876E+03  0.7561462E-02  0.1260223E+00
          1   -1    0    0  501    0  0.00000000000E+00  0.00000000000E+00  0.27669740839E+03  0.27669740839E+03  0.00000000000E+00 0. -1.
         -1   -1    0    0    0  501 -0.00000000000E+00 -0.00000000000E+00 -0.57780795049E+02  0.57780795049E+02  0.00000000000E+00 0.  1.
         25    2    1    2    0    0 -0.11346721801E+02 -0.58776300346E+02  0.98131337162E+02  0.16988382005E+03  0.12508937367E+03 0.  0.
          5    1    3    3  502    0  0.49398986159E+02 -0.46101231160E+02  0.80613676216E+02  0.10526927634E+03  0.41800000000E+01 0. -1.
         -5    1    3    3    0  502 -0.60745707960E+02 -0.12675069186E+02  0.17517660946E+02  0.64614543715E+02  0.41800000000E+01 0. -1.
        -11    1    1    2    0    0 -0.27292810373E+02  0.37474633896E+02  0.13030920180E+02  0.48156521515E+02  0.00000000000E+00 0.  1.
         11    1    1    2    0    0  0.38639532174E+02  0.21301666450E+02  0.10775435600E+03  0.11643786187E+03  0.00000000000E+00 0. -1.
</event>
<event>
 7    1  0.2490079E-009  0.1102303E+03  0.7561462E-02  0.1260144E+00
          2   -1    0    0  501    0  0.00000000000E+00  0.00000000000E+00  0.60315240909E+03  0.60315240909E+03  0.00000000000E+00 0. -1.
         -2   -1    0    0    0  501 -0.00000000000E+00 -0.00000000000E+00 -0.27654519751E+02  0.27654519751E+02  0.00000000000E+00 0.  1.
         25    2    1    2    0    0 -0.11951308583E+02  0.23253643473E+02  0.16348443360E+03  0.20750634576E+03  0.12509259686E+03 0.  0.
          5    1    3    3  502    0 -0.32390932712E+02  0.67848809957E+02  0.12079066075E+03  0.14233934684E+03  0.41800000000E+01 0.  1.
         -5    1    3    3    0  502  0.20439624130E+02 -0.44595166484E+02  0.42693772853E+02  0.65166998924E+02  0.41800000000E+01 0.  1.
        -11    1    1    2    0    0  0.32048189054E+02 -0.51861739270E+02  0.22890939202E+03  0.23688865776E+03  0.00000000000E+00 0.  1.
         11    1    1    2    0    0 -0.20096880471E+02  0.28608095797E+02  0.18310406371E+03  0.18641192531E+03  0.00000000000E+00 0. -1.
</event>
<event>
 7    1  0.2490079E-009  0.1108526E+03  0.7561462E-02  0.1258999E+00
          3   -1    0    0  501    0  0.00000000000E+00  0.00000000000E+00  0.27370956652E+03  0.27370956652E+03  0.00000000000E+00 0. -1.
         -3   -1    0    0    0  501 -0.00000000000E+00 -0.00000000000E+00 -0.90129463302E+02  0.90129463302E+02  0.00000000000E+00 0.  1.
         25    2    1    2    0    0 -0.60584264132E+02  0.20426350289E+02  0.21138029119E+03  0.25380919465E+03  0.12509912445E+03 0.  0.
          5    1    3    3  502    0  0.33717848806E+02  0.14692167581E+02  0.10569837406E+03  0.11199273099E+03  0.41800000000E+01 0. -1.
         -5    1    3    3    0  502 -0.94302112938E+02  0.57341827090E+01  0.10568191714E+03  0.14181646366E+03  0.41800000000E+01 0. -1.
        -11    1    1    2    0    0 -0.12401565599E+02 -0.10907804601E+02 -0.32311402015E+02  0.36287817938E+02  0.00000000000E+00 0.  1.
         11    1    1    2    0    0  0.72985829731E+02 -0.95185456887E+01  0.45112140405E+01  0.73742017233E+02  0.00000000000E+00 0. -1.
</event>
<event>
 7    1  0.2490079E-009  0.1110827E+03  0.7561462E-02  0.1258578E+00
          1   -1    0    0  501    0  0.00000000000E+00  0.00000000000E+00  0.24279903781E+03  0.24279903781E+03  0.00000000000E+00 0.  1.
         -1   -1    0    0    0  501 -0.00000000000E+00 -0.00000000000E+00 -0.74016837754E+02  0.74016837754E+02  0.00000000000E+00 0. -1.
         25    2    1    2    0    0 -0.18223057536E+02 -0.69499963809E+02  0.54414502537E+02  0.15417301825E+03  0.12508419835E+03 0.  0.
          5    1    3    3  502    0 -0.54422162148E+02 -0.51378298028E+02 -0.12362039705E+02  0.75972321715E+02  0.41800000000E+01 0. -1.
         -5    1    3    3    0  502  0.36199104612E+02 -0.18121665781E+02  0.66776542242E+02  0.78200696539E+02  0.41800000000E+01 0. -1.
        -11    1    1    2    0    0  0.44549921693E+02  0.66455472500E+02  0.10963155024E+03  0.13572067696E+03  0.00000000000E+00 0.  1.
         11    1    1    2    0    0 -0.26326864157E+02  0.30444913090E+01  0.47361472853E+01  0.26922180350E+02  0.00000000000E+00 0. -1.
</event>
<event>
 7    1  0.2490079E-009  0.1376210E+03  0.7561462E-02  0.1216566E+00
          2   -1    0    0  501    0  0.00000000000E+00  0.00000000000E+00  0.40579525631E+03  0.40579525631E+03  0.00000000000E+00 0. -1.
         -2   -1    0    0    0  501 -0.00000000000E+00 -0.00000000000E+00 -0.51091075473E+02  0.51091075473E+02  0.00000000000E+00 0.  1.
         25    2    1    2    0    0 -0.76894943223E+02  0.50073372031E+02  0.15953050954E+03  0.22252555552E+03  0.12508982574E+03 0.  0.
          5    1    3    3  502    0 -0.15537643911E+02 -0.39120587473E+02  0.70857080710E+02  0.82522948501E+02  0.41800000000E+01 0. -1.
         -5    1    3    3    0  502 -0.61357299312E+02  0.89193959504E+02  0.88673428831E+02  0.14000260702E+03  0.41800000000E+01 0. -1.
        -11    1    1    2    0    0  0.56989596940E+01 -0.53037878906E+02  0.11698374678E+03  0.12857173776E+03  0.00000000000E+00 0. -1.
         11    1    1    2    0    0  0.71195983529E+02  0.29645068750E+01  0.78189924512E+02  0.10578903850E+03  0.00000000000E+00 0.  1.
</event>
<event>
 7    1  0.2490079E-009  0.1118345E+03  0.7561462E-02  0.1257210E+00
         -2   -1    0    0    0  501 -0.00000000000E+00  0.00000000000E+00  0.56184014552E+02  0.56184014552E+02  0.00000000000E+00 0.  1.
          2   -1    0    0  501    0  0.00000000000E+00 -0.00000000000E+00 -0.27616740586E+03  0.27616740586E+03  0.00000000000E+00 0. -1.
         25    2    1    2    0    0  0.60291056285E+02 -0.67580631376E+01 -0.11016492731E+03  0.17738089268E+03  0.12508791706E+03 0.  0.
          5    1    3    3  502    0  0.52953504277E+02  0.45771838431E+02 -0.20387291740E+02  0.73022249165E+02  0.41800000000E+01 0. -1.
         -5    1    3    3    0  502  0.73375520073E+01 -0.52529901569E+02 -0.89777635568E+02  0.10435864352E+03  0.41800000000E+01 0. -1.
        -11    1    1    2    0    0 -0.32186158595E+02  0.43484156735E+02 -0.89228118403E+02  0.10434786920E+03  0.00000000000E+00 0. -1.
         11    1    1    2    0    0 -0.28104897690E+02 -0.36726093598E+02 -0.20590345592E+02  0.50622658530E+02  0.00000000000E+00 0.  1.
</event>
<event>
 7    1  0.2490079E-009  0.1835969E+03  0.7561462E-02  0.1164367E+00
          2   -1    0    0  501    0  0.00000000000E+00  0.00000000000E+00  0.91554746251E+03  0.91554746251E+03  0.00000000000E+00 0. -1.
         -2   -1    0    0    0  501 -0.00000000000E+00 -0.00000000000E+00 -0.40806290180E+02  0.40806290180E+02  0.00000000000E+00 0.  1.
         25    2    1    2    0    0 -0.10725856251E+03  0.11329247946E+03  0.53727997742E+03  0.57328732149E+03  0.12509593804E+03 0.  0.
          5    1    3    3  502    0 -0.73433730571E+02  0.58932881143E+01  0.32150387699E+03  0.32986278807E+03  0.41800000000E+01 0.  1.
         -5    1    3    3    0  502 -0.33824831935E+02  0.10739919135E+03  0.21577610043E+03  0.24342453342E+03  0.41800000000E+01 0.  1.
        -11    1    1    2    0    0  0.10639591678E+03 -0.50224807276E+02  0.23352931841E+03  0.26149295388E+03  0.00000000000E+00 0. -1.
         11    1    1    2    0    0  0.86264572053E+00 -0.63067672188E+02  0.10393187650E+03  0.12157347732E+03  0.00000000000E+00 0.  1.
</event>
<event>
 7    1  0.2490079E-009  0.1336790E+03  0.7561462E-02  0.1222097E+00
          1   -1    0    0  501    0  0.00000000000E+00  0.00000000000E+00  0.14507849301E+04  0.14507849301E+04  0.00000000000E+00 0. -1.
         -1   -1    0    0    0  501 -0.00000000000E+00 -0.00000000000E+00 -0.17755477778E+02  0.17755477778E+02  0.00000000000E+00 0.  1.
         25    2    1    2    0    0  0.91055876570E+02 -0.17717555512E+01  0.11124330493E+04  0.11231427270E+04  0.12509190374E+03 0.  0.
          5    1    3    3  502    0  0.47384422111E+02 -0.57982692074E+02  0.75154922602E+03  0.75528205828E+03  0.41800000000E+01 0. -1.
         -5    1    3    3    0  502  0.43671454459E+02  0.56210936523E+02  0.36088382323E+03  0.36786066872E+03  0.41800000000E+01 0. -1.
        -11    1    1    2    0    0 -0.61059904699E+02  0.39600498764E+02  0.13214190203E+03  0.15085752794E+03  0.00000000000E+00 0.  1.
         11    1    1    2    0    0 -0.29995971871E+02 -0.37828743213E+02  0.18845450108E+03  0.19454015297E+03  0.00000000000E+00 0. -1.
</event>
<event>
 7    1  0.2565341E-009  0.1465097E+03  0.7561462E-02  0.1204829E+00
         -1   -1    0    0    0  501 -0.00000000000E+00  0.00000000000E+00  0.58532413645E+02  0.58532413645E+02  0.00000000000E+00 0.  1.
          1   -1    0    0  501    0  0.00000000000E+00 -0.00000000000E+00 -0.45178965170E+03  0.45178965170E+03  0.00000000000E+00 0. -1.
         25    2    1    2    0    0 -0.11906261358E+03  0.10432940995E+02 -0.23117418084E+03  0.28874719835E+03  0.12509472595E+03 0.  0.
          5    1    3    3  502    0 -0.18725593871E+02  0.51862380089E+02 -0.37913271072E+02  0.67046572304E+02  0.41800000000E+01 0.  1.
         -5    1    3    3    0  502 -0.10033701971E+03 -0.41429439094E+02 -0.19326090977E+03  0.22170062605E+03  0.41800000000E+01 0.  1.
        -11    1    1    2    0    0  0.10742815312E+03  0.75237535283E+01 -0.73349205244E+02  0.13029781602E+03  0.00000000000E+00 0.  1.
         11    1    1    2    0    0  0.11634460461E+02 -0.17956694523E+02 -0.88733851975E+02  0.91277050975E+02  0.00000000000E+00 0. -1.
</event>
<event>
 7    1  0.2490079E-009  0.1137943E+03  0.7561462E-02  0.1253700E+00
          1   -1    0    0  501    0  0.00000000000E+00  0.00000000000E+00  0.23507797695E+03  0.23507797695E+03  0.00000000000E+00 0. -1.
         -1   -1    0    0    0  501 -0.00000000000E+00 -0.00000000000E+00 -0.74338633203E+02  0.74338633203E+02  0.00000000000E+00 0.  1.
         25    2    1    2    0    0  0.84958766078E+01  0.51074863634E+02  0.15342806208E+03  0.20462918743E+03  0.12510840300E+03 0.  0.
          5    1    3    3  502    0 -0.33907867624E+02 -0.26035937651E+02  0.76195424677E+02  0.87469015530E+02  0.41800000000E+01 0. -1.
         -5    1    3    3    0  502  0.42403744231E+02  0.77110801285E+02  0.77232637406E+02  0.11716017190E+03  0.41800000000E+01 0. -1.
        -11    1    1    2    0    0 -0.43288850512E+02 -0.13547160553E+02  0.23536312892E+02  0.51101938929E+02  0.00000000000E+00 0. -1.
         11    1    1    2    0    0  0.34792973905E+02 -0.37527703081E+02 -0.16225031227E+02  0.53685483791E+02  0.00000000000E+00 0.  1.
</event>
<event>
 7    1  0.2490079E-009  0.1395678E+03  0.7561462E-02  0.1213912E+00
          2   -1    0    0  501    0  0.00000000000E+00  0.00000000000E+00  0.44957179448E+02  0.44957179448E+02  0.00000000000E+00 0. -1.
         -2   -1    0    0    0  501 -0.00000000000E+00 -0.00000000000E+00 -0.79110715971E+03  0.79110715971E+03  0.00000000000E+00 0.  1.
         25    2    1    2    0    0  0.57816430643E+02  0.71875514631E+02 -0.66684887152E+03  0.68472158522E+03  0.12508957819E+03 0.  0.
          5    1    3    3  502    0  0.21295775051E+02  0.10304736278E+03 -0.50430337053E+03  0.51518116323E+03  0.41800000000E+01 0. -1.
         -5    1    3    3    0  502  0.36520655593E+02 -0.31171848145E+02 -0.16254550098E+03  0.16954042200E+03  0.41800000000E+01 0. -1.
        -11    1    1    2    0    0 -0.69617789552E+02 -0.20005129421E+02 -0.28666987724E+02  0.77901463468E+02  0.00000000000E+00 0. -1.
         11    1    1    2    0    0  0.11801358909E+02 -0.51870385210E+02 -0.50634121021E+02  0.73441290467E+02  0.00000000000E+00 0.  1.
</event>
<event>
 7    1  0.2490079E-009  0.8023948E+02  0.7561462E-02  0.1328373E+00
         -1   -1    0    0    0  501 -0.00000000000E+00  0.00000000000E+00  0.10442414132E+03  0.10442414132E+03  0.00000000000E+00 0.  1.
          1   -1    0    0  501    0  0.00000000000E+00 -0.00000000000E+00 -0.22390856001E+03  0.22390856001E+03  0.00000000000E+00 0. -1.
         25    2    1    2    0    0  0.71401569810E+02 -0.16836315055E+02 -0.14952811030E+03  0.20830218943E+03  0.12509796431E+03 0.  0.
          5    1    3    3  502    0  0.52242391605E+02 -0.63409333580E+01 -0.17003970458E+03  0.17804619752E+03  0.41800000000E+01 0.  1.
         -5    1    3    3    0  502  0.19159178205E+02 -0.10495381696E+02  0.20511594280E+02  0.30255991909E+02  0.41800000000E+01 0.  1.
        -11    1    1    2    0    0 -0.51426409191E+02 -0.95963741570E+01 -0.23273712491E+02  0.57257590347E+02  0.00000000000E+00 0. -1.
         11    1    1    2    0    0 -0.19975160619E+02  0.26432689212E+02  0.53317404102E+02  0.62772921558E+02  0.00000000000E+00 0.  1.
</event>
<event>
 7    1  0.2490079E-009  0.8086863E+02  0.7561462E-02  0.1326604E+00
         -3   -1    0    0    0  501 -0.00000000000E+00  0.00000000000E+00  0.51779479563E+02  0.51779479563E+02  0.00000000000E+00 0.  1.
          3   -1    0    0  501    0  0.00000000000E+00 -0.00000000000E+00 -0.28790140780E+03  0.28790140780E+03  0.00000000000E+00 0. -1.
         25    2    1    2    0    0 -0.39374689007E+02 -0.37316763182E+02 -0.11671740533E+03  0.17948109934E+03  0.12509038877E+03 0.  0.
          5    1    3    3  502    0  0.22263480661E+02 -0.33422845227E+02 -0.11004731328E+03  0.11722044495E+03  0.41800000000E+01 0.  1.
         -5    1    3    3    0  502 -0.61638169667E+02 -0.38939179547E+01 -0.66700920539E+01  0.62260654389E+02  0.41800000000E+01 0.  1.
        -11    1    1    2    0    0  0.40719784751E+02  0.26555108581E+02 -0.13369549863E+03  0.14225948480E+03  0.00000000000E+00 0. -1.
         11    1    1    2    0    0 -0.13450957448E+01  0.10761654601E+02  0.14290975729E+02  0.17940303219E+02  0.00000000000E+00 0.  1.
</event>
<event>
 7    1  0.2490079E-009  0.1019386E+03  0.7561462E-02  0.1276271E+00
         -2   -1    0    0    0  501 -0.00000000000E+00  0.00000000000E+00  0.11848048403E+03  0.11848048403E+03  0.00000000000E+00 0.  1.
          2   -1    0    0  501    0  0.00000000000E+00 -0.00000000000E+00 -0.11172749669E+03  0.11172749669E+03  0.00000000000E+00 0. -1.
         25    2    1    2    0    0  0.33328265144E+02 -0.19883213629E+02  0.13847463970E+02  0.13169976510E+03  0.12508781086E+03 0.  0.
          5    1    3    3  502    0  0.41480015499E+02 -0.55544314993E+02  0.45598629520E+02  0.83081105119E+02  0.41800000000E+01 0.  1.
         -5    1    3    3    0  502 -0.81517503546E+01  0.35661101364E+02 -0.31751165550E+02  0.48618659979E+02  0.41800000000E+01 0.  1.
        -11    1    1    2    0    0 -0.14619804082E+02 -0.35904859646E+02 -0.83374925696E+01  0.39653642959E+02  0.00000000000E+00 0.  1.
         11    1    1    2    0    0 -0.18708461062E+02  0.55788073275E+02  0.12430159381E+01  0.58854572666E+02  0.00000000000E+00 0. -1.
</event>
<event>
 7    1  0.2490079E-009  0.1178563E+03  0.7561462E-02  0.1246676E+00
          2   -1    0    0  501    0  0.00000000000E+00  0.00000000000E+00  0.30531005450E+03  0.30531005450E+03  0.00000000000E+00 0. -1.
         -2   -1    0    0    0  501 -0.00000000000E+00 -0.00000000000E+00 -0.52710068890E+02  0.52710068890E+02  0.00000000000E+00 0.  1.
         25    2    1    2    0    0  0.52145629701E+02 -0.33974575167E+02  0.11443542654E+03  0.18060020621E+03  0.12509008427E+03 0.  0.
          5    1    3    3  502    0  0.86577250510E+02 -0.30532071369E+02  0.43733903410E+02  0.10177403596E+03  0.41800000000E+01 0. -1.
         -5    1    3    3    0  502 -0.34431620809E+02 -0.34425037981E+01  0.70701523125E+02  0.78826170249E+02  0.41800000000E+01 0. -1.
        -11    1    1    2    0    0  0.25467554050E+02  0.41012115586E+01  0.18707770114E+02  0.31865293160E+02  0.00000000000E+00 0.  1.
         11    1    1    2    0    0 -0.77613183751E+02  0.29873363608E+02  0.11945678896E+03  0.14555462402E+03  0.00000000000E+00 0. -1.
</event>
<event>
 7    1  0.2490079E-009  0.8077292E+02  0.7561462E-02  0.1326872E+00
         -1   -1    0    0    0  501 -0.00000000000E+00  0.00000000000E+00  0.25820206344E+02  0.25820206344E+02  0.00000000000E+00 0.  1.
          1   -1    0    0  501    0  0.00000000000E+00 -0.00000000000E+00 -0.46148715355E+03  0.46148715355E+03  0.00000000000E+00 0. -1.
         25    2    1    2    0    0  0.57237615044E+01 -0.11785248025E+02 -0.26648797354E+03  0.29467840756E+03  0.12509144786E+03 0.  0.
          5    1    3    3  502    0  0.42614033794E+02  0.29964505112E+01 -0.24610373419E+03  0.24981884431E+03  0.41800000000E+01 0.  1.
         -5    1    3    3    0  502 -0.36890272290E+02 -0.14781698536E+02 -0.20384239350E+02  0.44859563252E+02  0.41800000000E+01 0.  1.
        -11    1    1    2    0    0  0.31850773593E+02  0.23185455343E+02 -0.34580345736E+02  0.52419819049E+02  0.00000000000E+00 0.  1.
         11    1    1    2    0    0 -0.37574535097E+02 -0.11400207318E+02 -0.13459862793E+03  0.14020913328E+03  0.00000000000E+00 0. -1.
</event>
<event>
 7    1  0.2490079E-009  0.9274895E+02  0.7561462E-02  0.1296328E+00
         -3   -1    0    0    0  501 -0.00000000000E+00  0.00000000000E+00  0.82965575329E+02  0.82965575329E+02  0.00000000000E+00 0.  1.
          3   -1    0    0  501    0  0.00000000000E+00 -0.00000000000E+00 -0.18432001326E+03  0.18432001326E+03  0.00000000000E+00 0. -1.
         25    2    1    2    0    0  0.45988838261E+02 -0.15814177414E+02 -0.92059283398E+02  0.16275174355E+03  0.12509259337E+03 0.  0.
          5    1    3    3  502    0  0.64356639269E+02  0.98745959305E+01 -0.10872627885E+03  0.12679968760E+03  0.41800000000E+01 0. -1.
         -5    1    3    3    0  502 -0.18367801007E+02 -0.25688773344E+02  0.16666995448E+02  0.35952055950E+02  0.41800000000E+01 0. -1.
        -11    1    1    2    0    0  0.67765664452E+01 -0.22300346244E+02 -0.28359292294E+02  0.36707993064E+02  0.00000000000E+00 0. -1.
         11    1    1    2    0    0 -0.52765404707E+02  0.38114523658E+02  0.19064137764E+02  0.67825851975E+02  0.00000000000E+00 0.  1.
</event>
<event>
 7    1  0.2490079E-009  0.2658148E+03  0.7561462E-02  0.1103699E+00
         -2   -1    0    0    0  501 -0.00000000000E+00  0.00000000000E+00  0.42599852355E+02  0.42599852355E+02  0.00000000000E+00 0.  1.
          2   -1    0    0  501    0  0.00000000000E+00 -0.00000000000E+00 -0.18445144386E+04  0.18445144386E+04  0.00000000000E+00 0. -1.
         25    2    1    2    0    0 -0.69301626649E+02 -0.24603897836E+03 -0.10530214954E+04  0.10907979968E+04  0.12509238859E+03 0.  0.
          5    1    3    3  502    0 -0.57842154927E+02 -0.10297000082E+03 -0.69638083511E+03  0.70633722532E+03  0.41800000000E+01 0.  1.
         -5    1    3    3    0  502 -0.11459471722E+02 -0.14306897754E+03 -0.35664066028E+03  0.38446077146E+03  0.41800000000E+01 0.  1.
        -11    1    1    2    0    0  0.18337582274E+00  0.15769105168E+03 -0.40637861424E+03  0.43590145621E+03  0.00000000000E+00 0.  1.
         11    1    1    2    0    0  0.69118250827E+02  0.88347926679E+02 -0.34251447666E+03  0.36041483803E+03  0.00000000000E+00 0. -1.
</event>
<event>
 7    1  0.2490079E-009  0.1260171E+03  0.7561462E-02  0.1233488E+00
         -2   -1    0    0    0  501 -0.00000000000E+00  0.00000000000E+00  0.47433728524E+02  0.47433728524E+02  0.00000000000E+00 0.  1.
          2   -1    0    0  501    0  0.00000000000E+00 -0.00000000000E+00 -0.72134014757E+03  0.72134014757E+03  0.00000000000E+00 0. -1.
         25    2    1    2    0    0 -0.99735084721E+02  0.53022897074E+02 -0.55808515726E+03  0.58297977195E+03  0.12509139463E+03 0.  0.
          5    1    3    3  502    0  0.28538985276E+01  0.86419740782E+01 -0.31755754479E+03  0.31771543102E+03  0.41800000000E+01 0.  1.
         -5    1    3    3    0  502 -0.10258898325E+03  0.44380922996E+02 -0.24052761247E+03  0.26526434093E+03  0.41800000000E+01 0.  1.
        -11    1    1    2    0    0  0.63111955482E+02 -0.65991074218E+02 -0.38176458587E+02  0.98971626193E+02  0.00000000000E+00 0.  1.
         11    1    1    2    0    0  0.36623129240E+02  0.12968177144E+02 -0.77644803194E+02  0.86822477947E+02  0.00000000000E+00 0. -1.
</event>
<event>
 7    1  0.2490079E-009  0.1101403E+03  0.7561462E-02  0.1260310E+00
         -1   -1    0    0    0  501 -0.00000000000E+00  0.00000000000E+00  0.80789638331E+02  0.80789638331E+02  0.00000000000E+00 0.  1.
          1   -1    0    0  501    0  0.00000000000E+00 -0.00000000000E+00 -0.21769924698E+03  0.21769924698E+03  0.00000000000E+00 0. -1.
         25    2    1    2    0    0  0.52421669007E+02 -0.11159349578E+02 -0.13802578646E+03  0.19383161725E+03  0.12508803162E+03 0.  0.
          5    1    3    3  502    0 -0.28881386095E+02 -0.26255390599E+02 -0.89818346837E+02  0.98021874227E+02  0.41800000000E+01 0. -1.
         -5    1    3    3    0  502  0.81303055102E+02  0.15096041021E+02 -0.48207439625E+02  0.95809743026E+02  0.41800000000E+01 0. -1.
        -11    1    1    2    0    0 -0.74198121170E+02  0.10174260459E+01 -0.15031386574E+02  0.75712211190E+02  0.00000000000E+00 0. -1.
         11    1    1    2    0    0  0.21776452163E+02  0.10141923532E+02  0.16147564384E+02  0.28945056872E+02  0.00000000000E+00 0.  1.
</event>
<event>
 7    1  0.2490079E-009  0.1139556E+03  0.7561462E-02  0.1253415E+00
         -1   -1    0    0    0  501 -0.00000000000E+00  0.00000000000E+00  0.13401182575E+02  0.13401182575E+02  0.00000000000E+00 0.  1.
          1   -1    0    0  501    0  0.00000000000E+00 -0.00000000000E+00 -0.10717157962E+04  0.10717157962E+04  0.00000000000E+00 0. -1.
         25    2    1    2    0    0  0.27090473443E+02 -0.34502575369E+02 -0.66342366839E+03  0.67653774397E+03  0.12509210120E+03 0.  0.
          5    1    3    3  502    0 -0.33684159358E+02  0.26715822232E+02 -0.15845978243E+03  0.16424169020E+03  0.41800000000E+01 0.  1.
         -5    1    3    3    0  502  0.60774632801E+02 -0.61218397601E+02 -0.50496388595E+03  0.51229605377E+03  0.41800000000E+01 0.  1.
        -11    1    1    2    0    0 -0.10020042482E+01  0.61092775048E+02 -0.17050697181E+03  0.18112415248E+03  0.00000000000E+00 0. -1.
         11    1    1    2    0    0 -0.26088469194E+02 -0.26590199679E+02 -0.22438397342E+03  0.22745508232E+03  0.00000000000E+00 0.  1.
</event>
<event>
 7    1  0.2490079E-009  0.1119527E+03  0.7561462E-02  0.1256996E+00
          1   -1    0    0  501    0  0.00000000000E+00  0.00000000000E+00  0.17762630539E+03  0.17762630539E+03  0.00000000000E+00 0. -1.
         -1   -1    0    0    0  501 -0.00000000000E+00 -0.00000000000E+00 -0.10342516834E+03  0.10342516834E+03  0.00000000000E+00 0.  1.
         25    2    1    2    0    0  0.57646775555E+01  0.80095992816E+02  0.62612948230E+02  0.16129664747E+03  0.12509047776E+03 0.  0.
          5    1    3    3  502    0 -0.95757998448E+00  0.92519952246E+02  0.90666775260E+02  0.12961016572E+03  0.41800000000E+01 0.  1.
         -5    1    3    3    0  502  0.67222575399E+01 -0.12423959430E+02 -0.28053827031E+02  0.31686481746E+02  0.41800000000E+01 0.  1.
        -11    1    1    2    0    0  0.21353294791E+02  0.91858139810E+01 -0.76717818439E+01  0.24478533731E+02  0.00000000000E+00 0.  1.
         11    1    1    2    0    0 -0.27117972347E+02 -0.89281806797E+02  0.19259970664E+02  0.95276292534E+02  0.00000000000E+00 0. -1.
</event>
<event>
 7    1  0.2490079E-009  0.6179965E+02  0.7561462E-02  0.1390431E+00
         -4   -1    0    0    0  501 -0.00000000000E+00  0.00000000000E+00  0.89039384704E+02  0.89039384704E+02  0.00000000000E+00 0.  1.
          4   -1    0    0  501    0  0.00000000000E+00 -0.00000000000E+00 -0.13693297350E+03  0.13693297350E+03  0.00000000000E+00 0. -1.
         25    2    1    2    0    0 -0.14370430575E+02 -0.37911971598E+01 -0.42921373539E+02  0.13307561059E+03  0.12508393733E+03 0.  0.
          5    1    3    3  502    0 -0.25794188406E+02  0.10514180355E+02  0.39515734585E+02  0.48526836120E+02  0.41800000000E+01 0.  1.
         -5    1    3    3    0  502  0.11423757831E+02 -0.14305377515E+02 -0.82437108124E+02  0.84548774471E+02  0.41800000000E+01 0.  1.
        -11    1    1    2    0    0 -0.10543205005E+02 -0.31634691952E+02  0.23741440725E+02  0.40933713665E+02  0.00000000000E+00 0.  1.
         11    1    1    2    0    0  0.24913635580E+02  0.35425889112E+02 -0.28713655983E+02  0.51963033948E+02  0.00000000000E+00 0. -1.
</event>
<event>
 7    1  0.2490079E-009  0.1767827E+03  0.7561462E-02  0.1170954E+00
         -1   -1    0    0    0  501 -0.00000000000E+00  0.00000000000E+00  0.87770739052E+02  0.87770739052E+02  0.00000000000E+00 0.  1.
          1   -1    0    0  501    0  0.00000000000E+00 -0.00000000000E+00 -0.45385969077E+03  0.45385969077E+03  0.00000000000E+00 0. -1.
         25    2    1    2    0    0 -0.52513740118E+02  0.15841206392E+03 -0.20573357707E+03  0.29296076943E+03  0.12509049843E+03 0.  0.
          5    1    3    3  502    0  0.77435810015E+00 -0.89964262930E+01  0.10404076400E+02  0.14396267650E+02  0.41800000000E+01 0.  1.
         -5    1    3    3    0  502 -0.53288098218E+02  0.16740849021E+03 -0.21613765347E+03  0.27856450178E+03  0.41800000000E+01 0.  1.
        -11    1    1    2    0    0  0.34173489885E+02 -0.12689080705E+03 -0.16605061828E+03  0.21175908990E+03  0.00000000000E+00 0. -1.
         11    1    1    2    0    0  0.18340250233E+02 -0.31521256872E+02  0.56952436362E+01  0.36910570484E+02  0.00000000000E+00 0.  1.
</event>
<event>
 7    1  0.2490079E-009  0.9223293E+02  0.7561462E-02  0.1297533E+00
          1   -1    0    0  501    0  0.00000000000E+00  0.00000000000E+00  0.22820356198E+03  0.22820356198E+03  0.00000000000E+00 0. -1.
         -1   -1    0    0    0  501 -0.00000000000E+00 -0.00000000000E+00 -0.58068996968E+02  0.58068996968E+02  0.00000000000E+00 0.  1.
         25    2    1    2    0    0  0.29133097608E+01 -0.33917119718E+02  0.78309273304E+02  0.15144351336E+03  0.12507572534E+03 0.  0.
          5    1    3    3  502    0  0.27936388504E+02 -0.61959659614E+02  0.41764970009E+01  0.68222846242E+02  0.41800000000E+01 0. -1.
         -5    1    3    3    0  502 -0.25023078743E+02  0.28042539896E+02  0.74132776303E+02  0.83220667121E+02  0.41800000000E+01 0. -1.
        -11    1    1    2    0    0  0.10736798911E+02 -0.20128333506E+02  0.72222940188E+02  0.75740225442E+02  0.00000000000E+00 0. -1.
         11    1    1    2    0    0 -0.13650108672E+02  0.54045453224E+02  0.19602351522E+02  0.59088820145E+02  0.00000000000E+00 0.  1.
</event>
<event>
 7    1  0.2490079E-009  0.1187231E+03  0.7561462E-02  0.1245219E+00
         -4   -1    0    0    0  501 -0.00000000000E+00  0.00000000000E+00  0.53316594559E+02  0.53316594559E+02  0.00000000000E+00 0.  1.
          4   -1    0    0  501    0  0.00000000000E+00 -0.00000000000E+00 -0.59014321643E+03  0.59014321643E+03  0.00000000000E+00 0. -1.
         25    2    1    2    0    0 -0.33726545618E+02 -0.62407340170E+02 -0.50346334178E+03  0.52359791780E+03  0.12508911630E+03 0.  0.
          5    1    3    3  502    0 -0.86013720012E+01 -0.98151354994E+02 -0.31422656604E+03  0.32933794086E+03  0.41800000000E+01 0.  1.
         -5    1    3    3    0  502 -0.25125173617E+02  0.35744014824E+02 -0.18923677575E+03  0.19425997694E+03  0.41800000000E+01 0.  1.
        -11    1    1    2    0    0  0.19713450206E+02  0.74107061244E+02  0.55444434589E+01  0.76884442500E+02  0.00000000000E+00 0.  1.
         11    1    1    2    0    0  0.14013095412E+02 -0.11699721074E+02 -0.38907723541E+02  0.42977450685E+02  0.00000000000E+00 0. -1.
</event>
<event>
 7    1  0.2490079E-009  0.1627622E+03  0.7561462E-02  0.1185613E+00
         -1   -1    0    0    0  501 -0.00000000000E+00  0.00000000000E+00  0.28538859122E+03  0.28538859122E+03  0.00000000000E+00 0.  1.
          1   -1    0    0  501    0  0.00000000000E+00 -0.00000000000E+00 -0.12195043322E+03  0.12195043322E+03  0.00000000000E+00 0. -1.
         25    2    1    2    0    0  0.93348238894E+02  0.84130068242E+02  0.17831291081E+03  0.25146796728E+03  0.12509549280E+03 0.  0.
          5    1    3    3  502    0  0.11482163972E+03  0.35673068120E+02  0.14627433526E+03  0.18939437767E+03  0.41800000000E+01 0. -1.
         -5    1    3    3    0  502 -0.21473400826E+02  0.48457000122E+02  0.32038575553E+02  0.62073589612E+02  0.41800000000E+01 0. -1.
        -11    1    1    2    0    0 -0.85726076415E+02 -0.20734677927E+02  0.67518320560E+01  0.88456058483E+02  0.00000000000E+00 0.  1.
         11    1    1    2    0    0 -0.76221624790E+01 -0.63395390314E+02 -0.21626584861E+02  0.67414998678E+02  0.00000000000E+00 0. -1.
</event>
<event>
 7    1  0.2490079E-009  0.1292298E+03  0.7561462E-02  0.1228603E+00
         -2   -1    0    0    0  501 -0.00000000000E+00  0.00000000000E+00  0.35193261121E+02  0.35193261121E+02  0.00000000000E+00 0.  1.
          2   -1    0    0  501    0  0.00000000000E+00 -0.00000000000E+00 -0.76804662929E+03  0.76804662929E+03  0.00000000000E+00 0. -1.
         25    2    1    2    0    0 -0.77392859492E+02  0.74984841576E+02 -0.24419302528E+03  0.29477009976E+03  0.12508715742E+03 0.  0.
          5    1    3    3  502    0 -0.38076124970E+02  0.32286704280E+01 -0.19596736139E+03  0.19970201485E+03  0.41800000000E+01 0.  1.
         -5    1    3    3    0  502 -0.39316734523E+02  0.71756171148E+02 -0.48225663891E+02  0.95068084913E+02  0.41800000000E+01 0.  1.
        -11    1    1    2    0    0  0.74994394875E+02 -0.13064436878E+02 -0.31556606378E+03  0.32461789751E+03  0.00000000000E+00 0.  1.
         11    1    1    2    0    0  0.23984646169E+01 -0.61920404698E+02 -0.17309427911E+03  0.18385189314E+03  0.00000000000E+00 0. -1.
</event>
<event>
 7    1  0.2490079E-009  0.9649481E+02  0.7561462E-02  0.1287844E+00
          2   -1    0    0  501    0  0.00000000000E+00  0.00000000000E+00  0.30350189486E+02  0.30350189486E+02  0.00000000000E+00 0. -1.
         -2   -1    0    0    0  501 -0.00000000000E+00 -0.00000000000E+00 -0.67621480764E+03  0.67621480764E+03  0.00000000000E+00 0.  1.
         25    2    1    2    0    0 -0.83451474952E+02 -0.19351622486E+02 -0.43901403460E+03  0.46445485151E+03  0.12508538105E+03 0.  0.
          5    1    3    3  502    0 -0.16419611684E+02 -0.31581238999E+02 -0.35218144642E+03  0.35400031342E+03  0.41800000000E+01 0.  1.
         -5    1    3    3    0  502 -0.67031863268E+02  0.12229616512E+02 -0.86832588184E+02  0.11045453809E+03  0.41800000000E+01 0.  1.
        -11    1    1    2    0    0  0.12160623513E+02  0.12215935385E+02  0.54242253917E+01  0.18070198191E+02  0.00000000000E+00 0. -1.
         11    1    1    2    0    0  0.71290851439E+02  0.71356871011E+01 -0.21227480895E+03  0.22403994743E+03  0.00000000000E+00 0.  1.
</event>
<event>
 7    1  0.2490079E-009  0.1104738E+03  0.7561462E-02  0.1259695E+00
          1   -1    0    0  501    0  0.00000000000E+00  0.00000000000E+00  0.69842396841E+03  0.69842396841E+03  0.00000000000E+00 0. -1.
         -1   -1    0    0    0  501 -0.00000000000E+00 -0.00000000000E+00 -0.48725108480E+02  0.48725108480E+02  0.00000000000E+00 0.  1.
         25    2    1    2    0    0 -0.80093655924E+02  0.41030796268E+01  0.59902859137E+03  0.61718518208E+03  0.12510182543E+03 0.  0.
          5    1    3    3  502    0 -0.72473934765E+02  0.45485158753E+02  0.22471008898E+03  0.24048589850E+03  0.41800000000E+01 0.  1.
         -5    1    3    3    0  502 -0.76197211593E+01 -0.41382079126E+02  0.37431850239E+03  0.37669928359E+03  0.41800000000E+01 0.  1.
        -11    1    1    2    0    0  0.80282969467E+01  0.16238274029E+02 -0.20011528753E+02  0.26992524490E+02  0.00000000000E+00 0.  1.
         11    1    1    2    0    0  0.72065358977E+02 -0.20341353656E+02  0.70681797310E+02  0.10297137031E+03  0.00000000000E+00 0. -1.
</event>
<event>
 7    1  0.2490079E-009  0.1148664E+03  0.7561462E-02  0.1251814E+00
         -1   -1    0    0    0  501 -0.00000000000E+00  0.00000000000E+00  0.43347778553E+02  0.43347778553E+02  0.00000000000E+00 0.  1.
          1   -1    0    0  501    0  0.00000000000E+00 -0.00000000000E+00 -0.33647063246E+03  0.33647063246E+03  0.00000000000E+00 0. -1.
         25    2    1    2    0    0  0.15962755754E+02  0.50434429734E+02 -0.15447324984E+03  0.20568998169E+03  0.12509173585E+03 0.  0.
          5    1    3    3  502    0 -0.49935383687E+02  0.19054931937E+02 -0.30264836740E+02  0.61563509630E+02  0.41800000000E+01 0.  1.
         -5    1    3    3    0  502  0.65898139441E+02  0.31379497797E+02 -0.12420841310E+03  0.14412647206E+03  0.41800000000E+01 0.  1.
        -11    1    1    2    0    0  0.33600938402E+02 -0.40221140530E+02 -0.88684675450E+02  0.10301327520E+03  0.00000000000E+00 0. -1.
         11    1    1    2    0    0 -0.49563694156E+02 -0.10213289203E+02 -0.49964928620E+02  0.71115154128E+02  0.00000000000E+00 0.  1.
</event>
<event>
 7    1  0.2601842E-009  0.1198605E+03  0.7561462E-02  0.1243327E+00
         -3   -1    0    0    0  501 -0.00000000000E+00  0.00000000000E+00  0.52381762990E+02  0.52381762990E+02  0.00000000000E+00 0.  1.
          3   -1    0    0  501    0  0.00000000000E+00 -0.00000000000E+00 -0.44790025651E+03  0.44790025651E+03  0.00000000000E+00 0. -1.
         25    2    1    2    0    0 -0.90820667587E+02  0.33776141694E+02 -0.28992627218E+03  0.33029449142E+03  0.12509191161E+03 0.  0.
          5    1    3    3  502    0 -0.31430053545E+02  0.35224397048E+02 -0.16078966467E+02  0.50046098508E+02  0.41800000000E+01 0. -1.
         -5    1    3    3    0  502 -0.59390614042E+02 -0.14482553541E+01 -0.27384730572E+03  0.28024839291E+03  0.41800000000E+01 0. -1.
        -11    1    1    2    0    0  0.54692177486E+02  0.27821651471E+02 -0.41934262302E+02  0.74322008339E+02  0.00000000000E+00 0.  1.
         11    1    1    2    0    0  0.36128490101E+02 -0.61597793165E+02 -0.63657959037E+02  0.95665519747E+02  0.00000000000E+00 0. -1.
</event>
<event>
 7    1  0.2490079E-009  0.1072802E+03  0.7561462E-02  0.1265691E+00
         -1   -1    0    0    0  501 -0.00000000000E+00  0.00000000000E+00  0.22472568063E+02  0.22472568063E+02  0.00000000000E+00 0.  1.
          1   -1    0    0  501    0  0.00000000000E+00 -0.00000000000E+00 -0.55899392449E+03  0.55899392449E+03  0.00000000000E+00 0. -1.
         25    2    1    2    0    0 -0.13880703206E+02  0.19296199172E+02 -0.35802727750E+03  0.37999581053E+03  0.12509303483E+03 0.  0.
          5    1    3    3  502    0  0.91906624863E+01  0.67239049248E+02 -0.25572042803E+03  0.26460530556E+03  0.41800000000E+01 0. -1.
         -5    1    3    3    0  502 -0.23071365693E+02 -0.47942850076E+02 -0.10230684947E+03  0.11539050497E+03  0.41800000000E+01 0. -1.
        -11    1    1    2    0    0 -0.15640981164E+02 -0.48929935951E+02 -0.91191807770E+02  0.10466482087E+03  0.00000000000E+00 0.  1.
         11    1    1    2    0    0  0.29521684370E+02  0.29633736779E+02 -0.87302271157E+02  0.96805861149E+02  0.00000000000E+00 0. -1.
</event>
<event>
 7    1  0.2490079E-009  0.6793146E+02  0.7561462E-02  0.1367272E+00
          2   -1    0    0  501    0  0.00000000000E+00  0.00000000000E+00  0.29489643117E+03  0.29489643117E+03  0.00000000000E+00 0. -1.
         -2   -1    0    0    0  501 -0.00000000000E+00 -0.00000000000E+00 -0.48459339798E+02  0.48459339798E+02  0.00000000000E+00 0.  1.
         25    2    1    2    0    0  0.48991289449E+01 -0.21857231743E+02  0.75771358273E+02  0.14795424244E+03  0.12508964417E+03 0.  0.
          5    1    3    3  502    0  0.43407754681E+02 -0.10550027809E+02 -0.16055385914E+02  0.47652744622E+02  0.41800000000E+01 0.  1.
         -5    1    3    3    0  502 -0.38508625736E+02 -0.11307203934E+02  0.91826744186E+02  0.10030149782E+03  0.41800000000E+01 0.  1.
        -11    1    1    2    0    0  0.15392882438E+02 -0.57071590023E+01 -0.44200383961E+01  0.17001447969E+02  0.00000000000E+00 0.  1.
         11    1    1    2    0    0 -0.20292011383E+02  0.27564390745E+02  0.17508577150E+03  0.17840008056E+03  0.00000000000E+00 0. -1.
</event>
<event>
 7    1  0.2490079E-009  0.9015258E+02  0.7561462E-02  0.1302483E+00
          2   -1    0    0  501    0  0.00000000000E+00  0.00000000000E+00  0.40901510801E+03  0.40901510801E+03  0.00000000000E+00 0. -1.
         -2   -1    0    0    0  501 -0.00000000000E+00 -0.00000000000E+00 -0.34534402104E+02  0.34534402104E+02  0.00000000000E+00 0.  1.
         25    2    1    2    0    0  0.25418876466E+02 -0.41260815919E+02  0.23516691983E+03  0.27074470456E+03  0.12510252056E+03 0.  0.
          5    1    3    3  502    0  0.44980199073E+00 -0.79981355382E+02  0.10147249160E+03  0.12927241965E+03  0.41800000000E+01 0.  1.
         -5    1    3    3    0  502  0.24969074475E+02  0.38720539462E+02  0.13369442824E+03  0.14147228491E+03  0.41800000000E+01 0.  1.
        -11    1    1    2    0    0 -0.15708509097E+01  0.25086095718E+02 -0.50123571660E+01  0.25630128664E+02  0.00000000000E+00 0.  1.
         11    1    1    2    0    0 -0.23848025556E+02  0.16174720201E+02  0.14432614324E+03  0.14717467689E+03  0.00000000000E+00 0. -1.
</event>
<event>
 7    1  0.2490079E-009  0.1120973E+03  0.7561462E-02  0.1256735E+00
          1   -1    0    0  501    0  0.00000000000E+00  0.00000000000E+00  0.20590792847E+03  0.20590792847E+03  0.00000000000E+00 0. -1.
         -1   -1    0    0    0  501 -0.00000000000E+00 -0.00000000000E+00 -0.81431240369E+02  0.81431240369E+02  0.00000000000E+00 0.  1.
         25    2    1    2    0    0  0.64362360984E+02  0.30411104022E+02  0.71393670107E+02  0.16066201352E+03  0.12509147732E+03 0.  0.
          5    1    3    3  502    0  0.39369307127E+02  0.74881359981E+02  0.17798801560E+02  0.86553048203E+02  0.41800000000E+01 0. -1.
         -5    1    3    3    0  502  0.24993053857E+02 -0.44470255959E+02  0.53594868548E+02  0.74108965320E+02  0.41800000000E+01 0. -1.
        -11    1    1    2    0    0 -0.52273480307E+02 -0.45271017361E+02 -0.11489095993E+01  0.69161418071E+02  0.00000000000E+00 0.  1.
         11    1    1    2    0    0 -0.12088880678E+02  0.14859913339E+02  0.54231927588E+02  0.57515737241E+02  0.00000000000E+00 0. -1.
</event>
<event>
 7    1  0.2490079E-009  0.6327628E+02  0.7561462E-02  0.1384575E+00
         -1   -1    0    0    0  501 -0.00000000000E+00  0.00000000000E+00  0.73713370566E+03  0.73713370566E+03  0.00000000000E+00 0.  1.
          1   -1    0    0  501    0  0.00000000000E+00 -0.00000000000E+00 -0.37879860255E+02  0.37879860255E+02  0.00000000000E+00 0. -1.
         25    2    1    2    0    0  0.87494208935E+01  0.27266396827E+02  0.65475948556E+03  0.66721673247E+03  0.12509266722E+03 0.  0.
          5    1    3    3  502    0 -0.79640074530E+01 -0.12984064682E+02  0.58679745660E+01  0.16849833111E+02  0.41800000000E+01 0. -1.
         -5    1    3    3    0  502  0.16713428347E+02  0.40250461508E+02  0.64889151100E+03  0.65036689936E+03  0.41800000000E+01 0. -1.
        -11    1    1    2    0    0 -0.31394562923E+01  0.19561705840E+02  0.55872221341E+02  0.59280870766E+02  0.00000000000E+00 0.  1.
         11    1    1    2    0    0 -0.56099646012E+01 -0.46828102667E+02 -0.11377861500E+02  0.48515962677E+02  0.00000000000E+00 0. -1.
</event>
<event>
 7    1  0.2490079E-009  0.1022309E+03  0.7561462E-02  0.1275673E+00
         -2   -1    0    0    0  501 -0.00000000000E+00  0.00000000000E+00  0.53437091401E+02  0.53437091401E+02  0.00000000000E+00 0.  1.
          2   -1    0    0  501    0  0.00000000000E+00 -0.00000000000E+00 -0.23493212646E+03  0.23493212646E+03  0.00000000000E+00 0. -1.
         25    2    1    2    0    0  0.17359829998E+02 -0.70039731485E+01 -0.76802652211E+02  0.14797419835E+03  0.12508915482E+03 0.  0.
          5    1    3    3  502    0  0.50476278893E+02 -0.50533135978E+02 -0.46097406098E+02  0.85111079253E+02  0.41800000000E+01 0. -1.
         -5    1    3    3    0  502 -0.33116448896E+02  0.43529162829E+02 -0.30705246113E+02  0.62863119099E+02  0.41800000000E+01 0. -1.
        -11    1    1    2    0    0 -0.45477753386E+02  0.16507003269E+02 -0.23180063488E+02  0.53647204525E+02  0.00000000000E+00 0.  1.
         11    1    1    2    0    0  0.28117923389E+02 -0.95030301206E+01 -0.81512319364E+02  0.86747814988E+02  0.00000000000E+00 0. -1.
</event>
<event>
 7    1  0.2490079E-009  0.9641858E+02  0.7561462E-02  0.1288013E+00
          1   -1    0    0  501    0  0.00000000000E+00  0.00000000000E+00  0.27674959831E+03  0.27674959831E+03  0.00000000000E+00 0. -1.
         -1   -1    0    0    0  501 -0.00000000000E+00 -0.00000000000E+00 -0.86017673559E+02  0.86017673559E+02  0.00000000000E+00 0.  1.
         25    2    1    2    0    0  0.51203889642E+02  0.20282681132E+02 -0.87119488123E+01  0.13695311516E+03  0.12508809788E+03 0.  0.
          5    1    3    3  502    0  0.40235619374E+02  0.60593956611E+02  0.30986045933E+02  0.79171586360E+02  0.41800000000E+01 0.  1.
         -5    1    3    3    0  502  0.10968270268E+02 -0.40311275479E+02 -0.39697994745E+02  0.57781528797E+02  0.41800000000E+01 0.  1.
        -11    1    1    2    0    0 -0.20057118507E+02  0.19159970181E+02  0.15872744993E+03  0.16113285147E+03  0.00000000000E+00 0. -1.
         11    1    1    2    0    0 -0.31146771134E+02 -0.39442651313E+02  0.40716423630E+02  0.64681305243E+02  0.00000000000E+00 0.  1.
</event>
<event>
 7    1  0.2490079E-009  0.1443356E+03  0.7561462E-02  0.1207611E+00
         -1   -1    0    0    0  501 -0.00000000000E+00  0.00000000000E+00  0.31845078021E+03  0.31845078021E+03  0.00000000000E+00 0.  1.
          1   -1    0    0  501    0  0.00000000000E+00 -0.00000000000E+00 -0.76165360194E+02  0.76165360194E+02  0.00000000000E+00 0. -1.
         25    2    1    2    0    0 -0.97699798873E+02 -0.27734259025E+02  0.19030600169E+03  0.24935550353E+03  0.12508938020E+03 0.  0.
          5    1    3    3  502    0 -0.30799935954E+01  0.41159549841E+02  0.31784156546E+02  0.52261839912E+02  0.41800000000E+01 0.  1.
         -5    1    3    3    0  502 -0.94619805277E+02 -0.68893808866E+02  0.15852184515E+03  0.19709366362E+03  0.41800000000E+01 0.  1.
        -11    1    1    2    0    0  0.18370456200E+02  0.45241397133E+02  0.23265484265E-01  0.48828866634E+02  0.00000000000E+00 0.  1.
         11    1    1    2    0    0  0.79329342672E+02 -0.17507138107E+02  0.51956152842E+02  0.96431770240E+02  0.00000000000E+00 0. -1.
</event>
<event>
 7    1  0.2490079E-009  0.9894806E+02  0.7561462E-02  0.1282524E+00
          1   -1    0    0  501    0  0.00000000000E+00  0.00000000000E+00  0.86310998620E+02  0.86310998620E+02  0.00000000000E+00 0. -1.
         -1   -1    0    0    0  501 -0.00000000000E+00 -0.00000000000E+00 -0.17193706936E+03  0.17193706936E+03  0.00000000000E+00 0.  1.
         25    2    1    2    0    0  0.50499563554E+02  0.32219715372E+02 -0.35204760868E+02  0.14309012555E+03  0.12508834024E+03 0.  0.
          5    1    3    3  502    0 -0.24153604965E+02  0.40406871753E+02 -0.47348747705E+02  0.66899089881E+02  0.41800000000E+01 0.  1.
         -5    1    3    3    0  502  0.74653168519E+02 -0.81871563809E+01  0.12143986837E+02  0.76191035666E+02  0.41800000000E+01 0.  1.
        -11    1    1    2    0    0 -0.60839113851E+00 -0.25000071003E+02 -0.58946117731E+02  0.64031386722E+02  0.00000000000E+00 0.  1.
         11    1    1    2    0    0 -0.49891172415E+02 -0.72196443691E+01  0.85248078596E+01  0.51126555711E+02  0.00000000000E+00 0. -1.
</event>
<event>
 7    1  0.2490079E-009  0.1164629E+03  0.7561462E-02  0.1249049E+00
         -1   -1    0    0    0  501 -0.00000000000E+00  0.00000000000E+00  0.32335123986E+02  0.32335123986E+02  0.00000000000E+00 0.  1.
          1   -1    0    0  501    0  0.00000000000E+00 -0.00000000000E+00 -0.71030800419E+03  0.71030800419E+03  0.00000000000E+00 0. -1.
         25    2    1    2    0    0  0.54493958663E+02 -0.42100302162E+02 -0.56444572123E+03  0.58222684425E+03  0.12508836469E+03 0.  0.
          5    1    3    3  502    0  0.66786491781E+02  0.10686207704E+02 -0.45506549220E+03  0.46008336757E+03  0.41800000000E+01 0. -1.
         -5    1    3    3    0  502 -0.12292533118E+02 -0.52786509866E+02 -0.10938022903E+03  0.12214347668E+03  0.41800000000E+01 0. -1.
        -11    1    1    2    0    0  0.22727816894E+02  0.20519313484E+02 -0.47666856337E+02  0.56654435657E+02  0.00000000000E+00 0. -1.
         11    1    1    2    0    0 -0.77221775557E+02  0.21580988679E+02 -0.65860302638E+02  0.10376184827E+03  0.00000000000E+00 0.  1.
</event>
<event>
 7    1  0.2490079E-009  0.1167997E+03  0.7561462E-02  0.1248472E+00
          1   -1    0    0  501    0  0.00000000000E+00  0.00000000000E+00  0.10077643458E+04  0.10077643458E+04  0.00000000000E+00 0. -1.
         -1   -1    0    0    0  501 -0.00000000000E+00 -0.00000000000E+00 -0.20050633363E+02  0.20050633363E+02  0.00000000000E+00 0.  1.
         25    2    1    2    0    0 -0.78573749825E+02  0.23714230704E+02  0.57373433273E+03  0.59291776879E+03  0.12507676479E+03 0.  0.
          5    1    3    3  502    0 -0.99684406566E+00  0.45141069307E+02  0.74457260802E+02  0.87178356961E+02  0.41800000000E+01 0.  1.
         -5    1    3    3    0  502 -0.77576905759E+02 -0.21426838604E+02  0.49927707193E+03  0.50573941183E+03  0.41800000000E+01 0.  1.
        -11    1    1    2    0    0 -0.34640697571E+01  0.16105009418E+02  0.71244986959E+01  0.17947968946E+02  0.00000000000E+00 0.  1.
         11    1    1    2    0    0  0.82037819582E+02 -0.39819240122E+02  0.40685488096E+03  0.41694924138E+03  0.00000000000E+00 0. -1.
</event>
<event>
 7    1  0.2490079E-009  0.7494641E+02  0.7561462E-02  0.1344037E+00
         -2   -1    0    0    0  501 -0.00000000000E+00  0.00000000000E+00  0.27278840164E+02  0.27278840164E+02  0.00000000000E+00 0.  1.
          2   -1    0    0  501    0  0.00000000000E+00 -0.00000000000E+00 -0.44814407278E+03  0.44814407278E+03  0.00000000000E+00 0. -1.
         25    2    1    2    0    0  0.97002087890E+00 -0.66694195877E+01 -0.20127874246E+03  0.23707871680E+03  0.12509102164E+03 0.  0.
          5    1    3    3  502    0 -0.27557470327E+02 -0.14199225722E+02  0.22671343884E+01  0.31363106993E+02  0.41800000000E+01 0. -1.
         -5    1    3    3    0  502  0.28527491206E+02  0.75298061343E+01 -0.20354587685E+03  0.20571560981E+03  0.41800000000E+01 0. -1.
        -11    1    1    2    0    0  0.38907979744E+02 -0.16977402920E+02 -0.13939256548E+03  0.14571324719E+03  0.00000000000E+00 0. -1.
         11    1    1    2    0    0 -0.39878000623E+02  0.23646822508E+02 -0.80193924680E+02  0.92630948953E+02  0.00000000000E+00 0.  1.
</event>
<event>
 7    1  0.2490079E-009  0.1584230E+03  0.7561462E-02  0.1190489E+00
          4   -1    0    0  501    0  0.00000000000E+00  0.00000000000E+00  0.43400777644E+02  0.43400777644E+02  0.00000000000E+00 0. -1.
         -4   -1    0    0    0  501 -0.00000000000E+00 -0.00000000000E+00 -0.70538423883E+03  0.70538423883E+03  0.00000000000E+00 0.  1.
         25    2    1    2    0    0  0.52820118873E+02 -0.10807638631E+03 -0.20903142033E+03  0.27168294453E+03  0.12508803870E+03 0.  0.
          5    1    3    3  502    0 -0.39777606352E+02 -0.16603534010E+02 -0.53485631397E+02  0.68819477437E+02  0.41800000000E+01 0. -1.
         -5    1    3    3    0  502  0.92597725225E+02 -0.91472852302E+02 -0.15554578894E+03  0.20286346709E+03  0.41800000000E+01 0. -1.
        -11    1    1    2    0    0  0.10293190983E+02  0.67502342162E+02 -0.14700933057E+03  0.16209336585E+03  0.00000000000E+00 0.  1.
         11    1    1    2    0    0 -0.63113309856E+02  0.40574044150E+02 -0.30594271028E+03  0.31500870609E+03  0.00000000000E+00 0. -1.
</event>
<event>
 7    1  0.2490079E-009  0.9843028E+02  0.7561462E-02  0.1283632E+00
          2   -1    0    0  501    0  0.00000000000E+00  0.00000000000E+00  0.38672397798E+03  0.38672397798E+03  0.00000000000E+00 0.  1.
         -2   -1    0    0    0  501 -0.00000000000E+00 -0.00000000000E+00 -0.39073776914E+02  0.39073776914E+02  0.00000000000E+00 0. -1.
         25    2    1    2    0    0 -0.88261625006E+01  0.53122713264E+02  0.22179815052E+03  0.26027196405E+03  0.12508857617E+03 0.  0.
          5    1    3    3  502    0 -0.51686307707E+02  0.30776959846E+02  0.19652469427E+03  0.20556780760E+03  0.41800000000E+01 0. -1.
         -5    1    3    3    0  502  0.42860145206E+02  0.22345753418E+02  0.25273456253E+02  0.54704156459E+02  0.41800000000E+01 0. -1.
        -11    1    1    2    0    0  0.31802883625E+02 -0.56484874162E+02  0.39060595000E+02  0.75681533400E+02  0.00000000000E+00 0. -1.
         11    1    1    2    0    0 -0.22976721125E+02  0.33621608981E+01  0.86791455543E+02  0.89844257439E+02  0.00000000000E+00 0.  1.
</event>
<event>
 7    1  0.2490079E-009  0.1358997E+03  0.7561462E-02  0.1218955E+00
          2   -1    0    0  501    0  0.00000000000E+00  0.00000000000E+00  0.10331416556E+03  0.10331416556E+03  0.00000000000E+00 0.  1.
         -2   -1    0    0    0  501 -0.00000000000E+00 -0.00000000000E+00 -0.19626877892E+03  0.19626877892E+03  0.00000000000E+00 0. -1.
         25    2    1    2    0    0  0.77276024052E+01  0.90438945887E+02 -0.64533251644E+02  0.16748226469E+03  0.12508736806E+03 0.  0.
          5    1    3    3  502    0  0.61726667022E+02  0.50978858613E+02 -0.60346912707E+02  0.10034065836E+03  0.41800000000E+01 0.  1.
         -5    1    3    3    0  502 -0.53999064617E+02  0.39460087273E+02 -0.41863389377E+01  0.67141606332E+02  0.41800000000E+01 0.  1.
        -11    1    1    2    0    0 -0.42883332894E+02 -0.23221035715E+02 -0.28019958374E+02  0.56243353448E+02  0.00000000000E+00 0.  1.
         11    1    1    2    0    0  0.35155730488E+02 -0.67217910171E+02 -0.40140334115E+00  0.75857326335E+02  0.00000000000E+00 0. -1.
</event>
<event>
 7    1  0.2490079E-009  0.1101923E+03  0.7561462E-02  0.1260214E+00
         -2   -1    0    0    0  501 -0.00000000000E+00  0.00000000000E+00  0.19175168592E+02  0.19175168592E+02  0.00000000000E+00 0.  1.
          2   -1    0    0  501    0  0.00000000000E+00 -0.00000000000E+00 -0.90139115444E+03  0.90139115444E+03  0.00000000000E+00 0. -1.
         25    2    1    2    0    0  0.13835310849E+02 -0.58553383068E+02 -0.61331877554E+03  0.62883002175E+03  0.12508941334E+03 0.  0.
          5    1    3    3  502    0  0.25371804797E+01  0.23672588441E+02 -0.38669009420E+03  0.38744487361E+03  0.41800000000E+01 0.  1.
         -5    1    3    3    0  502  0.11298130369E+02 -0.82225971509E+02 -0.22662868134E+03  0.24138514815E+03  0.41800000000E+01 0.  1.
        -11    1    1    2    0    0  0.30546058035E+02 -0.93877732814E+01 -0.79841337078E+02  0.85999017756E+02  0.00000000000E+00 0. -1.
         11    1    1    2    0    0 -0.44381368884E+02  0.67941156349E+02 -0.18905587323E+03  0.20573728353E+03  0.00000000000E+00 0.  1.
</event>
<event>
 7    1  0.2490079E-009  0.1001660E+03  0.7561462E-02  0.1279947E+00
         -2   -1    0    0    0  501 -0.00000000000E+00  0.00000000000E+00  0.27295790033E+02  0.27295790033E+02  0.00000000000E+00 0.  1.
          2   -1    0    0  501    0  0.00000000000E+00 -0.00000000000E+00 -0.68597279858E+03  0.68597279858E+03  0.00000000000E+00 0. -1.
         25    2    1    2    0    0 -0.76939620235E+01  0.36781310676E+02 -0.16800003990E+03  0.21280243172E+03  0.12509516247E+03 0.  0.
          5    1    3    3  502    0 -0.38102215330E+02  0.54719145715E+02 -0.16392717909E+03  0.17701851927E+03  0.41800000000E+01 0. -1.
         -5    1    3    3    0  502  0.30408253307E+02 -0.17937835039E+02 -0.40728608137E+01  0.35783912451E+02  0.41800000000E+01 0. -1.
        -11    1    1    2    0    0 -0.18586500686E+01 -0.66617536317E+02 -0.30863519303E+03  0.31574836992E+03  0.00000000000E+00 0.  1.
         11    1    1    2    0    0  0.95526120921E+01  0.29836225641E+02 -0.18204177561E+03  0.18471778697E+03  0.00000000000E+00 0. -1.
</event>
<event>
 7    1  0.2490079E-009  0.1053228E+03  0.7561462E-02  0.1269485E+00
          2   -1    0    0  501    0  0.00000000000E+00  0.00000000000E+00  0.21964852351E+03  0.21964852351E+03  0.00000000000E+00 0. -1.
         -2   -1    0    0    0  501 -0.00000000000E+00 -0.00000000000E+00 -0.53203798441E+02  0.53203798441E+02  0.00000000000E+00 0.  1.
         25    2    1    2    0    0  0.10897275660E+01  0.98491344093E+01  0.10191722339E+03  0.16166542903E+03  0.12510154902E+03 0.  0.
          5    1    3    3  502    0 -0.15062579362E+02  0.64353603939E+02  0.39381154759E+02  0.77049434697E+02  0.41800000000E+01 0.  1.
         -5    1    3    3    0  502  0.16152306928E+02 -0.54504469529E+02  0.62536068629E+02  0.84615994335E+02  0.41800000000E+01 0.  1.
        -11    1    1    2    0    0 -0.42016050877E+02  0.79992416366E+01  0.46098638921E+02  0.62884186474E+02  0.00000000000E+00 0. -1.
         11    1    1    2    0    0  0.40926323311E+02 -0.17848376046E+02  0.18428862757E+02  0.48302706443E+02  0.00000000000E+00 0.  1.
</event>
<event>
 7    1  0.2490079E-009  0.1638447E+03  0.7561462E-02  0.1184423E+00
          1   -1    0    0  501    0  0.00000000000E+00  0.00000000000E+00  0.41589997785E+03  0.41589997785E+03  0.00000000000E+00 0. -1.
         -1   -1    0    0    0  501 -0.00000000000E+00 -0.00000000000E+00 -0.96740187805E+02  0.96740187805E+02  0.00000000000E+00 0.  1.
         25    2    1    2    0    0 -0.71610176033E+02  0.14371654298E+03  0.22840911752E+03  0.30594273894E+03  0.12509105688E+03 0.  0.
          5    1    3    3  502    0 -0.73522665501E+02  0.10783655320E+03  0.79890848314E+02  0.15308273774E+03  0.41800000000E+01 0.  1.
         -5    1    3    3    0  502  0.19124894678E+01  0.35879989775E+02  0.14851826920E+03  0.15286000121E+03  0.41800000000E+01 0.  1.
        -11    1    1    2    0    0  0.36411819794E+02 -0.85074736645E+02 -0.64824538533E+00  0.92541621220E+02  0.00000000000E+00 0.  1.
         11    1    1    2    0    0  0.35198356239E+02 -0.58641806330E+02  0.91398917917E+02  0.11415580549E+03  0.00000000000E+00 0. -1.
</event>
<event>
 7    1  0.2490079E-009  0.1038711E+03  0.7561462E-02  0.1272360E+00
         -2   -1    0    0    0  501 -0.00000000000E+00  0.00000000000E+00  0.69815636728E+02  0.69815636728E+02  0.00000000000E+00 0.  1.
          2   -1    0    0  501    0  0.00000000000E+00 -0.00000000000E+00 -0.26842800838E+03  0.26842800838E+03  0.00000000000E+00 0. -1.
         25    2    1    2    0    0 -0.23004621620E+02  0.58487755522E+02 -0.18140577291E+03  0.22913948035E+03  0.12508723696E+03 0.  0.
          5    1    3    3  502    0 -0.10517212941E+02 -0.39085071578E+02 -0.42078770596E+02  0.58535031590E+02  0.41800000000E+01 0. -1.
         -5    1    3    3    0  502 -0.12487408679E+02  0.97572827100E+02 -0.13932700232E+03  0.17060444876E+03  0.41800000000E+01 0. -1.
        -11    1    1    2    0    0  0.49888165464E+01 -0.46919739272E+02 -0.50759211420E+02  0.69302581250E+02  0.00000000000E+00 0. -1.
         11    1    1    2    0    0  0.18015805074E+02 -0.11568016249E+02  0.33552612676E+02  0.39801583509E+02  0.00000000000E+00 0.  1.
</event>
<event>
 7    1  0.2490079E-009  0.8365151E+02  0.7561462E-02  0.1318997E+00
         -2   -1    0    0    0  501 -0.00000000000E+00  0.00000000000E+00  0.19848023105E+02  0.19848023105E+02  0.00000000000E+00 0.  1.
          2   -1    0    0  501    0  0.00000000000E+00 -0.00000000000E+00 -0.77873346445E+03  0.77873346445E+03  0.00000000000E+00 0. -1.
         25    2    1    2    0    0 -0.33075834827E+02  0.12715165030E+02 -0.57204178753E+03  0.58663036871E+03  0.12509075319E+03 0.  0.
          5    1    3    3  502    0 -0.54277834595E+02  0.42336971617E+02 -0.50939466321E+03  0.51404172768E+03  0.41800000000E+01 0. -1.
         -5    1    3    3    0  502  0.21201999768E+02 -0.29621806588E+02 -0.62647124327E+02  0.72588641027E+02  0.41800000000E+01 0. -1.
        -11    1    1    2    0    0  0.75337909743E+01 -0.29934821241E+02 -0.10004541385E+02  0.32449073600E+02  0.00000000000E+00 0.  1.
         11    1    1    2    0    0  0.25542043853E+02  0.17219656211E+02 -0.17683911242E+03  0.17950204524E+03  0.00000000000E+00 0. -1.
</event>
<event>
 7    1  0.2490079E-009  0.1261915E+03  0.7561462E-02  0.1233219E+00
         -3   -1    0    0    0  501 -0.00000000000E+00  0.00000000000E+00  0.18675886449E+03  0.18675886449E+03  0.00000000000E+00 0.  1.
          3   -1    0    0  501    0  0.00000000000E+00 -0.00000000000E+00 -0.12632722616E+03  0.12632722616E+03  0.00000000000E+00 0. -1.
         25    2    1    2    0    0 -0.64303908198E+02 -0.87219211105E+02  0.24074747953E+02  0.16723949050E+03  0.12508904947E+03 0.  0.
          5    1    3    3  502    0 -0.13536293142E+02  0.15364524011E+01 -0.42720679650E+02  0.45034662070E+02  0.41800000000E+01 0.  1.
         -5    1    3    3    0  502 -0.50767615056E+02 -0.88755663507E+02  0.66795427603E+02  0.12220482843E+03  0.41800000000E+01 0.  1.
        -11    1    1    2    0    0 -0.56259537734E+01  0.60775918344E+02  0.36435942688E+02  0.71084045510E+02  0.00000000000E+00 0.  1.
         11    1    1    2    0    0  0.69929861971E+02  0.26443292761E+02 -0.79052312099E-01  0.74762554642E+02  0.00000000000E+00 0. -1.
</event>
<event>
 7    1  0.2490079E-009  0.2096189E+03  0.7561462E-02  0.1141868E+00
          1   -1    0    0  501    0  0.00000000000E+00  0.00000000000E+00  0.55594034649E+02  0.55594034649E+02  0.00000000000E+00 0. -1.
         -1   -1    0    0    0  501 -0.00000000000E+00 -0.00000000000E+00 -0.86993232308E+03  0.86993232308E+03  0.00000000000E+00 0.  1.
         25    2    1    2    0    0 -0.50746766008E+02 -0.18268596266E+03 -0.48839991397E+03  0.53863926219E+03  0.12509349939E+03 0.  0.
          5    1    3    3  502    0 -0.46791951698E+02 -0.19554424403E+03 -0.48361225933E+03  0.52376075444E+03  0.41800000000E+01 0.  1.
         -5    1    3    3    0  502 -0.39548143098E+01  0.12858281366E+02 -0.47876546417E+01  0.14878507751E+02  0.41800000000E+01 0.  1.
        -11    1    1    2    0    0 -0.37496020057E+01  0.12361967997E+03 -0.15746980733E+03  0.20023142863E+03  0.00000000000E+00 0.  1.
         11    1    1    2    0    0  0.54496368013E+02  0.59066282693E+02 -0.16846856713E+03  0.18665566691E+03  0.00000000000E+00 0. -1.
</event>
<event>
 7    1  0.2490079E-009  0.8498240E+02  0.7561462E-02  0.1315479E+00
         -1   -1    0    0    0  501 -0.00000000000E+00  0.00000000000E+00  0.90437509536E+02  0.90437509536E+02  0.00000000000E+00 0.  1.
          1   -1    0    0  501    0  0.00000000000E+00 -0.00000000000E+00 -0.13595105232E+03  0.13595105232E+03  0.00000000000E+00 0. -1.
         25    2    1    2    0    0 -0.20012552054E+02  0.10362989876E+02 -0.12287761573E+02  0.12769983252E+03  0.12509342246E+03 0.  0.
          5    1    3    3  502    0  0.20497806665E+02  0.59524696174E+02 -0.27645321127E+01  0.63154291782E+02  0.41800000000E+01 0. -1.
         -5    1    3    3    0  502 -0.40510358719E+02 -0.49161706298E+02 -0.95232294600E+01  0.64545540737E+02  0.41800000000E+01 0. -1.
        -11    1    1    2    0    0 -0.38057451543E+01 -0.17703652976E+02  0.27568535168E+02  0.32983740785E+02  0.00000000000E+00 0.  1.
         11    1    1    2    0    0  0.23818297208E+02  0.73406630996E+01 -0.60794316377E+02  0.65704988551E+02  0.00000000000E+00 0. -1.
</event>
<event>
 7    1  0.2490079E-009  0.9255992E+02  0.7561462E-02  0.1296768E+00
          1   -1    0    0  501    0  0.00000000000E+00  0.00000000000E+00  0.75763438312E+03  0.75763438312E+03  0.00000000000E+00 0. -1.
         -1   -1    0    0    0  501 -0.00000000000E+00 -0.00000000000E+00 -0.19099571874E+02  0.19099571874E+02  0.00000000000E+00 0.  1.
         25    2    1    2    0    0  0.48994531727E+02  0.14712131563E+02  0.42395910661E+03  0.44497860350E+03  0.12509085713E+03 0.  0.
          5    1    3    3  502    0 -0.25530275410E+02 -0.14328785350E+02  0.26827913515E+03  0.26990419746E+03  0.41800000000E+01 0. -1.
         -5    1    3    3    0  502  0.74524807137E+02  0.29040916913E+02  0.15567997146E+03  0.17507440604E+03  0.41800000000E+01 0. -1.
        -11    1    1    2    0    0 -0.49041211965E+02  0.10573760126E+02  0.29639770737E+03  0.30061344914E+03  0.00000000000E+00 0. -1.
         11    1    1    2    0    0  0.46680238393E-01 -0.25285891689E+02  0.18177997273E+02  0.31141902357E+02  0.00000000000E+00 0.  1.
</event>
<event>
 7    1  0.2490079E-009  0.9979491E+02  0.7561462E-02  0.1280728E+00
         -2   -1    0    0    0  501 -0.00000000000E+00  0.00000000000E+00  0.50290722391E+02  0.50290722391E+02  0.00000000000E+00 0.  1.
          2   -1    0    0  501    0  0.00000000000E+00 -0.00000000000E+00 -0.26447984218E+03  0.26447984218E+03  0.00000000000E+00 0. -1.
         25    2    1    2    0    0  0.25141225369E+02 -0.24071184970E+02 -0.14836967342E+03  0.19716173027E+03  0.12509070603E+03 0.  0.
          5    1    3    3  502    0  0.21536697301E+02  0.45715316015E+02 -0.99847433809E+02  0.11198527531E+03  0.41800000000E+01 0.  1.
         -5    1    3    3    0  502  0.36045280679E+01 -0.69786500985E+02 -0.48522239615E+02  0.85176454960E+02  0.41800000000E+01 0.  1.
        -11    1    1    2    0    0 -0.80725923631E+00  0.46068549653E+02 -0.70757014333E+02  0.84436473232E+02  0.00000000000E+00 0. -1.
         11    1    1    2    0    0 -0.24333966133E+02 -0.21997364683E+02  0.49375679725E+01  0.33172361059E+02  0.00000000000E+00 0.  1.
</event>
<event>
 7    1  0.2490079E-009  0.1090726E+03  0.7561462E-02  0.1262297E+00
         -3   -1    0    0    0  501 -0.00000000000E+00  0.00000000000E+00  0.60406215558E+02  0.60406215558E+02  0.00000000000E+00 0.  1.
          3   -1    0    0  501    0  0.00000000000E+00 -0.00000000000E+00 -0.22140289453E+03  0.22140289453E+03  0.00000000000E+00 0. -1.
         25    2    1    2    0    0 -0.37691290087E+02 -0.62141552453E-01 -0.59538605631E+02  0.14357189824E+03  0.12508959666E+03 0.  0.
          5    1    3    3  502    0  0.30004199577E+02  0.41056331945E+02 -0.18538725720E+02  0.54286564971E+02  0.41800000000E+01 0.  1.
         -5    1    3    3    0  502 -0.67695489664E+02 -0.41118473497E+02 -0.40999879911E+02  0.89285333265E+02  0.41800000000E+01 0.  1.
        -11    1    1    2    0    0  0.45283290168E+02  0.31696679310E+02 -0.38470307370E+02  0.67344044999E+02  0.00000000000E+00 0.  1.
         11    1    1    2    0    0 -0.75920000807E+01 -0.31634537758E+02 -0.62987765973E+02  0.70893166854E+02  0.00000000000E+00 0. -1.
</event>
<event>
 7    1  0.2490079E-009  0.1035079E+03  0.7561462E-02  0.1273088E+00
          1   -1    0    0  501    0  0.00000000000E+00  0.00000000000E+00  0.24315448659E+03  0.24315448659E+03  0.00000000000E+00 0. -1.
         -1   -1    0    0    0  501 -0.00000000000E+00 -0.00000000000E+00 -0.74693016326E+02  0.74693016326E+02  0.00000000000E+00 0.  1.
         25    2    1    2    0    0 -0.30317209094E+02 -0.39803108517E+02  0.22776633644E+02  0.13663695819E+03  0.12508981848E+03 0.  0.
          5    1    3    3  502    0 -0.72435890290E+02 -0.37237970776E+02  0.40041278251E+02  0.90853734285E+02  0.41800000000E+01 0.  1.
         -5    1    3    3    0  502  0.42118681196E+02 -0.25651377409E+01 -0.17264644607E+02  0.45783223900E+02  0.41800000000E+01 0.  1.
        -11    1    1    2    0    0 -0.16117948145E+02  0.32194701281E+02  0.96605588650E+01  0.37277519238E+02  0.00000000000E+00 0.  1.
         11    1    1    2    0    0  0.46435157239E+02  0.76084072365E+01  0.13602427775E+03  0.14393302549E+03  0.00000000000E+00 0. -1.
</event>
<event>
 7    1  0.2490079E-009  0.8100024E+02  0.7561462E-02  0.1326237E+00
         -3   -1    0    0    0  501 -0.00000000000E+00  0.00000000000E+00  0.24782604273E+02  0.24782604273E+02  0.00000000000E+00 0.  1.
          3   -1    0    0  501    0  0.00000000000E+00 -0.00000000000E+00 -0.51490782035E+03  0.51490782035E+03  0.00000000000E+00 0. -1.
         25    2    1    2    0    0 -0.38993696676E+01 -0.40479974336E+01 -0.20829118729E+03  0.24303075627E+03  0.12508852234E+03 0.  0.
          5    1    3    3  502    0  0.14161858164E+02 -0.37799979382E+02 -0.11040909719E+02  0.42056756358E+02  0.41800000000E+01 0.  1.
         -5    1    3    3    0  502 -0.18061227832E+02  0.33751981949E+02 -0.19725027757E+03  0.20097399991E+03  0.41800000000E+01 0.  1.
        -11    1    1    2    0    0 -0.29675905394E+02 -0.24776894820E+02 -0.19926306349E+03  0.20297862535E+03  0.00000000000E+00 0.  1.
         11    1    1    2    0    0  0.33575275062E+02  0.28824892254E+02 -0.82570965299E+02  0.93681043010E+02  0.00000000000E+00 0. -1.
</event>
<event>
 7    1  0.2490079E-009  0.7806893E+02  0.7561462E-02  0.1334623E+00
          2   -1    0    0  501    0  0.00000000000E+00  0.00000000000E+00  0.29960379663E+03  0.29960379663E+03  0.00000000000E+00 0.  1.
         -2   -1    0    0    0  501 -0.00000000000E+00 -0.00000000000E+00 -0.43167088063E+02  0.43167088063E+02  0.00000000000E+00 0. -1.
         25    2    1    2    0    0  0.22891055527E+02 -0.24515362885E+02  0.12873992100E+03  0.18260931159E+03  0.12508872843E+03 0.  0.
          5    1    3    3  502    0 -0.17964923770E+02  0.21005315267E+02 -0.10977418177E+02  0.30032280389E+02  0.41800000000E+01 0. -1.
         -5    1    3    3    0  502  0.40855979297E+02 -0.45520678153E+02  0.13971733918E+03  0.15257703120E+03  0.41800000000E+01 0. -1.
        -11    1    1    2    0    0  0.53476051091E+01  0.35996180996E+02  0.12426699523E+03  0.12948593758E+03  0.00000000000E+00 0.  1.
         11    1    1    2    0    0 -0.28238660636E+02 -0.11480818111E+02  0.34297923298E+01  0.30675635518E+02  0.00000000000E+00 0. -1.
</event>
<event>
 7    1  0.2490079E-009  0.1059812E+03  0.7561462E-02  0.1268198E+00
         -2   -1    0    0    0  501 -0.00000000000E+00  0.00000000000E+00  0.34504248419E+02  0.34504248419E+02  0.00000000000E+00 0.  1.
          2   -1    0    0  501    0  0.00000000000E+00 -0.00000000000E+00 -0.69563669017E+03  0.69563669017E+03  0.00000000000E+00 0. -1.
         25    2    1    2    0    0 -0.12925881042E+02 -0.10996448608E+02 -0.57443563782E+03  0.58814032639E+03  0.12507894007E+03 0.  0.
          5    1    3    3  502    0 -0.44306748106E+02 -0.55513491991E+02 -0.34925381310E+03  0.35642745978E+03  0.41800000000E+01 0. -1.
         -5    1    3    3    0  502  0.31380867064E+02  0.44517043382E+02 -0.22518182472E+03  0.23171286661E+03  0.41800000000E+01 0. -1.
        -11    1    1    2    0    0 -0.34544165066E+02  0.16710851529E+02  0.48904185098E+01  0.38684209856E+02  0.00000000000E+00 0.  1.
         11    1    1    2    0    0  0.47470046108E+02 -0.57144029203E+01 -0.91587222441E+02  0.10331640234E+03  0.00000000000E+00 0. -1.
</event>
<event>
 7    1  0.2490079E-009  0.1475909E+03  0.7561462E-02  0.1203465E+00
          2   -1    0    0  501    0  0.00000000000E+00  0.00000000000E+00  0.27038254493E+03  0.27038254493E+03  0.00000000000E+00 0.  1.
         -2   -1    0    0    0  501 -0.00000000000E+00 -0.00000000000E+00 -0.10471654964E+03  0.10471654964E+03  0.00000000000E+00 0. -1.
         25    2    1    2    0    0  0.18541134478E+02  0.11803431020E+03  0.89156403559E+02  0.19460049823E+03  0.12507844563E+03 0.  0.
          5    1    3    3  502    0  0.53673637928E+02  0.69649123023E+02  0.10485918501E+01  0.88036536115E+02  0.41800000000E+01 0. -1.
         -5    1    3    3    0  502 -0.35132503450E+02  0.48385187180E+02  0.88107811709E+02  0.10656396211E+03  0.41800000000E+01 0. -1.
        -11    1    1    2    0    0 -0.52045138064E+02 -0.54346044101E+02  0.78188713429E+02  0.10851573072E+03  0.00000000000E+00 0.  1.
         11    1    1    2    0    0  0.33504003585E+02 -0.63688266102E+02 -0.16791216975E+01  0.71982865635E+02  0.00000000000E+00 0. -1.
</event>
<event>
 7    1  0.2490079E-009  0.2827430E+03  0.7561462E-02  0.1094200E+00
         -1   -1    0    0    0  501 -0.00000000000E+00  0.00000000000E+00  0.40898752921E+03  0.40898752921E+03  0.00000000000E+00 0.  1.
          1   -1    0    0  501    0  0.00000000000E+00 -0.00000000000E+00 -0.22313118611E+03  0.22313118611E+03  0.00000000000E+00 0. -1.
         25    2    1    2    0    0 -0.33070443066E+02  0.27775815868E+03  0.61327804055E+02  0.31248912532E+03  0.12508039405E+03 0.  0.
          5    1    3    3  502    0 -0.21632414963E+02  0.26753070904E+03  0.21138052247E+02  0.26926739741E+03  0.41800000000E+01 0.  1.
         -5    1    3    3    0  502 -0.11438028103E+02  0.10227449640E+02  0.40189751808E+02  0.43221727908E+02  0.41800000000E+01 0.  1.
        -11    1    1    2    0    0  0.38275524141E+02 -0.24049004481E+03  0.70001531636E+02  0.25337855440E+03  0.00000000000E+00 0. -1.
         11    1    1    2    0    0 -0.52050810750E+01 -0.37268113875E+02  0.54527007413E+02  0.66251035601E+02  0.00000000000E+00 0.  1.
</event>
<event>
 7    1  0.2490079E-009  0.2291519E+03  0.7561462E-02  0.1127238E+00
         -1   -1    0    0    0  501 -0.00000000000E+00  0.00000000000E+00  0.11041524475E+04  0.11041524475E+04  0.00000000000E+00 0.  1.
          1   -1    0    0  501    0  0.00000000000E+00 -0.00000000000E+00 -0.52767110543E+02  0.52767110543E+02  0.00000000000E+00 0. -1.
         25    2    1    2    0    0  0.11679339456E+03 -0.16923423466E+03  0.38812563884E+03  0.45669353631E+03  0.12508617583E+03 0.  0.
          5    1    3    3  502    0  0.26310262378E+02  0.15525998737E+02  0.26655037585E+02  0.40758434364E+02  0.41800000000E+01 0.  1.
         -5    1    3    3    0  502  0.90483132187E+02 -0.18476023340E+03  0.36147060125E+03  0.41593510194E+03  0.41800000000E+01 0.  1.
        -11    1    1    2    0    0 -0.10532687167E+01  0.67781074267E+02  0.25696730575E+03  0.26575849869E+03  0.00000000000E+00 0.  1.
         11    1    1    2    0    0 -0.11574012585E+03  0.10145316040E+03  0.40629239241E+03  0.43446752309E+03  0.00000000000E+00 0. -1.
</event>
<event>
 7    1  0.2490079E-009  0.5517779E+02  0.7561462E-02  0.1419260E+00
         -2   -1    0    0    0  501 -0.00000000000E+00  0.00000000000E+00  0.93992548448E+02  0.93992548448E+02  0.00000000000E+00 0.  1.
          2   -1    0    0  501    0  0.00000000000E+00 -0.00000000000E+00 -0.14445585511E+03  0.14445585511E+03  0.00000000000E+00 0. -1.
         25    2    1    2    0    0 -0.37943435860E+02 -0.13213341288E+02 -0.13354282557E+02  0.13206073861E+03  0.12508958832E+03 0.  0.
          5    1    3    3  502    0  0.77948362964E+01 -0.10235300490E+02  0.51100128907E+02  0.52860348309E+02  0.41800000000E+01 0.  1.
         -5    1    3    3    0  502 -0.45738272157E+02 -0.29780407974E+01 -0.64454411465E+02  0.79200390303E+02  0.41800000000E+01 0.  1.
        -11    1    1    2    0    0  0.29166378122E+02 -0.59120405719E+01  0.26214685573E+02  0.39659041544E+02  0.00000000000E+00 0.  1.
         11    1    1    2    0    0  0.87770577385E+01  0.19125381860E+02 -0.63323709683E+02  0.66728623407E+02  0.00000000000E+00 0. -1.
</event>
<event>
 7    1  0.2490079E-009  0.9272404E+02  0.7561462E-02  0.1296386E+00
          2   -1    0    0  501    0  0.00000000000E+00  0.00000000000E+00  0.17000428715E+03  0.17000428715E+03  0.00000000000E+00 0. -1.
         -2   -1    0    0    0  501 -0.00000000000E+00 -0.00000000000E+00 -0.98456652637E+02  0.98456652637E+02  0.00000000000E+00 0.  1.
         25    2    1    2    0    0 -0.33295567282E+02  0.62182616710E+02  0.58060593233E+02  0.15490009257E+03  0.12509090123E+03 0.  0.
          5    1    3    3  502    0 -0.39247069492E+02  0.26240819355E+02  0.92916902137E+02  0.10430693250E+03  0.41800000000E+01 0. -1.
         -5    1    3    3    0  502  0.59515022100E+01  0.35941797355E+02 -0.34856308904E+02  0.50593160072E+02  0.41800000000E+01 0. -1.
        -11    1    1    2    0    0 -0.21578340865E+02 -0.50424390275E+01 -0.17760714354E+02  0.28398837303E+02  0.00000000000E+00 0.  1.
         11    1    1    2    0    0  0.54873908147E+02 -0.57140177682E+02  0.31247755635E+02  0.85162009917E+02  0.00000000000E+00 0. -1.
</event>
<event>
 7    1  0.2490079E-009  0.9064930E+02  0.7561462E-02  0.1301287E+00
          1   -1    0    0  501    0  0.00000000000E+00  0.00000000000E+00  0.43983140074E+02  0.43983140074E+02  0.00000000000E+00 0. -1.
         -1   -1    0    0    0  501 -0.00000000000E+00 -0.00000000000E+00 -0.39278211897E+03  0.39278211897E+03  0.00000000000E+00 0.  1.
         25    2    1    2    0    0 -0.57355190621E+02  0.96875332893E+01 -0.10660500730E+03  0.17433250241E+03  0.12507488806E+03 0.  0.
          5    1    3    3  502    0 -0.13438768083E+00  0.32493526691E+02  0.16448653804E+02  0.36658940913E+02  0.41800000000E+01 0.  1.
         -5    1    3    3    0  502 -0.57220802940E+02 -0.22805993402E+02 -0.12305366110E+03  0.13767356149E+03  0.41800000000E+01 0.  1.
        -11    1    1    2    0    0  0.56675297739E+01 -0.30540247447E+02 -0.16087740383E+03  0.16384860900E+03  0.00000000000E+00 0.  1.
         11    1    1    2    0    0  0.51687660847E+02  0.20852714158E+02 -0.81316567767E+02  0.98584147635E+02  0.00000000000E+00 0. -1.
</event>
<event>
 7    1  0.2490079E-009  0.1093750E+03  0.7561462E-02  0.1261732E+00
          1   -1    0    0  501    0  0.00000000000E+00  0.00000000000E+00  0.41571714830E+03  0.41571714830E+03  0.00000000000E+00 0. -1.
         -1   -1    0    0    0  501 -0.00000000000E+00 -0.00000000000E+00 -0.35687890445E+02  0.35687890445E+02  0.00000000000E+00 0.  1.
         25    2    1    2    0    0  0.19279501044E+02 -0.29854955127E+02  0.12682604403E+03  0.18164458876E+03  0.12508754405E+03 0.  0.
          5    1    3    3  502    0 -0.49928026852E+02  0.65427056514E+01  0.62034436783E+02  0.80008490859E+02  0.41800000000E+01 0. -1.
         -5    1    3    3    0  502  0.69207527896E+02 -0.36397660778E+02  0.64791607247E+02  0.10163609790E+03  0.41800000000E+01 0. -1.
        -11    1    1    2    0    0  0.14953563134E+02 -0.22706820255E+02  0.11197888044E+03  0.11523228021E+03  0.00000000000E+00 0.  1.
         11    1    1    2    0    0 -0.34233064178E+02  0.52561775382E+02  0.14122433338E+03  0.15452816977E+03  0.00000000000E+00 0. -1.
</event>
<event>
 7    1  0.2490079E-009  0.1398691E+03  0.7561462E-02  0.1213505E+00
          3   -1    0    0  501    0  0.00000000000E+00  0.00000000000E+00  0.59284889503E+02  0.59284889503E+02  0.00000000000E+00 0. -1.
         -3   -1    0    0    0  501 -0.00000000000E+00 -0.00000000000E+00 -0.36097735559E+03  0.36097735559E+03  0.00000000000E+00 0.  1.
         25    2    1    2    0    0 -0.53913588664E+02  0.70016781073E+02 -0.10607818361E+03  0.18630686298E+03  0.12509453018E+03 0.  0.
          5    1    3    3  502    0 -0.92499125760E+02  0.63529475601E+02 -0.89548813362E+02  0.14362640743E+03  0.41800000000E+01 0. -1.
         -5    1    3    3    0  502  0.38585537097E+02  0.64873054722E+01 -0.16529370249E+02  0.42680455553E+02  0.41800000000E+01 0. -1.
        -11    1    1    2    0    0  0.62177094615E+02 -0.48044842912E+01 -0.10239013203E+03  0.11988666857E+03  0.00000000000E+00 0. -1.
         11    1    1    2    0    0 -0.82635059518E+01 -0.65212296782E+02 -0.93224150445E+02  0.11406871354E+03  0.00000000000E+00 0.  1.
</event>
<event>
 7    1  0.2490079E-009  0.1052407E+03  0.7561462E-02  0.1269646E+00
          4   -1    0    0  501    0  0.00000000000E+00  0.00000000000E+00  0.25136856658E+02  0.25136856658E+02  0.00000000000E+00 0. -1.
         -4   -1    0    0    0  501 -0.00000000000E+00 -0.00000000000E+00 -0.63110541090E+03  0.63110541090E+03  0.00000000000E+00 0.  1.
         25    2    1    2    0    0 -0.17121235163E+01 -0.63974235685E+02 -0.34247877389E+03  0.37018096699E+03  0.12508638436E+03 0.  0.
          5    1    3    3  502    0 -0.48822435447E+02 -0.50028186288E+02 -0.28932047411E+03  0.29767475332E+03  0.41800000000E+01 0. -1.
         -5    1    3    3    0  502  0.47110311931E+02 -0.13946049398E+02 -0.53158299785E+02  0.72506213665E+02  0.41800000000E+01 0. -1.
        -11    1    1    2    0    0  0.11550975723E+02  0.75277855061E+02 -0.25965360169E+03  0.27059226406E+03  0.00000000000E+00 0.  1.
         11    1    1    2    0    0 -0.98388522066E+01 -0.11303619376E+02 -0.38361786626E+01  0.15469036508E+02  0.00000000000E+00 0. -1.
</event>
<event>
 7    1  0.2490079E-009  0.1144468E+03  0.7561462E-02  0.1252550E+00
         -1   -1    0    0    0  501 -0.00000000000E+00  0.00000000000E+00  0.15972423139E+02  0.15972423139E+02  0.00000000000E+00 0.  1.
          1   -1    0    0  501    0  0.00000000000E+00 -0.00000000000E+00 -0.11141714773E+04  0.11141714773E+04  0.00000000000E+00 0. -1.
         25    2    1    2    0    0 -0.24200534062E+02  0.61405144528E+02 -0.75817507713E+03  0.77125419035E+03  0.12508925180E+03 0.  0.
          5    1    3    3  502    0  0.35341711137E+02  0.84995244397E+00 -0.77448676904E+02  0.85238072007E+02  0.41800000000E+01 0. -1.
         -5    1    3    3    0  502 -0.59542245200E+02  0.60555192084E+02 -0.68072640023E+03  0.68601611834E+03  0.41800000000E+01 0. -1.
        -11    1    1    2    0    0  0.55399096447E+02 -0.26370007122E+02 -0.24948357037E+03  0.25691728055E+03  0.00000000000E+00 0. -1.
         11    1    1    2    0    0 -0.31198562385E+02 -0.35035137406E+02 -0.90540406642E+02  0.10197242952E+03  0.00000000000E+00 0.  1.
</event>
<event>
 7    1  0.2490079E-009  0.3022556E+03  0.7561462E-02  0.1084118E+00
         -2   -1    0    0    0  501 -0.00000000000E+00  0.00000000000E+00  0.21927739365E+03  0.21927739365E+03  0.00000000000E+00 0. -1.
          2   -1    0    0  501    0  0.00000000000E+00 -0.00000000000E+00 -0.51176544294E+03  0.51176544294E+03  0.00000000000E+00 0.  1.
         25    2    1    2    0    0  0.86618108114E+02  0.27631947310E+03 -0.28964726271E+03  0.42825023316E+03  0.12509027756E+03 0.  0.
          5    1    3    3  502    0  0.11815098179E+03  0.23135959721E+03 -0.22904398013E+03  0.34636041192E+03  0.41800000000E+01 0. -1.
         -5    1    3    3    0  502 -0.31532873672E+02  0.44959875895E+02 -0.60603282586E+02  0.81889821240E+02  0.41800000000E+01 0. -1.
        -11    1    1    2    0    0 -0.41099900347E+02 -0.13947240088E+03 -0.45572323866E+02  0.15237647167E+03  0.00000000000E+00 0.  1.
         11    1    1    2    0    0 -0.45518207767E+02 -0.13684707222E+03  0.42731537285E+02  0.15041613175E+03  0.00000000000E+00 0. -1.
</event>
<event>
 7    1  0.2490079E-009  0.9531940E+02  0.7561462E-02  0.1290458E+00
         -2   -1    0    0    0  501 -0.00000000000E+00  0.00000000000E+00  0.44686366282E+02  0.44686366282E+02  0.00000000000E+00 0.  1.
          2   -1    0    0  501    0  0.00000000000E+00 -0.00000000000E+00 -0.60731130383E+03  0.60731130383E+03  0.00000000000E+00 0. -1.
         25    2    1    2    0    0 -0.54049806698E+01 -0.55910181940E+02 -0.51964650885E+03  0.53743421338E+03  0.12509147572E+03 0.  0.
          5    1    3    3  502    0 -0.55803170240E+02 -0.61012287746E+02 -0.37755940822E+03  0.38652952307E+03  0.41800000000E+01 0.  1.
         -5    1    3    3    0  502  0.50398189570E+02  0.51021058058E+01 -0.14208710062E+03  0.15090469032E+03  0.41800000000E+01 0.  1.
        -11    1    1    2    0    0 -0.24511338283E+01  0.25354122592E+02  0.27415574508E+02  0.37422631054E+02  0.00000000000E+00 0.  1.
         11    1    1    2    0    0  0.78561144981E+01  0.30556059349E+02 -0.70394003213E+02  0.77140825678E+02  0.00000000000E+00 0. -1.
</event>
<event>
 7    1  0.2490079E-009  0.1328746E+03  0.7561462E-02  0.1223252E+00
         -1   -1    0    0    0  501 -0.00000000000E+00  0.00000000000E+00  0.13260422449E+03  0.13260422449E+03  0.00000000000E+00 0.  1.
          1   -1    0    0  501    0  0.00000000000E+00 -0.00000000000E+00 -0.14707770201E+03  0.14707770201E+03  0.00000000000E+00 0. -1.
         25    2    1    2    0    0 -0.10074688970E+03  0.93088490390E+01 -0.44519884789E+01  0.16094689454E+03  0.12508993647E+03 0.  0.
          5    1    3    3  502    0  0.27021264352E+02  0.68780975538E+01  0.14476414884E+02  0.31693783949E+02  0.41800000000E+01 0. -1.
         -5    1    3    3    0  502 -0.12776815405E+03  0.24307514851E+01 -0.18928403362E+02  0.12925311059E+03  0.41800000000E+01 0. -1.
        -11    1    1    2    0    0  0.50015427140E+02  0.16641934121E+02  0.17383691625E+02  0.55503960740E+02  0.00000000000E+00 0.  1.
         11    1    1    2    0    0  0.50731462564E+02 -0.25950783160E+02 -0.27405180668E+02  0.63231071222E+02  0.00000000000E+00 0. -1.
</event>
<event>
 7    1  0.2490079E-009  0.1132906E+03  0.7561462E-02  0.1254595E+00
          2   -1    0    0  501    0  0.00000000000E+00  0.00000000000E+00  0.51672231373E+02  0.51672231373E+02  0.00000000000E+00 0. -1.
         -2   -1    0    0    0  501 -0.00000000000E+00 -0.00000000000E+00 -0.34505118683E+03  0.34505118683E+03  0.00000000000E+00 0.  1.
         25    2    1    2    0    0  0.24998520561E+02 -0.67404606953E+02 -0.20635549030E+03  0.25178619234E+03  0.12508153825E+03 0.  0.
          5    1    3    3  502    0  0.20486826854E+02 -0.88425587823E+02 -0.21069969977E+03  0.22945725209E+03  0.41800000000E+01 0.  1.
         -5    1    3    3    0  502  0.45116937068E+01  0.21020980870E+02  0.43442094697E+01  0.22328940252E+02  0.41800000000E+01 0.  1.
        -11    1    1    2    0    0 -0.50482311606E+02  0.10638721480E+02 -0.53231332295E+02  0.74129757302E+02  0.00000000000E+00 0. -1.
         11    1    1    2    0    0  0.25483791045E+02  0.56765885473E+02 -0.33792132861E+02  0.70807468553E+02  0.00000000000E+00 0.  1.
</event>
<event>
 7    1  0.2490079E-009  0.9659097E+02  0.7561462E-02  0.1287632E+00
          3   -1    0    0  501    0  0.00000000000E+00  0.00000000000E+00  0.27665401988E+03  0.27665401988E+03  0.00000000000E+00 0. -1.
         -3   -1    0    0    0  501 -0.00000000000E+00 -0.00000000000E+00 -0.61262188312E+02  0.61262188312E+02  0.00000000000E+00 0.  1.
         25    2    1    2    0    0  0.62010961115E+02  0.24543209137E+01  0.16839800446E+03  0.21876102098E+03  0.12508842235E+03 0.  0.
          5    1    3    3  502    0  0.63713267305E+02  0.51071801388E+02  0.14041137841E+03  0.16248242033E+03  0.41800000000E+01 0.  1.
         -5    1    3    3    0  502 -0.17023061908E+01 -0.48617480475E+02  0.27986626052E+02  0.56278600657E+02  0.41800000000E+01 0.  1.
        -11    1    1    2    0    0 -0.16263603999E+02 -0.42504735264E+01 -0.27198601312E+02  0.31973977756E+02  0.00000000000E+00 0.  1.
         11    1    1    2    0    0 -0.45747357115E+02  0.17961526128E+01  0.74192428419E+02  0.87181209454E+02  0.00000000000E+00 0. -1.
</event>
<event>
 7    1  0.2490079E-009  0.1021430E+03  0.7561462E-02  0.1275853E+00
         -1   -1    0    0    0  501 -0.00000000000E+00  0.00000000000E+00  0.22019870966E+02  0.22019870966E+02  0.00000000000E+00 0.  1.
          1   -1    0    0  501    0  0.00000000000E+00 -0.00000000000E+00 -0.54821071394E+03  0.54821071394E+03  0.00000000000E+00 0. -1.
         25    2    1    2    0    0  0.12196422790E+02  0.55868121235E+00 -0.29618238862E+03  0.32174730890E+03  0.12509299980E+03 0.  0.
          5    1    3    3  502    0 -0.28739739804E+02  0.42793030802E+02 -0.64472497127E+02  0.82652231761E+02  0.41800000000E+01 0.  1.
         -5    1    3    3    0  502  0.40936162594E+02 -0.42234349590E+02 -0.23170989150E+03  0.23909507714E+03  0.41800000000E+01 0.  1.
        -11    1    1    2    0    0 -0.17746845078E+02 -0.45230372970E+02 -0.13106108363E+03  0.13977748313E+03  0.00000000000E+00 0.  1.
         11    1    1    2    0    0  0.55504222879E+01  0.44671691758E+02 -0.98947370723E+02  0.10870579288E+03  0.00000000000E+00 0. -1.
</event>
<event>
 7    1  0.2490079E-009  0.7824328E+02  0.7561462E-02  0.1334112E+00
          1   -1    0    0  501    0  0.00000000000E+00  0.00000000000E+00  0.21063199513E+03  0.21063199513E+03  0.00000000000E+00 0. -1.
         -1   -1    0    0    0  501 -0.00000000000E+00 -0.00000000000E+00 -0.68272480433E+02  0.68272480433E+02  0.00000000000E+00 0.  1.
         25    2    1    2    0    0 -0.46387267776E+02 -0.31860107568E+01  0.10443191315E+03  0.16945897079E+03  0.12509352109E+03 0.  0.
          5    1    3    3  502    0 -0.56416226627E+02 -0.60817755330E+01 -0.71210356308E+01  0.57340737429E+02  0.41800000000E+01 0. -1.
         -5    1    3    3    0  502  0.10028958850E+02  0.28957647763E+01  0.11155294878E+03  0.11211823336E+03  0.41800000000E+01 0. -1.
        -11    1    1    2    0    0 -0.16636185522E+02  0.17042880270E+02  0.38082404494E+02  0.44916499960E+02  0.00000000000E+00 0.  1.
         11    1    1    2    0    0  0.63023453298E+02 -0.13856869513E+02 -0.15480295058E+00  0.64529004814E+02  0.00000000000E+00 0. -1.
</event>
<event>
 7    1  0.2771699E-009  0.4349567E+03  0.7561462E-02  0.1032306E+00
         -1   -1    0    0    0  501 -0.00000000000E+00  0.00000000000E+00  0.13628713816E+03  0.13628713816E+03  0.00000000000E+00 0.  1.
          1   -1    0    0  501    0  0.00000000000E+00 -0.00000000000E+00 -0.14177044321E+04  0.14177044321E+04  0.00000000000E+00 0. -1.
         25    2    1    2    0    0  0.23991146030E+03 -0.35110885534E+03 -0.61203641916E+03  0.75569164056E+03  0.12508533149E+03 0.  0.
          5    1    3    3  502    0  0.17443229082E+03 -0.16104444832E+03 -0.27589192175E+03  0.36399967487E+03  0.41800000000E+01 0. -1.
         -5    1    3    3    0  502  0.65479169482E+02 -0.19006440702E+03 -0.33614449740E+03  0.39169196569E+03  0.41800000000E+01 0. -1.
        -11    1    1    2    0    0 -0.19852467812E+03  0.23222262777E+03 -0.51834690347E+03  0.60168339599E+03  0.00000000000E+00 0. -1.
         11    1    1    2    0    0 -0.41386782183E+02  0.11888622757E+03 -0.15103397134E+03  0.19661653375E+03  0.00000000000E+00 0.  1.
</event>
<event>
 7    1  0.2490079E-009  0.8906318E+02  0.7561462E-02  0.1305136E+00
          2   -1    0    0  501    0  0.00000000000E+00  0.00000000000E+00  0.14722798997E+03  0.14722798997E+03  0.00000000000E+00 0. -1.
         -2   -1    0    0    0  501 -0.00000000000E+00 -0.00000000000E+00 -0.15589851266E+03  0.15589851266E+03  0.00000000000E+00 0.  1.
         25    2    1    2    0    0 -0.32078490292E+02  0.45986948698E+02 -0.27227772304E+02  0.13976473191E+03  0.12509596201E+03 0.  0.
          5    1    3    3  502    0 -0.58525609120E+01  0.29886292201E+02  0.48779621166E+02  0.57657321927E+02  0.41800000000E+01 0.  1.
         -5    1    3    3    0  502 -0.26225929380E+02  0.16100656497E+02 -0.76007393470E+02  0.82107409980E+02  0.41800000000E+01 0.  1.
        -11    1    1    2    0    0  0.51756188203E+02 -0.68870298988E+02  0.65037273042E+02  0.10794289224E+03  0.00000000000E+00 0. -1.
         11    1    1    2    0    0 -0.19677697912E+02  0.22883350289E+02 -0.46480023420E+02  0.55418878486E+02  0.00000000000E+00 0.  1.
</event>
<event>
 7    1  0.2490079E-009  0.1158713E+03  0.7561462E-02  0.1250068E+00
          2   -1    0    0  501    0  0.00000000000E+00  0.00000000000E+00  0.52791232233E+03  0.52791232233E+03  0.00000000000E+00 0. -1.
         -2   -1    0    0    0  501 -0.00000000000E+00 -0.00000000000E+00 -0.31402341896E+02  0.31402341896E+02  0.00000000000E+00 0.  1.
         25    2    1    2    0    0 -0.42170976257E+02  0.19679319616E+02  0.39109106921E+03  0.41323672294E+03  0.12508676155E+03 0.  0.
          5    1    3    3  502    0 -0.27603712671E+02  0.72785954465E+02  0.21560606711E+03  0.22926667594E+03  0.41800000000E+01 0. -1.
         -5    1    3    3    0  502 -0.14567263586E+02 -0.53106634849E+02  0.17548500210E+03  0.18397004700E+03  0.41800000000E+01 0. -1.
        -11    1    1    2    0    0 -0.19711414606E+02  0.17506789092E+02  0.14860667198E+02  0.30263293933E+02  0.00000000000E+00 0.  1.
         11    1    1    2    0    0  0.61882390863E+02 -0.37186108708E+02  0.90558244023E+02  0.11581464735E+03  0.00000000000E+00 0. -1.
</event>
<event>
 7    1  0.2490079E-009  0.3555709E+02  0.7561462E-02  0.1543708E+00
         -1   -1    0    0    0  501 -0.00000000000E+00  0.00000000000E+00  0.16552607405E+03  0.16552607405E+03  0.00000000000E+00 0.  1.
          1   -1    0    0  501    0  0.00000000000E+00 -0.00000000000E+00 -0.92172542859E+02  0.92172542859E+02  0.00000000000E+00 0. -1.
         25    2    1    2    0    0 -0.20087025791E+02 -0.10078686169E+02 -0.15919613035E+02  0.12806611315E+03  0.12506968753E+03 0.  0.
          5    1    3    3  502    0 -0.26167654964E+02 -0.59067053199E+00  0.52386572521E+02  0.58710479801E+02  0.41800000000E+01 0. -1.
         -5    1    3    3    0  502  0.60806291731E+01 -0.94880156373E+01 -0.68306185556E+02  0.69355633348E+02  0.41800000000E+01 0. -1.
        -11    1    1    2    0    0  0.20003139613E+02 -0.23670019389E+01  0.10649551614E+03  0.10838368535E+03  0.00000000000E+00 0.  1.
         11    1    1    2    0    0  0.83886177971E-01  0.12445688108E+02 -0.17222371914E+02  0.21248818408E+02  0.00000000000E+00 0. -1.
</event>
<event>
 7    1  0.2490079E-009  0.1355841E+03  0.7561462E-02  0.1219398E+00
         -2   -1    0    0    0  501 -0.00000000000E+00  0.00000000000E+00  0.42005086493E+03  0.42005086493E+03  0.00000000000E+00 0.  1.
          2   -1    0    0  501    0  0.00000000000E+00 -0.00000000000E+00 -0.55046264859E+02  0.55046264859E+02  0.00000000000E+00 0. -1.
         25    2    1    2    0    0 -0.11232228710E+02 -0.97932354429E+02  0.13325326749E+03  0.20765795020E+03  0.12509389266E+03 0.  0.
          5    1    3    3  502    0  0.52985045085E+02 -0.64987497042E+02  0.91465717113E+02  0.12415409611E+03  0.41800000000E+01 0.  1.
         -5    1    3    3    0  502 -0.64217273795E+02 -0.32944857387E+02  0.41787550376E+02  0.83503854092E+02  0.41800000000E+01 0.  1.
        -11    1    1    2    0    0  0.22134863334E+02  0.68281441951E+01  0.12295240266E+03  0.12511542290E+03  0.00000000000E+00 0.  1.
         11    1    1    2    0    0 -0.10902634624E+02  0.91104210234E+02  0.10879892992E+03  0.14232375668E+03  0.00000000000E+00 0. -1.
</event>
<event>
 7    1  0.2490079E-009  0.1181028E+03  0.7561462E-02  0.1246260E+00
          1   -1    0    0  501    0  0.00000000000E+00  0.00000000000E+00  0.29342092711E+03  0.29342092711E+03  0.00000000000E+00 0. -1.
         -1   -1    0    0    0  501 -0.00000000000E+00 -0.00000000000E+00 -0.67106401245E+02  0.67106401245E+02  0.00000000000E+00 0.  1.
         25    2    1    2    0    0 -0.62746187782E+02 -0.56202159509E+02  0.16268331385E+03  0.22183222955E+03  0.12509160902E+03 0.  0.
          5    1    3    3  502    0  0.15428330749E+02 -0.48158448594E+02  0.12432955478E+03  0.13428544282E+03  0.41800000000E+01 0.  1.
         -5    1    3    3    0  502 -0.78174518531E+02 -0.80437109155E+01  0.38353759068E+02  0.87546786735E+02  0.41800000000E+01 0.  1.
        -11    1    1    2    0    0 -0.13967179143E+02  0.69343754178E+01  0.42269842046E+02  0.45054491476E+02  0.00000000000E+00 0. -1.
         11    1    1    2    0    0  0.76713366925E+02  0.49267784091E+02  0.21361369976E+02  0.93640607332E+02  0.00000000000E+00 0.  1.
</event>
<event>
 7    1  0.2490079E-009  0.1046232E+03  0.7561462E-02  0.1270864E+00
          3   -1    0    0  501    0  0.00000000000E+00  0.00000000000E+00  0.11846062745E+03  0.11846062745E+03  0.00000000000E+00 0.  1.
         -3   -1    0    0    0  501 -0.00000000000E+00 -0.00000000000E+00 -0.21897291337E+03  0.21897291337E+03  0.00000000000E+00 0. -1.
         25    2    1    2    0    0  0.86800103420E+02  0.36349006201E+01  0.31284876792E+02  0.15548027768E+03  0.12509157756E+03 0.  0.
          5    1    3    3  502    0  0.38053785531E+02  0.65348029529E+01 -0.48322997846E+02  0.61994989827E+02  0.41800000000E+01 0. -1.
         -5    1    3    3    0  502  0.48746317889E+02 -0.28999023327E+01  0.79607874638E+02  0.93485287857E+02  0.41800000000E+01 0. -1.
        -11    1    1    2    0    0 -0.85598240760E+02  0.27755337849E+02 -0.75406944917E+02  0.11740368368E+03  0.00000000000E+00 0.  1.
         11    1    1    2    0    0 -0.12018626607E+01 -0.31390238469E+02 -0.56390217794E+02  0.64549579455E+02  0.00000000000E+00 0. -1.
</event>
<event>
 7    1  0.2490079E-009  0.1359413E+03  0.7561462E-02  0.1218897E+00
          3   -1    0    0  501    0  0.00000000000E+00  0.00000000000E+00  0.16505033844E+04  0.16505033844E+04  0.00000000000E+00 0. -1.
         -3   -1    0    0    0  501 -0.00000000000E+00 -0.00000000000E+00 -0.14719020664E+02  0.14719020664E+02  0.00000000000E+00 0.  1.
         25    2    1    2    0    0 -0.52780258559E+02 -0.82804806650E+02  0.11899299864E+04  0.12005098416E+04  0.12509242789E+03 0.  0.
          5    1    3    3  502    0 -0.70410307648E+02 -0.98458134271E+02  0.73182743035E+03  0.74178195977E+03  0.41800000000E+01 0. -1.
         -5    1    3    3    0  502  0.17630049088E+02  0.15653327622E+02  0.45810255608E+03  0.45872788185E+03  0.41800000000E+01 0. -1.
        -11    1    1    2    0    0  0.53108866029E+02  0.10030795086E+02  0.24997273283E+03  0.25574897000E+03  0.00000000000E+00 0. -1.
         11    1    1    2    0    0 -0.32860747021E+00  0.72774011564E+02  0.19588164451E+03  0.20896359347E+03  0.00000000000E+00 0.  1.
</event>
<event>
 7    1  0.2490079E-009  0.7182712E+02  0.7561462E-02  0.1353988E+00
          1   -1    0    0  501    0  0.00000000000E+00  0.00000000000E+00  0.33751591907E+03  0.33751591907E+03  0.00000000000E+00 0. -1.
         -1   -1    0    0    0  501 -0.00000000000E+00 -0.00000000000E+00 -0.44199037499E+02  0.44199037499E+02  0.00000000000E+00 0.  1.
         25    2    1    2    0    0 -0.22080287162E+02  0.51027982242E+02  0.18664056571E+03  0.23146431084E+03  0.12509849068E+03 0.  0.
          5    1    3    3  502    0 -0.18905974281E+02  0.23612420660E+02  0.19871769863E+03  0.20105018881E+03  0.41800000000E+01 0.  1.
         -5    1    3    3    0  502 -0.31743128809E+01  0.27415561582E+02 -0.12077132920E+02  0.30414122027E+02  0.41800000000E+01 0.  1.
        -11    1    1    2    0    0 -0.13649142312E+02  0.82810613908E+01 -0.67723294518E+01  0.17341842746E+02  0.00000000000E+00 0.  1.
         11    1    1    2    0    0  0.35729429474E+02 -0.59309043633E+02  0.11344864532E+03  0.13290880299E+03  0.00000000000E+00 0. -1.
</event>
<event>
 7    1  0.2490079E-009  0.1123414E+03  0.7561462E-02  0.1256294E+00
         -1   -1    0    0    0  501 -0.00000000000E+00  0.00000000000E+00  0.45314465178E+03  0.45314465178E+03  0.00000000000E+00 0.  1.
          1   -1    0    0  501    0  0.00000000000E+00 -0.00000000000E+00 -0.41878954604E+02  0.41878954604E+02  0.00000000000E+00 0. -1.
         25    2    1    2    0    0  0.67659974308E+02  0.53038043401E+02  0.25756845189E+03  0.29896471431E+03  0.12508991495E+03 0.  0.
          5    1    3    3  502    0  0.77948833369E+02  0.44250023180E+02  0.26718259294E+03  0.28184764598E+03  0.41800000000E+01 0. -1.
         -5    1    3    3    0  502 -0.10288859061E+02  0.87880202218E+01 -0.96141410464E+01  0.17117068331E+02  0.41800000000E+01 0. -1.
        -11    1    1    2    0    0 -0.73254510342E+01  0.22760741882E+02  0.21443532235E+02  0.32117575852E+02  0.00000000000E+00 0.  1.
         11    1    1    2    0    0 -0.60334523274E+02 -0.75798785283E+02  0.13225371304E+03  0.16394131622E+03  0.00000000000E+00 0. -1.
</event>
<event>
 7    1  0.2490079E-009  0.1037155E+03  0.7561462E-02  0.1272671E+00
         -3   -1    0    0    0  501 -0.00000000000E+00  0.00000000000E+00  0.93138414936E+03  0.93138414936E+03  0.00000000000E+00 0.  1.
          3   -1    0    0  501    0  0.00000000000E+00 -0.00000000000E+00 -0.13787273755E+02  0.13787273755E+02  0.00000000000E+00 0. -1.
         25    2    1    2    0    0  0.16129154030E+02 -0.13379363891E+02  0.64481098279E+03  0.65716804832E+03  0.12509789453E+03 0.  0.
          5    1    3    3  502    0  0.55353791592E+02  0.31536007982E+02  0.40599513538E+03  0.41098428729E+03  0.41800000000E+01 0. -1.
         -5    1    3    3    0  502 -0.39224637562E+02 -0.44915371873E+02  0.23881584741E+03  0.24618376104E+03  0.41800000000E+01 0. -1.
        -11    1    1    2    0    0 -0.38553835563E+02  0.35428543410E+02  0.22340195300E+03  0.22945590542E+03  0.00000000000E+00 0.  1.
         11    1    1    2    0    0  0.22424681533E+02 -0.22049179519E+02  0.49383939804E+02  0.58547469372E+02  0.00000000000E+00 0. -1.
</event>
<event>
 7    1  0.2490079E-009  0.1060899E+03  0.7561462E-02  0.1267987E+00
         -2   -1    0    0    0  501 -0.00000000000E+00  0.00000000000E+00  0.60833464538E+03  0.60833464538E+03  0.00000000000E+00 0.  1.
          2   -1    0    0  501    0  0.00000000000E+00 -0.00000000000E+00 -0.23854950290E+02  0.23854950290E+02  0.00000000000E+00 0. -1.
         25    2    1    2    0    0  0.16189042539E+02  0.85435353884E+01  0.20069747653E+03  0.23719659508E+03  0.12509064928E+03 0.  0.
          5    1    3    3  502    0  0.51349515899E+02  0.45464325198E+02  0.15089232395E+03  0.16580031205E+03  0.41800000000E+01 0. -1.
         -5    1    3    3    0  502 -0.35160473360E+02 -0.36920789809E+02  0.49805152575E+02  0.71396283027E+02  0.41800000000E+01 0. -1.
        -11    1    1    2    0    0 -0.95625831892E+01  0.41115959591E+02  0.14544295932E+03  0.15144510407E+03  0.00000000000E+00 0. -1.
         11    1    1    2    0    0 -0.66264593495E+01 -0.49659494979E+02  0.23833925924E+03  0.24354789652E+03  0.00000000000E+00 0.  1.
</event>
<event>
 7    1  0.2490079E-009  0.7842967E+02  0.7561462E-02  0.1333568E+00
         -2   -1    0    0    0  501 -0.00000000000E+00  0.00000000000E+00  0.58504510919E+02  0.58504510919E+02  0.00000000000E+00 0.  1.
          2   -1    0    0  501    0  0.00000000000E+00 -0.00000000000E+00 -0.28622797795E+03  0.28622797795E+03  0.00000000000E+00 0. -1.
         25    2    1    2    0    0 -0.34543092669E+02  0.19661574351E+02 -0.20343218973E+03  0.24209893133E+03  0.12508970372E+03 0.  0.
          5    1    3    3  502    0 -0.44965673221E+02 -0.10499916057E+02 -0.20470475021E+03  0.20988965473E+03  0.41800000000E+01 0. -1.
         -5    1    3    3    0  502  0.10422580552E+02  0.30161490409E+02  0.12725604750E+01  0.32209276602E+02  0.41800000000E+01 0. -1.
        -11    1    1    2    0    0 -0.17564758898E+02  0.80174788322E+01  0.20794807590E+02  0.28376482246E+02  0.00000000000E+00 0.  1.
         11    1    1    2    0    0  0.52107851567E+02 -0.27679053183E+02 -0.45086084888E+02  0.74257075290E+02  0.00000000000E+00 0. -1.
</event>
<event>
 7    1  0.2490079E-009  0.1258026E+03  0.7561462E-02  0.1233820E+00
          2   -1    0    0  501    0  0.00000000000E+00  0.00000000000E+00  0.27921072903E+03  0.27921072903E+03  0.00000000000E+00 0.  1.
         -2   -1    0    0    0  501 -0.00000000000E+00 -0.00000000000E+00 -0.64335192815E+02  0.64335192815E+02  0.00000000000E+00 0. -1.
         25    2    1    2    0    0  0.78361165081E+02 -0.53026688359E+01  0.11300360542E+03  0.18597418464E+03  0.12509193429E+03 0.  0.
          5    1    3    3  502    0 -0.20172931152E+02 -0.27149534034E+02  0.66596688647E+02  0.74810665605E+02  0.41800000000E+01 0.  1.
         -5    1    3    3    0  502  0.98534096233E+02  0.21846865198E+02  0.46406916775E+02  0.11116351903E+03  0.41800000000E+01 0.  1.
        -11    1    1    2    0    0 -0.38905328324E+02  0.45716541258E+02  0.33001973105E+02  0.68503700232E+02  0.00000000000E+00 0. -1.
         11    1    1    2    0    0 -0.39455836757E+02 -0.40413872422E+02  0.68869957687E+02  0.89068036973E+02  0.00000000000E+00 0.  1.
</event>
<event>
 7    1  0.2490079E-009  0.1111244E+03  0.7561462E-02  0.1258502E+00
         -2   -1    0    0    0  501 -0.00000000000E+00  0.00000000000E+00  0.14630186584E+02  0.14630186584E+02  0.00000000000E+00 0. -1.
          2   -1    0    0  501    0  0.00000000000E+00 -0.00000000000E+00 -0.10426216061E+04  0.10426216061E+04  0.00000000000E+00 0.  1.
         25    2    1    2    0    0 -0.33358569926E+02  0.36305089146E+02 -0.66797398434E+03  0.68137186026E+03  0.12509002566E+03 0.  0.
          5    1    3    3  502    0  0.26134250618E+02 -0.24443953841E+02 -0.86557380940E+02  0.93755845311E+02  0.41800000000E+01 0.  1.
         -5    1    3    3    0  502 -0.59492820544E+02  0.60749042987E+02 -0.58141660340E+03  0.58761601495E+03  0.41800000000E+01 0.  1.
        -11    1    1    2    0    0  0.63753131605E+02 -0.27620935304E+02 -0.30116211183E+03  0.30907279961E+03  0.00000000000E+00 0.  1.
         11    1    1    2    0    0 -0.30394561680E+02 -0.86841538422E+01 -0.58855323311E+02  0.66807132775E+02  0.00000000000E+00 0. -1.
</event>
<event>
 7    1  0.2490079E-009  0.1066041E+03  0.7561462E-02  0.1266991E+00
         -1   -1    0    0    0  501 -0.00000000000E+00  0.00000000000E+00  0.26358578750E+03  0.26358578750E+03  0.00000000000E+00 0.  1.
          1   -1    0    0  501    0  0.00000000000E+00 -0.00000000000E+00 -0.46677981910E+02  0.46677981910E+02  0.00000000000E+00 0. -1.
         25    2    1    2    0    0 -0.24080229994E+02 -0.41012002170E+00  0.13798621990E+03  0.18779925404E+03  0.12509331421E+03 0.  0.
          5    1    3    3  502    0  0.41691048440E+02  0.29079340830E+02  0.34344858385E+02  0.61488155612E+02  0.41800000000E+01 0. -1.
         -5    1    3    3    0  502 -0.65771278435E+02 -0.29489460851E+02  0.10364136152E+03  0.12631109843E+03  0.41800000000E+01 0. -1.
        -11    1    1    2    0    0  0.58137823084E+01 -0.42747535358E+02  0.54839875356E+02  0.69775094217E+02  0.00000000000E+00 0. -1.
         11    1    1    2    0    0  0.18266447686E+02  0.43157655380E+02  0.24081710327E+02  0.52689421151E+02  0.00000000000E+00 0.  1.
</event>
<event>
 7    1  0.2490079E-009  0.1148281E+03  0.7561462E-02  0.1251881E+00
          3   -1    0    0  501    0  0.00000000000E+00  0.00000000000E+00  0.36139290128E+02  0.36139290128E+02  0.00000000000E+00 0. -1.
         -3   -1    0    0    0  501 -0.00000000000E+00 -0.00000000000E+00 -0.40437940517E+03  0.40437940517E+03  0.00000000000E+00 0.  1.
         25    2    1    2    0    0  0.18167636870E+02 -0.56951846316E+01 -0.14179784677E+03  0.19003653546E+03  0.12507900425E+03 0.  0.
          5    1    3    3  502    0  0.57967248229E+02  0.35479586324E+02 -0.64893114852E+02  0.94061637601E+02  0.41800000000E+01 0.  1.
         -5    1    3    3    0  502 -0.39799611359E+02 -0.41174770955E+02 -0.76904731918E+02  0.95974897859E+02  0.41800000000E+01 0.  1.
        -11    1    1    2    0    0  0.14998685412E+01  0.52945252185E+02 -0.85968096285E+02  0.10097506085E+03  0.00000000000E+00 0.  1.
         11    1    1    2    0    0 -0.19667505411E+02 -0.47250067554E+02 -0.14047417199E+03  0.14950709899E+03  0.00000000000E+00 0. -1.
</event>
<event>
 7    1  0.2490079E-009  0.9117202E+02  0.7561462E-02  0.1300038E+00
         -1   -1    0    0    0  501 -0.00000000000E+00  0.00000000000E+00  0.79780575676E+02  0.79780575676E+02  0.00000000000E+00 0.  1.
          1   -1    0    0  501    0  0.00000000000E+00 -0.00000000000E+00 -0.18561085646E+03  0.18561085646E+03  0.00000000000E+00 0. -1.
         25    2    1    2    0    0 -0.41863138427E+02 -0.37283196627E+02 -0.54923909658E+02  0.14766907927E+03  0.12508781719E+03 0.  0.
          5    1    3    3  502    0 -0.37801753652E+02  0.66169117367E+01  0.31981770324E+02  0.50130451157E+02  0.41800000000E+01 0.  1.
         -5    1    3    3    0  502 -0.40613847742E+01 -0.43900108364E+02 -0.86905679981E+02  0.97538628110E+02  0.41800000000E+01 0.  1.
        -11    1    1    2    0    0  0.62222872894E+02  0.65180043816E+01 -0.11263559909E+02  0.63569159772E+02  0.00000000000E+00 0.  1.
         11    1    1    2    0    0 -0.20359734467E+02  0.30765192245E+02 -0.39642811216E+02  0.54153193097E+02  0.00000000000E+00 0. -1.
</event>
<event>
 7    1  0.2490079E-009  0.9391242E+02  0.7561462E-02  0.1293645E+00
         -2   -1    0    0    0  501 -0.00000000000E+00  0.00000000000E+00  0.59963101894E+02  0.59963101894E+02  0.00000000000E+00 0.  1.
          2   -1    0    0  501    0  0.00000000000E+00 -0.00000000000E+00 -0.32512314826E+03  0.32512314826E+03  0.00000000000E+00 0. -1.
         25    2    1    2    0    0  0.65002802202E+01  0.62594046111E+02 -0.60016310766E+02  0.15233975990E+03  0.12508068051E+03 0.  0.
          5    1    3    3  502    0 -0.42177352527E+02  0.60045457309E+02  0.17836594578E+01  0.73518976127E+02  0.41800000000E+01 0. -1.
         -5    1    3    3    0  502  0.48677632747E+02  0.25485888017E+01 -0.61799970223E+02  0.78820783772E+02  0.41800000000E+01 0. -1.
        -11    1    1    2    0    0  0.62280571341E+01 -0.21551740812E+02  0.72069588134E+00  0.22445169419E+02  0.00000000000E+00 0.  1.
         11    1    1    2    0    0 -0.12728337354E+02 -0.41042305299E+02 -0.20586443148E+03  0.21030132084E+03  0.00000000000E+00 0. -1.
</event>
<event>
 7    1  0.2490079E-009  0.2017224E+03  0.7561462E-02  0.1148294E+00
          2   -1    0    0  501    0  0.00000000000E+00  0.00000000000E+00  0.31308921301E+02  0.31308921301E+02  0.00000000000E+00 0.  1.
         -2   -1    0    0    0  501 -0.00000000000E+00 -0.00000000000E+00 -0.16852346238E+04  0.16852346238E+04  0.00000000000E+00 0. -1.
         25    2    1    2    0    0 -0.17983293472E+03 -0.25258579235E+02 -0.11864621535E+04  0.12067794736E+04  0.12508547542E+03 0.  0.
          5    1    3    3  502    0 -0.19643189897E+03 -0.34881040303E+02 -0.11125134545E+04  0.11302680376E+04  0.41800000000E+01 0. -1.
         -5    1    3    3    0  502  0.16598964249E+02  0.96224610684E+01 -0.73948698955E+02  0.76511436063E+02  0.41800000000E+01 0. -1.
        -11    1    1    2    0    0  0.40750093244E+02  0.19195302881E+02 -0.23110336791E+03  0.23545232301E+03  0.00000000000E+00 0. -1.
         11    1    1    2    0    0  0.13908284148E+03  0.60632763542E+01 -0.23636018109E+03  0.27431174842E+03  0.00000000000E+00 0.  1.
</event>
<event>
 7    1  0.2490079E-009  0.1068684E+03  0.7561462E-02  0.1266481E+00
          2   -1    0    0  501    0  0.00000000000E+00  0.00000000000E+00  0.23260697712E+03  0.23260697712E+03  0.00000000000E+00 0. -1.
         -2   -1    0    0    0  501 -0.00000000000E+00 -0.00000000000E+00 -0.51081739754E+02  0.51081739754E+02  0.00000000000E+00 0.  1.
         25    2    1    2    0    0  0.16676663074E+02 -0.12833542829E+01  0.12080972065E+03  0.17470589636E+03  0.12508958201E+03 0.  0.
          5    1    3    3  502    0 -0.49597440280E+02  0.19843890693E+02  0.71450049934E+02  0.89309955300E+02  0.41800000000E+01 0.  1.
         -5    1    3    3    0  502  0.66274103353E+02 -0.21127244976E+02  0.49359670718E+02  0.85395941057E+02  0.41800000000E+01 0.  1.
        -11    1    1    2    0    0  0.31653060336E+02 -0.20230898022E+02  0.23712862376E+02  0.44424152276E+02  0.00000000000E+00 0.  1.
         11    1    1    2    0    0 -0.48329723410E+02  0.21514252304E+02  0.37002654338E+02  0.64558668242E+02  0.00000000000E+00 0. -1.
</event>
<event>
 7    1  0.2490079E-009  0.1291251E+03  0.7561462E-02  0.1228760E+00
         -2   -1    0    0    0  501 -0.00000000000E+00  0.00000000000E+00  0.76763794490E+02  0.76763794490E+02  0.00000000000E+00 0.  1.
          2   -1    0    0  501    0  0.00000000000E+00 -0.00000000000E+00 -0.29332114767E+03  0.29332114767E+03  0.00000000000E+00 0. -1.
         25    2    1    2    0    0 -0.53411279334E+02  0.49840132765E+02 -0.26978324500E+02  0.14735047200E+03  0.12509007959E+03 0.  0.
          5    1    3    3  502    0 -0.92745523934E+02  0.31040565255E+02 -0.41910260268E+01  0.97981049190E+02  0.41800000000E+01 0. -1.
         -5    1    3    3    0  502  0.39334244600E+02  0.18799567510E+02 -0.22787298473E+02  0.49369422809E+02  0.41800000000E+01 0. -1.
        -11    1    1    2    0    0  0.25052618630E+01 -0.63743241739E+02 -0.11236443215E+03  0.12921007242E+03  0.00000000000E+00 0. -1.
         11    1    1    2    0    0  0.50906017471E+02  0.13903108974E+02 -0.77214596536E+02  0.93524397737E+02  0.00000000000E+00 0.  1.
</event>
<event>
 7    1  0.2490079E-009  0.2939010E+03  0.7561462E-02  0.1088330E+00
         -2   -1    0    0    0  501 -0.00000000000E+00  0.00000000000E+00  0.12076303500E+03  0.12076303500E+03  0.00000000000E+00 0.  1.
          2   -1    0    0  501    0  0.00000000000E+00 -0.00000000000E+00 -0.82303707929E+03  0.82303707929E+03  0.00000000000E+00 0. -1.
         25    2    1    2    0    0  0.86378722223E+02 -0.26953853310E+03 -0.22904544960E+03  0.38500102722E+03  0.12510662850E+03 0.  0.
          5    1    3    3  502    0  0.85916804877E+02 -0.10904909303E+03 -0.15524206645E+03  0.20830500149E+03  0.41800000000E+01 0.  1.
         -5    1    3    3    0  502  0.46191734589E+00 -0.16048944007E+03 -0.73803383155E+02  0.17669602573E+03  0.41800000000E+01 0.  1.
        -11    1    1    2    0    0 -0.30318056366E+02  0.18135083957E+03 -0.36299750313E+03  0.40690846493E+03  0.00000000000E+00 0. -1.
         11    1    1    2    0    0 -0.56060665857E+02  0.88187693536E+02 -0.11023109157E+03  0.15189062214E+03  0.00000000000E+00 0.  1.
</event>
<event>
 7    1  0.2490079E-009  0.1684390E+03  0.7561462E-02  0.1179486E+00
          2   -1    0    0  501    0  0.00000000000E+00  0.00000000000E+00  0.36010836093E+03  0.36010836093E+03  0.00000000000E+00 0.  1.
         -2   -1    0    0    0  501 -0.00000000000E+00 -0.00000000000E+00 -0.99092503286E+02  0.99092503286E+02  0.00000000000E+00 0. -1.
         25    2    1    2    0    0  0.15368739911E+02  0.13859774262E+03  0.21298959386E+03  0.28364949268E+03  0.12508770993E+03 0.  0.
          5    1    3    3  502    0  0.28880454265E+02  0.15848151916E+03  0.19683571821E+03  0.25438601557E+03  0.41800000000E+01 0. -1.
         -5    1    3    3    0  502 -0.13511714355E+02 -0.19883776533E+02  0.16153875652E+02  0.29263477111E+02  0.41800000000E+01 0. -1.
        -11    1    1    2    0    0  0.19171409330E+02 -0.88028714373E+02  0.66055143644E+02  0.11171338099E+03  0.00000000000E+00 0.  1.
         11    1    1    2    0    0 -0.34540149241E+02 -0.50569028250E+02 -0.18028879867E+02  0.63837990546E+02  0.00000000000E+00 0. -1.
</event>
<event>
 7    1  0.2490079E-009  0.1194123E+03  0.7561462E-02  0.1244070E+00
          1   -1    0    0  501    0  0.00000000000E+00  0.00000000000E+00  0.70647133215E+03  0.70647133215E+03  0.00000000000E+00 0. -1.
         -1   -1    0    0    0  501 -0.00000000000E+00 -0.00000000000E+00 -0.22628206757E+02  0.22628206757E+02  0.00000000000E+00 0.  1.
         25    2    1    2    0    0 -0.51842663915E+02  0.23266280943E+02  0.29187372233E+03  0.32258951111E+03  0.12507894014E+03 0.  0.
          5    1    3    3  502    0 -0.92174868251E+02  0.27499742831E+02  0.21502370287E+03  0.23559521937E+03  0.41800000000E+01 0.  1.
         -5    1    3    3    0  502  0.40332204336E+02 -0.42334618877E+01  0.76850019451E+02  0.86994291742E+02  0.41800000000E+01 0.  1.
        -11    1    1    2    0    0  0.11485846176E+02  0.31624495758E+02  0.73503386660E+02  0.80837993820E+02  0.00000000000E+00 0.  1.
         11    1    1    2    0    0  0.40356817739E+02 -0.54890776702E+02  0.31846601641E+03  0.32567203398E+03  0.00000000000E+00 0. -1.
</event>
<event>
 7    1  0.2490079E-009  0.1164494E+03  0.7561462E-02  0.1249072E+00
         -2   -1    0    0    0  501 -0.00000000000E+00  0.00000000000E+00  0.45573684672E+02  0.45573684672E+02  0.00000000000E+00 0.  1.
          2   -1    0    0  501    0  0.00000000000E+00 -0.00000000000E+00 -0.41162278370E+03  0.41162278370E+03  0.00000000000E+00 0. -1.
         25    2    1    2    0    0  0.31462265720E+02 -0.75734761926E+02 -0.22035154711E+03  0.26632313889E+03  0.12509029404E+03 0.  0.
          5    1    3    3  502    0  0.74734209868E+02 -0.73716386760E+02 -0.14118444095E+03  0.17598246096E+03  0.41800000000E+01 0. -1.
         -5    1    3    3    0  502 -0.43271944148E+02 -0.20183751659E+01 -0.79167106166E+02  0.90340677922E+02  0.41800000000E+01 0. -1.
        -11    1    1    2    0    0 -0.15180683014E+02  0.59206801156E+02 -0.15442839541E+03  0.16608439948E+03  0.00000000000E+00 0. -1.
         11    1    1    2    0    0 -0.16281582707E+02  0.16527960770E+02  0.87308434999E+01  0.24788930006E+02  0.00000000000E+00 0.  1.
</event>
<event>
 7    1  0.2490079E-009  0.9413199E+02  0.7561462E-02  0.1293143E+00
          1   -1    0    0  501    0  0.00000000000E+00  0.00000000000E+00  0.14986394132E+03  0.14986394132E+03  0.00000000000E+00 0. -1.
         -1   -1    0    0    0  501 -0.00000000000E+00 -0.00000000000E+00 -0.98706370972E+02  0.98706370972E+02  0.00000000000E+00 0.  1.
         25    2    1    2    0    0  0.11169707766E+02 -0.55253380495E+02  0.79770807260E+01  0.13743475922E+03  0.12508789228E+03 0.  0.
          5    1    3    3  502    0 -0.53587264979E+02 -0.25179243599E+02  0.24194717046E+02  0.64097160694E+02  0.41800000000E+01 0.  1.
         -5    1    3    3    0  502  0.64756972745E+02 -0.30074136896E+02 -0.16217636320E+02  0.73337598521E+02  0.41800000000E+01 0.  1.
        -11    1    1    2    0    0 -0.33067108497E+01  0.40792104097E+02 -0.20209106444E+02  0.45643598418E+02  0.00000000000E+00 0.  1.
         11    1    1    2    0    0 -0.78629969160E+01  0.14461276398E+02  0.63389596063E+02  0.65491954656E+02  0.00000000000E+00 0. -1.
</event>
<event>
 7    1  0.2490079E-009  0.2233457E+03  0.7561462E-02  0.1131413E+00
         -2   -1    0    0    0  501 -0.00000000000E+00  0.00000000000E+00  0.51969322095E+02  0.51969322095E+02  0.00000000000E+00 0.  1.
          2   -1    0    0  501    0  0.00000000000E+00 -0.00000000000E+00 -0.14159576495E+04  0.14159576495E+04  0.00000000000E+00 0. -1.
         25    2    1    2    0    0  0.12338026688E+03  0.16369996228E+03 -0.10712767494E+04  0.10978624453E+04  0.12509079588E+03 0.  0.
          5    1    3    3  502    0  0.13544883561E+03  0.15382471751E+03 -0.10557294748E+04  0.10754490351E+04  0.41800000000E+01 0. -1.
         -5    1    3    3    0  502 -0.12068568738E+02  0.98752447750E+01 -0.15547274594E+02  0.22413410228E+02  0.41800000000E+01 0. -1.
        -11    1    1    2    0    0 -0.11315646795E+03 -0.73867684249E+02 -0.19111636063E+03  0.23406470113E+03  0.00000000000E+00 0.  1.
         11    1    1    2    0    0 -0.10223798926E+02 -0.89832278031E+02 -0.10159521746E+03  0.13599982519E+03  0.00000000000E+00 0. -1.
</event>
<event>
 7    1  0.2490079E-009  0.1272098E+03  0.7561462E-02  0.1231656E+00
         -2   -1    0    0    0  501 -0.00000000000E+00  0.00000000000E+00  0.24591295765E+03  0.24591295765E+03  0.00000000000E+00 0.  1.
          2   -1    0    0  501    0  0.00000000000E+00 -0.00000000000E+00 -0.88001970397E+02  0.88001970397E+02  0.00000000000E+00 0. -1.
         25    2    1    2    0    0 -0.99092724225E+02  0.22441178255E+01  0.85437750126E+02  0.18102907127E+03  0.12509001334E+03 0.  0.
          5    1    3    3  502    0 -0.12135495631E+03  0.21599992425E+02  0.46068276922E+02  0.13165615684E+03  0.41800000000E+01 0.  1.
         -5    1    3    3    0  502  0.22262232087E+02 -0.19355874599E+02  0.39369473204E+02  0.49372914430E+02  0.41800000000E+01 0.  1.
        -11    1    1    2    0    0  0.82927825838E+02  0.60026134738E+01  0.53099525090E+01  0.83314172038E+02  0.00000000000E+00 0. -1.
         11    1    1    2    0    0  0.16164898387E+02 -0.82467312993E+01  0.67163284615E+02  0.69571684738E+02  0.00000000000E+00 0.  1.
</event>
<event>
 7    1  0.2490079E-009  0.2481044E+03  0.7561462E-02  0.1114509E+00
          2   -1    0    0  501    0  0.00000000000E+00  0.00000000000E+00  0.27088593500E+03  0.27088593500E+03  0.00000000000E+00 0. -1.
         -2   -1    0    0    0  501 -0.00000000000E+00 -0.00000000000E+00 -0.26956554043E+03  0.26956554043E+03  0.00000000000E+00 0.  1.
         25    2    1    2    0    0  0.23999375818E+03  0.26401011517E+02 -0.52013050855E+02  0.27685174443E+03  0.12509002183E+03 0.  0.
          5    1    3    3  502    0  0.75412217370E+02 -0.26897418764E+02  0.29678628831E+02  0.85491327479E+02  0.41800000000E+01 0. -1.
         -5    1    3    3    0  502  0.16458154081E+03  0.53298430280E+02 -0.81691679686E+02  0.19136041695E+03  0.41800000000E+01 0. -1.
        -11    1    1    2    0    0 -0.70897642862E+02  0.47066792988E+01 -0.24105712977E+02  0.75031420028E+02  0.00000000000E+00 0.  1.
         11    1    1    2    0    0 -0.16909611532E+03 -0.31107690815E+02  0.77439158400E+02  0.18856831096E+03  0.00000000000E+00 0. -1.
</event>
<event>
 7    1  0.2490079E-009  0.1539188E+03  0.7561462E-02  0.1195739E+00
         -2   -1    0    0    0  501 -0.00000000000E+00  0.00000000000E+00  0.14281673930E+02  0.14281673930E+02  0.00000000000E+00 0.  1.
          2   -1    0    0  501    0  0.00000000000E+00 -0.00000000000E+00 -0.19243471467E+04  0.19243471467E+04  0.00000000000E+00 0. -1.
         25    2    1    2    0    0  0.70195347651E+02 -0.88411817343E+02 -0.13320272416E+04  0.13426403943E+04  0.12507045859E+03 0.  0.
          5    1    3    3  502    0  0.39628222071E+01  0.30270181372E+02 -0.18030499529E+03  0.18291897542E+03  0.41800000000E+01 0. -1.
         -5    1    3    3    0  502  0.66232525444E+02 -0.11868199871E+03 -0.11517222463E+04  0.11597214188E+04  0.41800000000E+01 0. -1.
        -11    1    1    2    0    0 -0.35922211218E+02 -0.96277417763E+01 -0.22268462453E+03  0.22576877701E+03  0.00000000000E+00 0.  1.
         11    1    1    2    0    0 -0.34273136433E+02  0.98039559119E+02 -0.35535360665E+03  0.37021964938E+03  0.00000000000E+00 0. -1.
</event>
<event>
 7    1  0.2490079E-009  0.2562196E+03  0.7561462E-02  0.1109436E+00
         -2   -1    0    0    0  501 -0.00000000000E+00  0.00000000000E+00  0.27681278877E+03  0.27681278877E+03  0.00000000000E+00 0.  1.
          2   -1    0    0  501    0  0.00000000000E+00 -0.00000000000E+00 -0.26979398811E+03  0.26979398811E+03  0.00000000000E+00 0. -1.
         25    2    1    2    0    0 -0.16366800795E+03 -0.18803071258E+03 -0.10846932492E+02  0.27911985832E+03  0.12508986234E+03 0.  0.
          5    1    3    3  502    0 -0.10415125918E+03 -0.83515081955E+02 -0.63340332869E+02  0.14782328596E+03  0.41800000000E+01 0.  1.
         -5    1    3    3    0  502 -0.59516748767E+02 -0.10451563063E+03  0.52493400378E+02  0.13129657236E+03  0.41800000000E+01 0.  1.
        -11    1    1    2    0    0  0.57941957241E+02  0.22591080657E+02 -0.24132105674E+02  0.66708214325E+02  0.00000000000E+00 0. -1.
         11    1    1    2    0    0  0.10572605071E+03  0.16543963193E+03  0.41997838817E+02  0.20077870424E+03  0.00000000000E+00 0.  1.
</event>
<event>
 7    1  0.2490079E-009  0.9677202E+02  0.7561462E-02  0.1287234E+00
          1   -1    0    0  501    0  0.00000000000E+00  0.00000000000E+00  0.25884165563E+03  0.25884165563E+03  0.00000000000E+00 0. -1.
         -1   -1    0    0    0  501 -0.00000000000E+00 -0.00000000000E+00 -0.82174663397E+02  0.82174663397E+02  0.00000000000E+00 0.  1.
         25    2    1    2    0    0 -0.96315292817E+01 -0.38410759301E+02  0.29889626695E+00  0.13120936850E+03  0.12509059220E+03 0.  0.
          5    1    3    3  502    0 -0.46583633004E+02  0.27309022188E+02 -0.97547651222E+01  0.55031312899E+02  0.41800000000E+01 0.  1.
         -5    1    3    3    0  502  0.36952103723E+02 -0.65719781489E+02  0.10053661389E+02  0.76178055605E+02  0.41800000000E+01 0.  1.
        -11    1    1    2    0    0  0.68977699148E+01 -0.11756563114E+02 -0.99228213750E+01  0.16859964119E+02  0.00000000000E+00 0.  1.
         11    1    1    2    0    0  0.27337593669E+01  0.50167322415E+02  0.18629091734E+03  0.19294698640E+03  0.00000000000E+00 0. -1.
</event>
<event>
 7    1  0.2490079E-009  0.7922713E+02  0.7561462E-02  0.1331259E+00
         -1   -1    0    0    0  501 -0.00000000000E+00  0.00000000000E+00  0.12051083973E+03  0.12051083973E+03  0.00000000000E+00 0.  1.
          1   -1    0    0  501    0  0.00000000000E+00 -0.00000000000E+00 -0.15235474441E+03  0.15235474441E+03  0.00000000000E+00 0. -1.
         25    2    1    2    0    0  0.97550519534E+01 -0.39741185303E+02  0.52317757504E+02  0.14163232616E+03  0.12509214690E+03 0.  0.
          5    1    3    3  502    0  0.55354545520E+02 -0.16142801644E+02 -0.12186895768E+02  0.59082218840E+02  0.41800000000E+01 0. -1.
         -5    1    3    3    0  502 -0.45599493567E+02 -0.23598383659E+02  0.64504653272E+02  0.82550107321E+02  0.41800000000E+01 0. -1.
        -11    1    1    2    0    0 -0.19233594371E+02  0.24024108782E+02 -0.10145243814E+03  0.10601738612E+03  0.00000000000E+00 0. -1.
         11    1    1    2    0    0  0.94785424176E+01  0.15717076522E+02  0.17290775953E+02  0.25215871863E+02  0.00000000000E+00 0.  1.
</event>
<event>
 7    1  0.2490079E-009  0.1130643E+03  0.7561462E-02  0.1254998E+00
         -1   -1    0    0    0  501 -0.00000000000E+00  0.00000000000E+00  0.52005356748E+03  0.52005356748E+03  0.00000000000E+00 0.  1.
          1   -1    0    0  501    0  0.00000000000E+00 -0.00000000000E+00 -0.35553323378E+02  0.35553323378E+02  0.00000000000E+00 0. -1.
         25    2    1    2    0    0  0.59594877980E+02 -0.47285535586E+02  0.18548736815E+03  0.23630439185E+03  0.12508689182E+03 0.  0.
          5    1    3    3  502    0 -0.11184768103E+02  0.15495312749E+02 -0.78028422843E+01  0.21060876108E+02  0.41800000000E+01 0. -1.
         -5    1    3    3    0  502  0.70779646083E+02 -0.62780848336E+02  0.19329021044E+03  0.21524351574E+03  0.41800000000E+01 0. -1.
        -11    1    1    2    0    0  0.12520652856E+02 -0.12867394571E+02  0.54172064601E+02  0.57069686999E+02  0.00000000000E+00 0.  1.
         11    1    1    2    0    0 -0.72115530836E+02  0.60152930157E+02  0.24484081134E+03  0.26223281201E+03  0.00000000000E+00 0. -1.
</event>
<event>
 7    1  0.2490079E-009  0.2096787E+03  0.7561462E-02  0.1141821E+00
          1   -1    0    0  501    0  0.00000000000E+00  0.00000000000E+00  0.55539053330E+03  0.55539053330E+03  0.00000000000E+00 0. -1.
         -1   -1    0    0    0  501 -0.00000000000E+00 -0.00000000000E+00 -0.13378698232E+03  0.13378698232E+03  0.00000000000E+00 0.  1.
         25    2    1    2    0    0  0.12236298783E+03 -0.13946325478E+03  0.52759119204E+01  0.22382529278E+03  0.12508887328E+03 0.  0.
          5    1    3    3  502    0  0.17972242095E+01 -0.75827198900E+02  0.35926006230E+02  0.84030616037E+02  0.41800000000E+01 0.  1.
         -5    1    3    3    0  502  0.12056576362E+03 -0.63636055884E+02 -0.30650094309E+02  0.13979467674E+03  0.41800000000E+01 0.  1.
        -11    1    1    2    0    0 -0.10728815102E+03  0.53801274136E+02  0.21971456976E+03  0.25035937492E+03  0.00000000000E+00 0.  1.
         11    1    1    2    0    0 -0.15074836807E+02  0.85661980649E+02  0.19661306930E+03  0.21499284791E+03  0.00000000000E+00 0. -1.
</event>
<event>
 7    1  0.2490079E-009  0.8498991E+02  0.7561462E-02  0.1315459E+00
         -3   -1    0    0    0  501 -0.00000000000E+00  0.00000000000E+00  0.98729048565E+02  0.98729048565E+02  0.00000000000E+00 0.  1.
          3   -1    0    0  501    0  0.00000000000E+00 -0.00000000000E+00 -0.15228849255E+03  0.15228849255E+03  0.00000000000E+00 0. -1.
         25    2    1    2    0    0  0.42716181114E+02  0.83699440442E+01  0.93132523370E+01  0.13277105656E+03  0.12508672470E+03 0.  0.
          5    1    3    3  502    0  0.51455739284E+02 -0.39468985181E+02 -0.28567320798E+02  0.70986323429E+02  0.41800000000E+01 0.  1.
         -5    1    3    3    0  502 -0.87395581695E+01  0.47838929225E+02  0.37880573135E+02  0.61784733126E+02  0.41800000000E+01 0.  1.
        -11    1    1    2    0    0 -0.20446462732E+02 -0.22033028023E+02  0.16775307943E+02  0.34422712251E+02  0.00000000000E+00 0.  1.
         11    1    1    2    0    0 -0.22269718382E+02  0.13663083979E+02 -0.79648004261E+02  0.83823772304E+02  0.00000000000E+00 0. -1.
</event>
<event>
 7    1  0.2490079E-009  0.2044249E+03  0.7561462E-02  0.1146059E+00
         -2   -1    0    0    0  501 -0.00000000000E+00  0.00000000000E+00  0.22625384947E+02  0.22625384947E+02  0.00000000000E+00 0. -1.
          2   -1    0    0  501    0  0.00000000000E+00 -0.00000000000E+00 -0.19274466873E+04  0.19274466873E+04  0.00000000000E+00 0.  1.
         25    2    1    2    0    0 -0.10273207445E+03 -0.13710888355E+03 -0.93447796938E+03  0.95825313629E+03  0.12508905974E+03 0.  0.
          5    1    3    3  502    0 -0.11799892774E+03 -0.61606983203E+02 -0.52937582509E+03  0.54587123383E+03  0.41800000000E+01 0.  1.
         -5    1    3    3    0  502  0.15266853287E+02 -0.75501900348E+02 -0.40510214429E+03  0.41238190246E+03  0.41800000000E+01 0.  1.
        -11    1    1    2    0    0 -0.14840629959E+02  0.50125063038E+02 -0.15823583171E+03  0.16664736625E+03  0.00000000000E+00 0.  1.
         11    1    1    2    0    0  0.11757270441E+03  0.86983820513E+02 -0.81210750127E+03  0.82517156971E+03  0.00000000000E+00 0. -1.
</event>
<event>
 7    1  0.2490079E-009  0.8203243E+02  0.7561462E-02  0.1323381E+00
         -1   -1    0    0    0  501 -0.00000000000E+00  0.00000000000E+00  0.81867524515E+02  0.81867524515E+02  0.00000000000E+00 0.  1.
          1   -1    0    0  501    0  0.00000000000E+00 -0.00000000000E+00 -0.23134287455E+03  0.23134287455E+03  0.00000000000E+00 0. -1.
         25    2    1    2    0    0 -0.55420544982E+02 -0.18569973968E+01 -0.11350620724E+02  0.13729991944E+03  0.12509015166E+03 0.  0.
          5    1    3    3  502    0 -0.70431618434E+01 -0.99408638977E+01  0.53982403298E+02  0.55497740220E+02  0.41800000000E+01 0.  1.
         -5    1    3    3    0  502 -0.48377383139E+02  0.80838665009E+01 -0.65333024022E+02  0.81802179218E+02  0.41800000000E+01 0.  1.
        -11    1    1    2    0    0  0.24387156959E+02  0.43592199258E+02 -0.98797818203E+02  0.11070692003E+03  0.00000000000E+00 0.  1.
         11    1    1    2    0    0  0.31033388023E+02 -0.41735201861E+02 -0.39326911103E+02  0.65203559592E+02  0.00000000000E+00 0. -1.
</event>
<event>
 7    1  0.2490079E-009  0.1010445E+03  0.7561462E-02  0.1278115E+00
         -3   -1    0    0    0  501 -0.00000000000E+00  0.00000000000E+00  0.34292022741E+02  0.34292022741E+02  0.00000000000E+00 0.  1.
          3   -1    0    0  501    0  0.00000000000E+00 -0.00000000000E+00 -0.38744402206E+03  0.38744402206E+03  0.00000000000E+00 0. -1.
         25    2    1    2    0    0  0.13611601160E+02  0.29715798762E+02 -0.24277499819E+03  0.27505484237E+03  0.12508861732E+03 0.  0.
          5    1    3    3  502    0  0.59738293531E+02  0.25229054157E+02 -0.20520679380E+03  0.21524978399E+03  0.41800000000E+01 0.  1.
         -5    1    3    3    0  502 -0.46126692371E+02  0.44867446051E+01 -0.37568204392E+02  0.59805058377E+02  0.41800000000E+01 0.  1.
        -11    1    1    2    0    0  0.14529990231E+02  0.25074296350E+02 -0.61725367674E+02  0.68189896378E+02  0.00000000000E+00 0. -1.
         11    1    1    2    0    0 -0.28141591391E+02 -0.54790095111E+02 -0.48651633457E+02  0.78491306056E+02  0.00000000000E+00 0.  1.
</event>
<event>
 7    1  0.2490079E-009  0.1534787E+03  0.7561462E-02  0.1196262E+00
          3   -1    0    0  501    0  0.00000000000E+00  0.00000000000E+00  0.90220533647E+03  0.90220533647E+03  0.00000000000E+00 0. -1.
         -3   -1    0    0    0  501 -0.00000000000E+00 -0.00000000000E+00 -0.31467263051E+02  0.31467263051E+02  0.00000000000E+00 0.  1.
         25    2    1    2    0    0  0.11213725607E+03 -0.58553907832E+02  0.53367490943E+03  0.56254723874E+03  0.12508861874E+03 0.  0.
          5    1    3    3  502    0  0.10422590348E+03 -0.78354471761E+02  0.29105172043E+03  0.31895303505E+03  0.41800000000E+01 0. -1.
         -5    1    3    3    0  502  0.79113525901E+01  0.19800563929E+02  0.24262318900E+03  0.24359420369E+03  0.41800000000E+01 0. -1.
        -11    1    1    2    0    0  0.15009790459E+02  0.56099360709E+00  0.24404196714E+02  0.28656122220E+02  0.00000000000E+00 0.  1.
         11    1    1    2    0    0 -0.12714704653E+03  0.57992914225E+02  0.31265896727E+03  0.34246923855E+03  0.00000000000E+00 0. -1.
</event>
<event>
 7    1  0.2490079E-009  0.8447395E+02  0.7561462E-02  0.1316814E+00
         -1   -1    0    0    0  501 -0.00000000000E+00  0.00000000000E+00  0.43248741908E+02  0.43248741908E+02  0.00000000000E+00 0.  1.
          1   -1    0    0  501    0  0.00000000000E+00 -0.00000000000E+00 -0.28507417270E+03  0.28507417270E+03  0.00000000000E+00 0. -1.
         25    2    1    2    0    0  0.13331900356E+02  0.35322004680E+01 -0.10924272098E+03  0.16664885679E+03  0.12509058069E+03 0.  0.
          5    1    3    3  502    0 -0.34042855028E+02 -0.35321429742E+01 -0.11326827139E+03  0.11840002414E+03  0.41800000000E+01 0.  1.
         -5    1    3    3    0  502  0.47374755384E+02  0.70643434422E+01  0.40255504176E+01  0.48248832651E+02  0.41800000000E+01 0.  1.
        -11    1    1    2    0    0 -0.48034923550E+02 -0.14185869556E+02 -0.46890700747E+02  0.68609989011E+02  0.00000000000E+00 0.  1.
         11    1    1    2    0    0  0.34703023194E+02  0.10653669088E+02 -0.85692009067E+02  0.93064068801E+02  0.00000000000E+00 0. -1.
</event>
<event>
 7    1  0.2527242E-009  0.1093034E+03  0.7561462E-02  0.1261865E+00
          2   -1    0    0  501    0  0.00000000000E+00  0.00000000000E+00  0.13643749882E+04  0.13643749882E+04  0.00000000000E+00 0. -1.
         -2   -1    0    0    0  501 -0.00000000000E+00 -0.00000000000E+00 -0.13525997645E+02  0.13525997645E+02  0.00000000000E+00 0.  1.
         25    2    1    2    0    0 -0.76210372998E+02 -0.23103219038E+02  0.80635451468E+03  0.81987617730E+03  0.12509021972E+03 0.  0.
          5    1    3    3  502    0 -0.65746234208E+02 -0.42697842775E+02  0.22906693810E+03  0.24214625254E+03  0.41800000000E+01 0. -1.
         -5    1    3    3    0  502 -0.10464138789E+02  0.19594623738E+02  0.57728757658E+03  0.57772992476E+03  0.41800000000E+01 0. -1.
        -11    1    1    2    0    0  0.16934298063E+02  0.49716325440E+02  0.16976574975E+03  0.17770451107E+03  0.00000000000E+00 0.  1.
         11    1    1    2    0    0  0.59276074935E+02 -0.26613106402E+02  0.37472872610E+03  0.38032029745E+03  0.00000000000E+00 0. -1.
</event>
<event>
 7    1  0.2490079E-009  0.9377322E+02  0.7561462E-02  0.1293963E+00
          1   -1    0    0  501    0  0.00000000000E+00  0.00000000000E+00  0.83774163494E+03  0.83774163494E+03  0.00000000000E+00 0. -1.
         -1   -1    0    0    0  501 -0.00000000000E+00 -0.00000000000E+00 -0.20804361553E+02  0.20804361553E+02  0.00000000000E+00 0.  1.
         25    2    1    2    0    0 -0.41161303367E+02 -0.89746780152E+01  0.64635314292E+03  0.65969289928E+03  0.12509012055E+03 0.  0.
          5    1    3    3  502    0 -0.12027479308E+02  0.32902729986E+02  0.50263276708E+02  0.61409439701E+02  0.41800000000E+01 0. -1.
         -5    1    3    3    0  502 -0.29133824060E+02 -0.41877408001E+02  0.59608986621E+03  0.59828345958E+03  0.41800000000E+01 0. -1.
        -11    1    1    2    0    0  0.43696094365E+02 -0.35643669075E+02  0.10949329999E+03  0.12316088077E+03  0.00000000000E+00 0. -1.
         11    1    1    2    0    0 -0.25347909978E+01  0.44618347090E+02  0.61090830474E+02  0.75692216446E+02  0.00000000000E+00 0.  1.
</event>
<event>
 7    1  0.2490079E-009  0.5129494E+02  0.7561462E-02  0.1438480E+00
         -1   -1    0    0    0  501 -0.00000000000E+00  0.00000000000E+00  0.28704889476E+03  0.28704889476E+03  0.00000000000E+00 0.  1.
          1   -1    0    0  501    0  0.00000000000E+00 -0.00000000000E+00 -0.43967902258E+02  0.43967902258E+02  0.00000000000E+00 0. -1.
         25    2    1    2    0    0  0.44395042670E+01  0.25314730164E+02  0.11525664920E+03  0.17202039552E+03  0.12508547689E+03 0.  0.
          5    1    3    3  502    0 -0.13263501029E+00  0.17225059633E+02 -0.25411970804E+02  0.30983236299E+02  0.41800000000E+01 0.  1.
         -5    1    3    3    0  502  0.45721392773E+01  0.80896705311E+01  0.14066862000E+03  0.14103715922E+03  0.41800000000E+01 0.  1.
        -11    1    1    2    0    0  0.98472654491E+01  0.22612651472E+02  0.97363204756E+02  0.10043850996E+03  0.00000000000E+00 0.  1.
         11    1    1    2    0    0 -0.14286769716E+02 -0.47927381635E+02  0.30461138542E+02  0.58557891531E+02  0.00000000000E+00 0. -1.
</event>
<event>
 7    1  0.2490079E-009  0.7892201E+02  0.7561462E-02  0.1332139E+00
         -2   -1    0    0    0  501 -0.00000000000E+00  0.00000000000E+00  0.31773392139E+02  0.31773392139E+02  0.00000000000E+00 0.  1.
          2   -1    0    0  501    0  0.00000000000E+00 -0.00000000000E+00 -0.39829404237E+03  0.39829404237E+03  0.00000000000E+00 0. -1.
         25    2    1    2    0    0 -0.33078159502E+02 -0.91732512379E+01 -0.20679160545E+03  0.24410686029E+03  0.12508828076E+03 0.  0.
          5    1    3    3  502    0 -0.46754081733E+02  0.11969403728E+02 -0.15126097327E+02  0.50749206936E+02  0.41800000000E+01 0.  1.
         -5    1    3    3    0  502  0.13675922230E+02 -0.21142654966E+02 -0.19166550812E+03  0.19335765336E+03  0.41800000000E+01 0.  1.
        -11    1    1    2    0    0  0.46675105417E+02 -0.20696395508E+02 -0.50131296708E+02  0.71554546762E+02  0.00000000000E+00 0.  1.
         11    1    1    2    0    0 -0.13596945914E+02  0.29869646746E+02 -0.10959774807E+03  0.11440602745E+03  0.00000000000E+00 0. -1.
</event>
<event>
 7    1  0.2490079E-009  0.1839399E+03  0.7561462E-02  0.1164044E+00
          1   -1    0    0  501    0  0.00000000000E+00  0.00000000000E+00  0.13005858130E+04  0.13005858130E+04  0.00000000000E+00 0. -1.
         -1   -1    0    0    0  501 -0.00000000000E+00 -0.00000000000E+00 -0.30024285015E+02  0.30024285015E+02  0.00000000000E+00 0.  1.
         25    2    1    2    0    0 -0.10518287434E+03 -0.12650785729E+03  0.67706827901E+03  0.70791019135E+03  0.12509080528E+03 0.  0.
          5    1    3    3  502    0 -0.68185949672E+02 -0.12463941297E+03  0.63904608824E+03  0.65466150207E+03  0.41800000000E+01 0.  1.
         -5    1    3    3    0  502 -0.36996924669E+02 -0.18684443185E+01  0.38022190773E+02  0.53248689283E+02  0.41800000000E+01 0.  1.
        -11    1    1    2    0    0  0.12179838936E+03  0.11883383232E+03  0.53493724281E+03  0.56135031941E+03  0.00000000000E+00 0. -1.
         11    1    1    2    0    0 -0.16615515016E+02  0.76740249759E+01  0.58556006152E+02  0.61349587244E+02  0.00000000000E+00 0.  1.
</event>
<event>
 7    1  0.2490079E-009  0.9662657E+02  0.7561462E-02  0.1287554E+00
         -2   -1    0    0    0  501 -0.00000000000E+00  0.00000000000E+00  0.80571526718E+02  0.80571526718E+02  0.00000000000E+00 0.  1.
          2   -1    0    0  501    0  0.00000000000E+00 -0.00000000000E+00 -0.19824837993E+03  0.19824837993E+03  0.00000000000E+00 0. -1.
         25    2    1    2    0    0 -0.62931879639E+02  0.28905564555E+01 -0.76663679056E+02  0.15967201438E+03  0.12509618579E+03 0.  0.
          5    1    3    3  502    0  0.14487006139E+02 -0.29849091982E+02  0.13743160726E+02  0.36155061966E+02  0.41800000000E+01 0.  1.
         -5    1    3    3    0  502 -0.77418885778E+02  0.32739648438E+02 -0.90406839782E+02  0.12351695242E+03  0.41800000000E+01 0.  1.
        -11    1    1    2    0    0  0.22422700415E+01 -0.13806706662E+02  0.25104361368E+02  0.28738160753E+02  0.00000000000E+00 0.  1.
         11    1    1    2    0    0  0.60689609598E+02  0.10916150206E+02 -0.66117535526E+02  0.90409731514E+02  0.00000000000E+00 0. -1.
</event>
<event>
 7    1  0.2490079E-009  0.1683830E+03  0.7561462E-02  0.1179545E+00
         -3   -1    0    0    0  501 -0.00000000000E+00  0.00000000000E+00  0.39009741836E+02  0.39009741836E+02  0.00000000000E+00 0.  1.
          3   -1    0    0  501    0  0.00000000000E+00 -0.00000000000E+00 -0.80354713309E+03  0.80354713309E+03  0.00000000000E+00 0. -1.
         25    2    1    2    0    0 -0.11710505332E+03  0.68160495268E+02 -0.48900686581E+03  0.52262273386E+03  0.12508941004E+03 0.  0.
          5    1    3    3  502    0  0.26914205237E+02  0.11026697599E+02 -0.81472966280E+02  0.86609925170E+02  0.41800000000E+01 0. -1.
         -5    1    3    3    0  502 -0.14401925855E+03  0.57133797669E+02 -0.40753389953E+03  0.43601280869E+03  0.41800000000E+01 0. -1.
        -11    1    1    2    0    0  0.65345193118E+02  0.17892639535E+01 -0.65259284454E+02  0.92368663174E+02  0.00000000000E+00 0.  1.
         11    1    1    2    0    0  0.51759860199E+02 -0.69949759221E+02 -0.21027124098E+03  0.22756547789E+03  0.00000000000E+00 0. -1.
</event>
<event>
 7    1  0.2490079E-009  0.9726099E+02  0.7561462E-02  0.1286163E+00
          1   -1    0    0  501    0  0.00000000000E+00  0.00000000000E+00  0.24338634126E+02  0.24338634126E+02  0.00000000000E+00 0. -1.
         -1   -1    0    0    0  501 -0.00000000000E+00 -0.00000000000E+00 -0.49842567900E+03  0.49842567900E+03  0.00000000000E+00 0.  1.
         25    2    1    2    0    0 -0.13119257648E+02  0.16378241435E+02 -0.25715520764E+03  0.28673321770E+03  0.12508707209E+03 0.  0.
          5    1    3    3  502    0 -0.65729886784E+02 -0.83018815899E+01 -0.16313675409E+03  0.17612612580E+03  0.41800000000E+01 0.  1.
         -5    1    3    3    0  502  0.52610629136E+02  0.24680123025E+02 -0.94018453549E+02  0.11060709190E+03  0.41800000000E+01 0.  1.
        -11    1    1    2    0    0 -0.19924773703E+02  0.14506276725E+02 -0.14472825108E+02  0.28581310994E+02  0.00000000000E+00 0. -1.
         11    1    1    2    0    0  0.33044031351E+02 -0.30884518160E+02 -0.20245901213E+03  0.20744978444E+03  0.00000000000E+00 0.  1.
</event>
<event>
 7    1  0.2490079E-009  0.1053535E+03  0.7561462E-02  0.1269425E+00
         -2   -1    0    0    0  501 -0.00000000000E+00  0.00000000000E+00  0.89514451741E+01  0.89514451741E+01  0.00000000000E+00 0.  1.
          2   -1    0    0  501    0  0.00000000000E+00 -0.00000000000E+00 -0.15254516798E+04  0.15254516798E+04  0.00000000000E+00 0. -1.
         25    2    1    2    0    0  0.80134753617E+01  0.12991270377E+01 -0.11639519694E+04  0.11706828265E+04  0.12509272431E+03 0.  0.
          5    1    3    3  502    0  0.10105587124E+02  0.61584889378E+02 -0.47888521216E+03  0.48295273094E+03  0.41800000000E+01 0.  1.
         -5    1    3    3    0  502 -0.20921117627E+01 -0.60285762341E+02 -0.68506675728E+03  0.68773009561E+03  0.41800000000E+01 0.  1.
        -11    1    1    2    0    0 -0.18878417329E+02  0.40403997244E+02 -0.21509552519E+03  0.21967012221E+03  0.00000000000E+00 0. -1.
         11    1    1    2    0    0  0.10864941967E+02 -0.41703124281E+02 -0.13745274003E+03  0.14405017626E+03  0.00000000000E+00 0.  1.
</event>
<event>
 7    1  0.2490079E-009  0.1062568E+03  0.7561462E-02  0.1267663E+00
          3   -1    0    0  501    0  0.00000000000E+00  0.00000000000E+00  0.49828803695E+03  0.49828803695E+03  0.00000000000E+00 0. -1.
         -3   -1    0    0    0  501 -0.00000000000E+00 -0.00000000000E+00 -0.37366349315E+02  0.37366349315E+02  0.00000000000E+00 0.  1.
         25    2    1    2    0    0 -0.64495997428E+02  0.35507075986E+02  0.31473898581E+03  0.34659608800E+03  0.12509089856E+03 0.  0.
          5    1    3    3  502    0  0.15288969642E+02 -0.17246750531E+02  0.72091760578E+01  0.24508113270E+02  0.41800000000E+01 0.  1.
         -5    1    3    3    0  502 -0.79784967070E+02  0.52753826517E+02  0.30752980975E+03  0.32208797473E+03  0.41800000000E+01 0.  1.
        -11    1    1    2    0    0  0.18770096434E+02 -0.43089191545E+02  0.13271424400E+03  0.14079085733E+03  0.00000000000E+00 0. -1.
         11    1    1    2    0    0  0.45725900994E+02  0.75821155583E+01  0.13468457834E+02  0.48267440936E+02  0.00000000000E+00 0.  1.
</event>
<event>
 7    1  0.2490079E-009  0.2792478E+03  0.7561462E-02  0.1096100E+00
          1   -1    0    0  501    0  0.00000000000E+00  0.00000000000E+00  0.78352525963E+03  0.78352525963E+03  0.00000000000E+00 0. -1.
         -1   -1    0    0    0  501 -0.00000000000E+00 -0.00000000000E+00 -0.17000573413E+03  0.17000573413E+03  0.00000000000E+00 0.  1.
         25    2    1    2    0    0 -0.17228333379E+03 -0.20507909039E+03  0.20205012250E+02  0.29630130902E+03  0.12508893951E+03 0.  0.
          5    1    3    3  502    0 -0.18877557173E+03 -0.18639249912E+03  0.34029538303E+02  0.26749553657E+03  0.41800000000E+01 0.  1.
         -5    1    3    3    0  502  0.16492237937E+02 -0.18686591270E+02 -0.13824526053E+02  0.28805772443E+02  0.41800000000E+01 0.  1.
        -11    1    1    2    0    0  0.15392193285E+03  0.18586743412E+03  0.44191169404E+03  0.50351227374E+03  0.00000000000E+00 0.  1.
         11    1    1    2    0    0  0.18361400941E+02  0.19211656273E+02  0.15140281921E+03  0.15371741100E+03  0.00000000000E+00 0. -1.
</event>
<event>
 7    1  0.2490079E-009  0.1188226E+03  0.7561462E-02  0.1245052E+00
          3   -1    0    0  501    0  0.00000000000E+00  0.00000000000E+00  0.38463632392E+02  0.38463632392E+02  0.00000000000E+00 0. -1.
         -3   -1    0    0    0  501 -0.00000000000E+00 -0.00000000000E+00 -0.62061720007E+03  0.62061720007E+03  0.00000000000E+00 0.  1.
         25    2    1    2    0    0  0.10137435937E+03  0.13927904958E+01 -0.40289287759E+03  0.43387673298E+03  0.12509055922E+03 0.  0.
          5    1    3    3  502    0  0.17541912005E+02  0.70223303199E+01 -0.30153596207E+03  0.30215631819E+03  0.41800000000E+01 0. -1.
         -5    1    3    3    0  502  0.83832447361E+02 -0.56295398241E+01 -0.10135691552E+03  0.13172041479E+03  0.41800000000E+01 0. -1.
        -11    1    1    2    0    0 -0.70171592563E+02  0.41197124359E+02 -0.88646412002E+02  0.12033055231E+03  0.00000000000E+00 0.  1.
         11    1    1    2    0    0 -0.31202766802E+02 -0.42589914855E+02 -0.90614278089E+02  0.10487354717E+03  0.00000000000E+00 0. -1.
</event>
<event>
 7    1  0.2490079E-009  0.1820700E+03  0.7561462E-02  0.1165815E+00
         -2   -1    0    0    0  501 -0.00000000000E+00  0.00000000000E+00  0.72029298511E+02  0.72029298511E+02  0.00000000000E+00 0. -1.
          2   -1    0    0  501    0  0.00000000000E+00 -0.00000000000E+00 -0.50740622121E+03  0.50740622121E+03  0.00000000000E+00 0.  1.
         25    2    1    2    0    0  0.41807131857E+02 -0.14795102662E+03 -0.17910643322E+03  0.26714021675E+03  0.12508972152E+03 0.  0.
          5    1    3    3  502    0  0.79964916810E+02 -0.91924438147E+02 -0.75944999669E+02  0.14363009999E+03  0.41800000000E+01 0. -1.
         -5    1    3    3    0  502 -0.38157784953E+02 -0.56026588471E+02 -0.10316143355E+03  0.12351011675E+03  0.41800000000E+01 0. -1.
        -11    1    1    2    0    0 -0.47265005787E+02  0.29451484325E+02 -0.11537319502E+03  0.12811067414E+03  0.00000000000E+00 0.  1.
         11    1    1    2    0    0  0.54578739296E+01  0.11849954229E+03 -0.14089729446E+03  0.18418462883E+03  0.00000000000E+00 0. -1.
</event>
<event>
 7    1  0.2490079E-009  0.1085307E+03  0.7561462E-02  0.1263315E+00
         -2   -1    0    0    0  501 -0.00000000000E+00  0.00000000000E+00  0.24241895982E+02  0.24241895982E+02  0.00000000000E+00 0.  1.
          2   -1    0    0  501    0  0.00000000000E+00 -0.00000000000E+00 -0.83413524334E+03  0.83413524334E+03  0.00000000000E+00 0. -1.
         25    2    1    2    0    0  0.79549728238E+02 -0.93106543193E+01 -0.35243734398E+03  0.38245997602E+03  0.12509478120E+03 0.  0.
          5    1    3    3  502    0  0.75935834147E+02 -0.15420555448E+02 -0.36177745957E+03  0.37000600953E+03  0.41800000000E+01 0. -1.
         -5    1    3    3    0  502  0.36138940906E+01  0.61099011291E+01  0.93401155871E+01  0.12453966496E+02  0.41800000000E+01 0. -1.
        -11    1    1    2    0    0 -0.10877778882E+02 -0.43345068920E+02 -0.15010192408E+03  0.15661324556E+03  0.00000000000E+00 0. -1.
         11    1    1    2    0    0 -0.68671949355E+02  0.52655723239E+02 -0.30735407930E+03  0.31930391773E+03  0.00000000000E+00 0.  1.
</event>
<event>
 7    1  0.2490079E-009  0.1204066E+03  0.7561462E-02  0.1242428E+00
         -2   -1    0    0    0  501 -0.00000000000E+00  0.00000000000E+00  0.21008709651E+02  0.21008709651E+02  0.00000000000E+00 0. -1.
          2   -1    0    0  501    0  0.00000000000E+00 -0.00000000000E+00 -0.85249491837E+03  0.85249491837E+03  0.00000000000E+00 0.  1.
         25    2    1    2    0    0  0.53136495016E+02  0.55728606473E+02 -0.47542646751E+03  0.49760070137E+03  0.12508783839E+03 0.  0.
          5    1    3    3  502    0 -0.14222838379E+02  0.70709201974E+02 -0.17507426433E+03  0.18939522382E+03  0.41800000000E+01 0.  1.
         -5    1    3    3    0  502  0.67359333395E+02 -0.14980595500E+02 -0.30035220318E+03  0.30820547755E+03  0.41800000000E+01 0.  1.
        -11    1    1    2    0    0 -0.65804088270E+02 -0.33476043536E+02 -0.33413156960E+03  0.34219107137E+03  0.00000000000E+00 0.  1.
         11    1    1    2    0    0  0.12667593254E+02 -0.22252562937E+02 -0.21928171606E+02  0.33711855275E+02  0.00000000000E+00 0. -1.
</event>
<event>
 7    1  0.2490079E-009  0.4673767E+02  0.7561462E-02  0.1463776E+00
          1   -1    0    0  501    0  0.00000000000E+00  0.00000000000E+00  0.85290897204E+02  0.85290897204E+02  0.00000000000E+00 0. -1.
         -1   -1    0    0    0  501 -0.00000000000E+00 -0.00000000000E+00 -0.15178168369E+03  0.15178168369E+03  0.00000000000E+00 0.  1.
         25    2    1    2    0    0  0.22601051697E+02 -0.56839736154E+01 -0.66794877998E+02  0.14370950644E+03  0.12509097258E+03 0.  0.
          5    1    3    3  502    0 -0.14884055609E+02  0.42214798680E+00 -0.94979510795E+02  0.96230417183E+02  0.41800000000E+01 0.  1.
         -5    1    3    3    0  502  0.37485107306E+02 -0.61061216022E+01  0.28184632797E+02  0.47479089257E+02  0.41800000000E+01 0.  1.
        -11    1    1    2    0    0 -0.10018695911E+02  0.19000804729E+02  0.42357153623E+02  0.47492455308E+02  0.00000000000E+00 0. -1.
         11    1    1    2    0    0 -0.12582355785E+02 -0.13316831114E+02 -0.42053062114E+02  0.45870619150E+02  0.00000000000E+00 0.  1.
</event>
<event>
 7    1  0.2490079E-009  0.7213771E+02  0.7561462E-02  0.1352971E+00
          2   -1    0    0  501    0  0.00000000000E+00  0.00000000000E+00  0.48670025587E+03  0.48670025587E+03  0.00000000000E+00 0. -1.
         -2   -1    0    0    0  501 -0.00000000000E+00 -0.00000000000E+00 -0.25186561183E+02  0.25186561183E+02  0.00000000000E+00 0.  1.
         25    2    1    2    0    0 -0.20451435791E+02  0.12694306307E+02  0.27139733050E+03  0.29980632090E+03  0.12509161608E+03 0.  0.
          5    1    3    3  502    0  0.15986076322E+02  0.12485172850E+02  0.26081105001E+03  0.26163201331E+03  0.41800000000E+01 0. -1.
         -5    1    3    3    0  502 -0.36437512113E+02  0.20913345692E+00  0.10586280482E+02  0.38174307593E+02  0.41800000000E+01 0. -1.
        -11    1    1    2    0    0  0.25693823457E+02 -0.46259531417E+02  0.15237317237E+03  0.16130003245E+03  0.00000000000E+00 0. -1.
         11    1    1    2    0    0 -0.52423876659E+01  0.33565225110E+02  0.37743191825E+02  0.50780463707E+02  0.00000000000E+00 0.  1.
</event>
<event>
 7    1  0.2490079E-009  0.8720672E+02  0.7561462E-02  0.1309761E+00
         -3   -1    0    0    0  501 -0.00000000000E+00  0.00000000000E+00  0.34436633136E+03  0.34436633136E+03  0.00000000000E+00 0.  1.
          3   -1    0    0  501    0  0.00000000000E+00 -0.00000000000E+00 -0.42384973640E+02  0.42384973640E+02  0.00000000000E+00 0. -1.
         25    2    1    2    0    0 -0.32517842174E+02  0.34485945226E+02  0.20722466313E+03  0.24665024990E+03  0.12509034450E+03 0.  0.
          5    1    3    3  502    0  0.11327001921E+02  0.66986789220E+02  0.64431205785E+02  0.93725042445E+02  0.41800000000E+01 0. -1.
         -5    1    3    3    0  502 -0.43844844096E+02 -0.32500843994E+02  0.14279345735E+03  0.15292520745E+03  0.41800000000E+01 0. -1.
        -11    1    1    2    0    0  0.17860850625E+02 -0.47867373724E+01 -0.16028640724E+02  0.24471210905E+02  0.00000000000E+00 0. -1.
         11    1    1    2    0    0  0.14656991550E+02 -0.29699207854E+02  0.11078533532E+03  0.11562984420E+03  0.00000000000E+00 0.  1.
</event>
<event>
 7    1  0.2490079E-009  0.2359609E+03  0.7561462E-02  0.1122513E+00
          2   -1    0    0  501    0  0.00000000000E+00  0.00000000000E+00  0.81169187647E+03  0.81169187647E+03  0.00000000000E+00 0. -1.
         -2   -1    0    0    0  501 -0.00000000000E+00 -0.00000000000E+00 -0.10058277215E+03  0.10058277215E+03  0.00000000000E+00 0.  1.
         25    2    1    2    0    0  0.10499151298E+01  0.23568570157E+03  0.55288605315E+03  0.61390435718E+03  0.12508684881E+03 0.  0.
          5    1    3    3  502    0 -0.27606338943E+01  0.83158777972E+02  0.35136063976E+03  0.36110216701E+03  0.41800000000E+01 0. -1.
         -5    1    3    3    0  502  0.38105490241E+01  0.15252692360E+03  0.20152541339E+03  0.25280219016E+03  0.41800000000E+01 0. -1.
        -11    1    1    2    0    0  0.51651024630E+01 -0.76977433606E+02  0.44203215673E+01  0.77277052291E+02  0.00000000000E+00 0.  1.
         11    1    1    2    0    0 -0.62150175928E+01 -0.15870826797E+03  0.15380272961E+03  0.22109323915E+03  0.00000000000E+00 0. -1.
</event>
<event>
 7    1  0.2490079E-009  0.1524129E+03  0.7561462E-02  0.1197539E+00
         -2   -1    0    0    0  501 -0.00000000000E+00  0.00000000000E+00  0.13094356543E+03  0.13094356543E+03  0.00000000000E+00 0.  1.
          2   -1    0    0  501    0  0.00000000000E+00 -0.00000000000E+00 -0.28835746556E+03  0.28835746556E+03  0.00000000000E+00 0. -1.
         25    2    1    2    0    0  0.11152596712E+03  0.88376736812E+02  0.20060409974E+00  0.18946191714E+03  0.12508912364E+03 0.  0.
          5    1    3    3  502    0  0.13092976926E+02  0.93893059023E+01 -0.50662992729E+02  0.53327257030E+02  0.41800000000E+01 0. -1.
         -5    1    3    3    0  502  0.98432990197E+02  0.78987430910E+02  0.50863596828E+02  0.13613466011E+03  0.41800000000E+01 0. -1.
        -11    1    1    2    0    0 -0.64361768668E+02 -0.30778514830E+01 -0.92081243416E+02  0.11238712482E+03  0.00000000000E+00 0. -1.
         11    1    1    2    0    0 -0.47164198456E+02 -0.85298885329E+02 -0.65533260810E+02  0.11745198903E+03  0.00000000000E+00 0.  1.
</event>
<event>
 7    1  0.2490079E-009  0.1550769E+03  0.7561462E-02  0.1194370E+00
          3   -1    0    0  501    0  0.00000000000E+00  0.00000000000E+00  0.36204954704E+02  0.36204954704E+02  0.00000000000E+00 0. -1.
         -3   -1    0    0    0  501 -0.00000000000E+00 -0.00000000000E+00 -0.74061726812E+03  0.74061726812E+03  0.00000000000E+00 0.  1.
         25    2    1    2    0    0  0.65154589179E+02  0.92871881240E+02 -0.47051995077E+03  0.49990858787E+03  0.12509702371E+03 0.  0.
          5    1    3    3  502    0  0.10198398831E+03  0.78995428204E+02 -0.34866123397E+03  0.37178372748E+03  0.41800000000E+01 0.  1.
         -5    1    3    3    0  502 -0.36829399133E+02  0.13876453036E+02 -0.12185871680E+03  0.12812486039E+03  0.41800000000E+01 0.  1.
        -11    1    1    2    0    0 -0.82218998459E+02 -0.52170773746E+02 -0.19554202791E+03  0.21844550355E+03  0.00000000000E+00 0.  1.
         11    1    1    2    0    0  0.17064409280E+02 -0.40701107495E+02 -0.38350334734E+02  0.58468131401E+02  0.00000000000E+00 0. -1.
</event>
<event>
 7    1  0.2490079E-009  0.1097745E+03  0.7561462E-02  0.1260988E+00
          1   -1    0    0  501    0  0.00000000000E+00  0.00000000000E+00  0.26045823113E+03  0.26045823113E+03  0.00000000000E+00 0. -1.
         -1   -1    0    0    0  501 -0.00000000000E+00 -0.00000000000E+00 -0.58546867483E+02  0.58546867483E+02  0.00000000000E+00 0.  1.
         25    2    1    2    0    0 -0.37833163615E+00  0.68546431070E+02  0.14305339583E+03  0.20201565429E+03  0.12508914491E+03 0.  0.
          5    1    3    3  502    0 -0.56783525041E+02  0.63755735633E+02  0.93275386324E+02  0.12651850709E+03  0.41800000000E+01 0.  1.
         -5    1    3    3    0  502  0.56405193405E+02  0.47906954378E+01  0.49778009507E+02  0.75497147206E+02  0.41800000000E+01 0.  1.
        -11    1    1    2    0    0  0.17859348672E+02 -0.28815904200E+02 -0.10217764907E+02  0.35407843616E+02  0.00000000000E+00 0.  1.
         11    1    1    2    0    0 -0.17481017035E+02 -0.39730526870E+02  0.69075732721E+02  0.81581600701E+02  0.00000000000E+00 0. -1.
</event>
<event>
 7    1  0.2490079E-009  0.1518311E+03  0.7561462E-02  0.1198241E+00
          1   -1    0    0  501    0  0.00000000000E+00  0.00000000000E+00  0.11730494373E+03  0.11730494373E+03  0.00000000000E+00 0. -1.
         -1   -1    0    0    0  501 -0.00000000000E+00 -0.00000000000E+00 -0.24634826680E+03  0.24634826680E+03  0.00000000000E+00 0.  1.
         25    2    1    2    0    0 -0.63757610725E+02 -0.11128702932E+03 -0.38228148061E+02  0.18319008296E+03  0.12508948545E+03 0.  0.
          5    1    3    3  502    0 -0.41687678877E+02  0.14132498076E+01  0.28135726133E+02  0.50487140246E+02  0.41800000000E+01 0. -1.
         -5    1    3    3    0  502 -0.22069931848E+02 -0.11270027913E+03 -0.66363874193E+02  0.13270294272E+03  0.41800000000E+01 0. -1.
        -11    1    1    2    0    0  0.64792246911E+02  0.41312361068E+02 -0.16908955548E+02  0.78680742336E+02  0.00000000000E+00 0. -1.
         11    1    1    2    0    0 -0.10346361864E+01  0.69974668254E+02 -0.73906219461E+02  0.10178238524E+03  0.00000000000E+00 0.  1.
</event>
<event>
 7    1  0.2490079E-009  0.9289299E+02  0.7561462E-02  0.1295993E+00
          4   -1    0    0  501    0  0.00000000000E+00  0.00000000000E+00  0.28174970169E+03  0.28174970169E+03  0.00000000000E+00 0. -1.
         -4   -1    0    0    0  501 -0.00000000000E+00 -0.00000000000E+00 -0.51940572697E+02  0.51940572697E+02  0.00000000000E+00 0.  1.
         25    2    1    2    0    0  0.62027245739E+01 -0.21784591557E+02  0.69978563679E+02  0.14511089786E+03  0.12508849300E+03 0.  0.
          5    1    3    3  502    0  0.36000127737E+02 -0.64758057207E+02  0.34926893800E+02  0.82018141169E+02  0.41800000000E+01 0. -1.
         -5    1    3    3    0  502 -0.29797403163E+02  0.42973465650E+02  0.35051669879E+02  0.63092756688E+02  0.41800000000E+01 0. -1.
        -11    1    1    2    0    0  0.17956961731E+02 -0.89164315324E+01 -0.37516223240E+01  0.20396810926E+02  0.00000000000E+00 0.  1.
         11    1    1    2    0    0 -0.24159686305E+02  0.30701023089E+02  0.16358218764E+03  0.16818256561E+03  0.00000000000E+00 0. -1.
</event>
<event>
 7    1  0.2490079E-009  0.9789349E+02  0.7561462E-02  0.1284789E+00
          2   -1    0    0  501    0  0.00000000000E+00  0.00000000000E+00  0.97824670314E+02  0.97824670314E+02  0.00000000000E+00 0. -1.
         -2   -1    0    0    0  501 -0.00000000000E+00 -0.00000000000E+00 -0.15733783586E+03  0.15733783586E+03  0.00000000000E+00 0.  1.
         25    2    1    2    0    0  0.23677333273E+02 -0.48830757781E+02 -0.61063342239E+02  0.14940187116E+03  0.12508848198E+03 0.  0.
          5    1    3    3  502    0  0.15964111734E+02  0.23995893683E+02  0.23525590891E+02  0.37437702972E+02  0.41800000000E+01 0. -1.
         -5    1    3    3    0  502  0.77132215389E+01 -0.72826651463E+02 -0.84588933130E+02  0.11196416819E+03  0.41800000000E+01 0. -1.
        -11    1    1    2    0    0  0.20167865214E+02 -0.78584460439E+01  0.22373947619E+02  0.31130234397E+02  0.00000000000E+00 0. -1.
         11    1    1    2    0    0 -0.43845198487E+02  0.56689203825E+02 -0.20823770925E+02  0.74630400616E+02  0.00000000000E+00 0.  1.
</event>
<event>
 7    1  0.2490079E-009  0.1012589E+03  0.7561462E-02  0.1277671E+00
         -1   -1    0    0    0  501 -0.00000000000E+00  0.00000000000E+00  0.49873686595E+03  0.49873686595E+03  0.00000000000E+00 0.  1.
          1   -1    0    0  501    0  0.00000000000E+00 -0.00000000000E+00 -0.42474770911E+02  0.42474770911E+02  0.00000000000E+00 0. -1.
         25    2    1    2    0    0  0.52150876173E+02 -0.74148529376E+02  0.14477665656E+03  0.21172165013E+03  0.12509220022E+03 0.  0.
          5    1    3    3  502    0  0.42516831165E+02 -0.31574013133E+02  0.15737328114E+03  0.16609762568E+03  0.41800000000E+01 0.  1.
         -5    1    3    3    0  502  0.96340450080E+01 -0.42574516244E+02 -0.12596624582E+02  0.45624024455E+02  0.41800000000E+01 0.  1.
        -11    1    1    2    0    0 -0.41284510550E+02  0.12774962130E+02  0.15873763020E+03  0.16451518383E+03  0.00000000000E+00 0.  1.
         11    1    1    2    0    0 -0.10866365622E+02  0.61373567247E+02  0.15274780828E+03  0.16497480290E+03  0.00000000000E+00 0. -1.
</event>
<event>
 7    1  0.2490079E-009  0.3930432E+03  0.7561462E-02  0.1046216E+00
          2   -1    0    0  501    0  0.00000000000E+00  0.00000000000E+00  0.19495884832E+04  0.19495884832E+04  0.00000000000E+00 0. -1.
         -2   -1    0    0    0  501 -0.00000000000E+00 -0.00000000000E+00 -0.87110793339E+02  0.87110793339E+02  0.00000000000E+00 0.  1.
         25    2    1    2    0    0 -0.16316430919E+03 -0.34814711787E+03  0.11890410313E+04  0.12559048769E+04  0.12509787427E+03 0.  0.
          5    1    3    3  502    0 -0.15694102561E+03 -0.35170652559E+03  0.10813606671E+04  0.11479051923E+04  0.41800000000E+01 0.  1.
         -5    1    3    3    0  502 -0.62232835842E+01  0.35594077139E+01  0.10768036418E+03  0.10799968459E+03  0.41800000000E+01 0.  1.
        -11    1    1    2    0    0  0.46814228939E+02  0.19361963051E+03  0.38538102414E+03  0.43381870305E+03  0.00000000000E+00 0. -1.
         11    1    1    2    0    0  0.11635008025E+03  0.15452748736E+03  0.28805563444E+03  0.34697569664E+03  0.00000000000E+00 0.  1.
</event>
<event>
 7    1  0.2490079E-009  0.1130934E+03  0.7561462E-02  0.1254946E+00
          2   -1    0    0  501    0  0.00000000000E+00  0.00000000000E+00  0.63265023760E+02  0.63265023760E+02  0.00000000000E+00 0. -1.
         -2   -1    0    0    0  501 -0.00000000000E+00 -0.00000000000E+00 -0.25927227422E+03  0.25927227422E+03  0.00000000000E+00 0.  1.
         25    2    1    2    0    0  0.36645611071E+02 -0.47880125956E+02 -0.15607748120E+03  0.20890888112E+03  0.12508930089E+03 0.  0.
          5    1    3    3  502    0 -0.45881896880E+02 -0.16301197575E+02 -0.70854317655E+02  0.86073713955E+02  0.41800000000E+01 0. -1.
         -5    1    3    3    0  502  0.82527507952E+02 -0.31578928381E+02 -0.85223163548E+02  0.12283516716E+03  0.41800000000E+01 0. -1.
        -11    1    1    2    0    0 -0.50110061632E+02  0.13448158737E+02 -0.53235185782E+02  0.74336103311E+02  0.00000000000E+00 0.  1.
         11    1    1    2    0    0  0.13464450561E+02  0.34431967219E+02  0.13305416524E+02  0.39292313553E+02  0.00000000000E+00 0. -1.
</event>
<event>
 7    1  0.2490079E-009  0.1290456E+03  0.7561462E-02  0.1228879E+00
         -2   -1    0    0    0  501 -0.00000000000E+00  0.00000000000E+00  0.73963941134E+02  0.73963941134E+02  0.00000000000E+00 0.  1.
          2   -1    0    0  501    0  0.00000000000E+00 -0.00000000000E+00 -0.33466157030E+03  0.33466157030E+03  0.00000000000E+00 0. -1.
         25    2    1    2    0    0 -0.67795159922E+01  0.11107188395E+03 -0.10478840825E+03  0.19750703538E+03  0.12508194627E+03 0.  0.
          5    1    3    3  502    0 -0.26364058660E+02  0.66875680506E+02 -0.12554777861E+03  0.14473125905E+03  0.41800000000E+01 0. -1.
         -5    1    3    3    0  502  0.19584542668E+02  0.44196203441E+02  0.20759370359E+02  0.52775776336E+02  0.41800000000E+01 0. -1.
        -11    1    1    2    0    0 -0.35907657439E+02 -0.68136494264E+02 -0.59714778732E+02  0.97456639140E+02  0.00000000000E+00 0.  1.
         11    1    1    2    0    0  0.42687173431E+02 -0.42935389683E+02 -0.96194442185E+02  0.11366183691E+03  0.00000000000E+00 0. -1.
</event>
<event>
 7    1  0.2490079E-009  0.1151335E+03  0.7561462E-02  0.1251348E+00
          1   -1    0    0  501    0  0.00000000000E+00  0.00000000000E+00  0.22348410288E+03  0.22348410288E+03  0.00000000000E+00 0. -1.
         -1   -1    0    0    0  501 -0.00000000000E+00 -0.00000000000E+00 -0.82568084140E+02  0.82568084140E+02  0.00000000000E+00 0.  1.
         25    2    1    2    0    0  0.32908831594E+02  0.30070253936E+02  0.10889388595E+03  0.17173273974E+03  0.12508814545E+03 0.  0.
          5    1    3    3  502    0 -0.35141102669E+02  0.16228515943E+01  0.88147424296E+02  0.94999850284E+02  0.41800000000E+01 0.  1.
         -5    1    3    3    0  502  0.68049934263E+02  0.28447402342E+02  0.20746461655E+02  0.76732889457E+02  0.41800000000E+01 0.  1.
        -11    1    1    2    0    0 -0.64582306058E+02  0.14594254034E+02 -0.77234518153E+01  0.66659719580E+02  0.00000000000E+00 0.  1.
         11    1    1    2    0    0  0.31673474464E+02 -0.44664507970E+02  0.39745584606E+02  0.67659727700E+02  0.00000000000E+00 0. -1.
</event>
<event>
 7    1  0.2490079E-009  0.1356406E+03  0.7561462E-02  0.1219318E+00
         -3   -1    0    0    0  501 -0.00000000000E+00  0.00000000000E+00  0.50219268623E+02  0.50219268623E+02  0.00000000000E+00 0.  1.
          3   -1    0    0  501    0  0.00000000000E+00 -0.00000000000E+00 -0.39677462635E+03  0.39677462635E+03  0.00000000000E+00 0. -1.
         25    2    1    2    0    0 -0.27301904376E+02 -0.83550340571E+02 -0.16828297540E+03  0.22736371081E+03  0.12509613819E+03 0.  0.
          5    1    3    3  502    0 -0.25340185416E+02  0.28602345954E+02 -0.60938257654E+02  0.72049724752E+02  0.41800000000E+01 0. -1.
         -5    1    3    3    0  502 -0.19617189603E+01 -0.11215268652E+03 -0.10734471775E+03  0.15531398605E+03  0.41800000000E+01 0. -1.
        -11    1    1    2    0    0  0.56820278612E+02  0.47969479056E+02 -0.70972903463E+02  0.10279478590E+03  0.00000000000E+00 0.  1.
         11    1    1    2    0    0 -0.29518374235E+02  0.35580861514E+02 -0.10729947886E+03  0.11683539826E+03  0.00000000000E+00 0. -1.
</event>
<event>
 7    1  0.2490079E-009  0.8562410E+02  0.7561462E-02  0.1313808E+00
         -2   -1    0    0    0  501 -0.00000000000E+00  0.00000000000E+00  0.49716221856E+02  0.49716221856E+02  0.00000000000E+00 0.  1.
          2   -1    0    0  501    0  0.00000000000E+00 -0.00000000000E+00 -0.30852263212E+03  0.30852263212E+03  0.00000000000E+00 0. -1.
         25    2    1    2    0    0 -0.45929122916E+02 -0.12586088092E+02 -0.90116755684E+02  0.16135689120E+03  0.12508845965E+03 0.  0.
          5    1    3    3  502    0  0.14600144260E+02 -0.11728627066E+02  0.24828038160E+02  0.31378795135E+02  0.41800000000E+01 0.  1.
         -5    1    3    3    0  502 -0.60529267176E+02 -0.85746102602E+00 -0.11494479384E+03  0.12997809606E+03  0.41800000000E+01 0.  1.
        -11    1    1    2    0    0 -0.17192138693E+02 -0.14694181954E+02 -0.11635563782E+02  0.25433736664E+02  0.00000000000E+00 0.  1.
         11    1    1    2    0    0  0.63121261609E+02  0.27280270046E+02 -0.15705409079E+03  0.17144822611E+03  0.00000000000E+00 0. -1.
</event>
<event>
 7    1  0.3037112E-009  0.8495094E+02  0.7561462E-02  0.1315561E+00
          1   -1    0    0  501    0  0.00000000000E+00  0.00000000000E+00  0.86729806201E+03  0.86729806201E+03  0.00000000000E+00 0. -1.
         -1   -1    0    0    0  501 -0.00000000000E+00 -0.00000000000E+00 -0.17742301267E+02  0.17742301267E+02  0.00000000000E+00 0.  1.
         25    2    1    2    0    0 -0.10747610034E+01  0.48988113171E+02  0.35062897514E+03  0.37548422135E+03  0.12508689752E+03 0.  0.
          5    1    3    3  502    0 -0.15837217538E+02  0.49099226176E+02  0.42496462267E+02  0.66969942329E+02  0.41800000000E+01 0.  1.
         -5    1    3    3    0  502  0.14762456535E+02 -0.11111300485E+00  0.30813251287E+03  0.30851427902E+03  0.41800000000E+01 0.  1.
        -11    1    1    2    0    0  0.16390727924E+02  0.23533026524E+02  0.16799407157E+03  0.17042437437E+03  0.00000000000E+00 0.  1.
         11    1    1    2    0    0 -0.15315966921E+02 -0.72521139695E+02  0.33093271404E+03  0.33913176756E+03  0.00000000000E+00 0. -1.
</event>
<event>
 7    1  0.2490079E-009  0.1264124E+03  0.7561462E-02  0.1232878E+00
         -2   -1    0    0    0  501 -0.00000000000E+00  0.00000000000E+00  0.52133189117E+02  0.52133189117E+02  0.00000000000E+00 0.  1.
          2   -1    0    0  501    0  0.00000000000E+00 -0.00000000000E+00 -0.69774812611E+03  0.69774812611E+03  0.00000000000E+00 0. -1.
         25    2    1    2    0    0  0.46464370955E+01 -0.11056573120E+03 -0.55793497714E+03  0.58239570167E+03  0.12508774642E+03 0.  0.
          5    1    3    3  502    0  0.13457270049E+02  0.55812804301E-01 -0.31463247238E+03  0.31494787872E+03  0.41800000000E+01 0. -1.
         -5    1    3    3    0  502 -0.88108329531E+01 -0.11062154401E+03 -0.24330250476E+03  0.26744782295E+03  0.41800000000E+01 0. -1.
        -11    1    1    2    0    0 -0.32387715077E+02  0.80514900142E+02 -0.91863355781E+02  0.12637440155E+03  0.00000000000E+00 0. -1.
         11    1    1    2    0    0  0.27741277982E+02  0.30050831062E+02  0.41833959256E+01  0.41111212012E+02  0.00000000000E+00 0.  1.
</event>
<event>
 7    1  0.2490079E-009  0.1492040E+03  0.7561462E-02  0.1201455E+00
         -2   -1    0    0    0  501 -0.00000000000E+00  0.00000000000E+00  0.44777489390E+02  0.44777489390E+02  0.00000000000E+00 0.  1.
          2   -1    0    0  501    0  0.00000000000E+00 -0.00000000000E+00 -0.74679353605E+03  0.74679353605E+03  0.00000000000E+00 0. -1.
         25    2    1    2    0    0  0.13266418437E+03 -0.60627366469E+02 -0.32039931393E+03  0.37360252328E+03  0.12509061376E+03 0.  0.
          5    1    3    3  502    0  0.64976409931E+02 -0.76433978019E+01 -0.26081557629E+03  0.26892860132E+03  0.41800000000E+01 0. -1.
         -5    1    3    3    0  502  0.67687774444E+02 -0.52983968667E+02 -0.59583737645E+02  0.10467392195E+03  0.41800000000E+01 0. -1.
        -11    1    1    2    0    0 -0.56649322837E+02  0.34910485716E+02 -0.71653639440E+02  0.97786153600E+02  0.00000000000E+00 0.  1.
         11    1    1    2    0    0 -0.76014861537E+02  0.25716880752E+02 -0.30996309329E+03  0.32018234856E+03  0.00000000000E+00 0. -1.
</event>
<event>
 7    1  0.2903332E-009  0.9623042E+02  0.7561462E-02  0.1288429E+00
         -2   -1    0    0    0  501 -0.00000000000E+00  0.00000000000E+00  0.23135099859E+02  0.23135099859E+02  0.00000000000E+00 0.  1.
          2   -1    0    0  501    0  0.00000000000E+00 -0.00000000000E+00 -0.74457177844E+03  0.74457177844E+03  0.00000000000E+00 0. -1.
         25    2    1    2    0    0  0.33921371745E+02  0.64896781708E+02 -0.41812367332E+03  0.44253555068E+03  0.12509218877E+03 0.  0.
          5    1    3    3  502    0  0.77659881324E+00 -0.21656320761E+02 -0.10414266522E+02  0.24403456350E+02  0.41800000000E+01 0. -1.
         -5    1    3    3    0  502  0.33144772932E+02  0.86553102469E+02 -0.40770940679E+03  0.41813209433E+03  0.41800000000E+01 0. -1.
        -11    1    1    2    0    0  0.19417150952E+01 -0.20272393042E+02 -0.44126297828E+01  0.20837741690E+02  0.00000000000E+00 0.  1.
         11    1    1    2    0    0 -0.35863086840E+02 -0.44624388667E+02 -0.29890037549E+03  0.30433358593E+03  0.00000000000E+00 0. -1.
</event>
<event>
 7    1  0.2490079E-009  0.8947970E+02  0.7561462E-02  0.1304117E+00
          1   -1    0    0  501    0  0.00000000000E+00  0.00000000000E+00  0.61487403099E+02  0.61487403099E+02  0.00000000000E+00 0. -1.
         -1   -1    0    0    0  501 -0.00000000000E+00 -0.00000000000E+00 -0.19011023957E+03  0.19011023957E+03  0.00000000000E+00 0.  1.
         25    2    1    2    0    0  0.36484371663E+01 -0.45847579670E+01 -0.86720497208E+02  0.15232450612E+03  0.12509188395E+03 0.  0.
          5    1    3    3  502    0 -0.34942597828E+02 -0.42468274273E+02 -0.65671484940E+01  0.55544030301E+02  0.41800000000E+01 0. -1.
         -5    1    3    3    0  502  0.38591034995E+02  0.37883516306E+02 -0.80153348714E+02  0.96780475819E+02  0.41800000000E+01 0. -1.
        -11    1    1    2    0    0  0.18466644962E+02  0.30402255147E+02  0.10251016466E+02  0.37018879410E+02  0.00000000000E+00 0. -1.
         11    1    1    2    0    0 -0.22115082129E+02 -0.25817497180E+02 -0.52153355734E+02  0.62254257144E+02  0.00000000000E+00 0.  1.
</event>
<event>
 7    1  0.2490079E-009  0.1034647E+03  0.7561462E-02  0.1273174E+00
          3   -1    0    0  501    0  0.00000000000E+00  0.00000000000E+00  0.45678230098E+02  0.45678230098E+02  0.00000000000E+00 0. -1.
         -3   -1    0    0    0  501 -0.00000000000E+00 -0.00000000000E+00 -0.41911220476E+03  0.41911220476E+03  0.00000000000E+00 0.  1.
         25    2    1    2    0    0 -0.59351970480E+02 -0.27412796571E+02 -0.11301282624E+03  0.18081376972E+03  0.12509037776E+03 0.  0.
          5    1    3    3  502    0 -0.53717027236E+02  0.30058784813E+02 -0.97997814059E+01  0.62470454418E+02  0.41800000000E+01 0.  1.
         -5    1    3    3    0  502 -0.56349432439E+01 -0.57471581384E+02 -0.10321304483E+03  0.11834331530E+03  0.41800000000E+01 0.  1.
        -11    1    1    2    0    0 -0.10012706115E+02  0.13133561666E+02 -0.27397398333E+01  0.16740695928E+02  0.00000000000E+00 0. -1.
         11    1    1    2    0    0  0.69364676596E+02  0.14279234905E+02 -0.25768140859E+03  0.26723596921E+03  0.00000000000E+00 0.  1.
</event>
<event>
 7    1  0.2490079E-009  0.4031307E+03  0.7561462E-02  0.1042701E+00
         -1   -1    0    0    0  501 -0.00000000000E+00  0.00000000000E+00  0.55228583726E+03  0.55228583726E+03  0.00000000000E+00 0.  1.
          1   -1    0    0  501    0  0.00000000000E+00 -0.00000000000E+00 -0.35542054710E+03  0.35542054710E+03  0.00000000000E+00 0. -1.
         25    2    1    2    0    0  0.16084535834E+03 -0.36793288584E+03 -0.56371598911E+02  0.42434708935E+03  0.12508739865E+03 0.  0.
          5    1    3    3  502    0  0.20078428747E+02 -0.69733953560E+02 -0.60452951008E+02  0.94540992515E+02  0.41800000000E+01 0. -1.
         -5    1    3    3    0  502  0.14076692959E+03 -0.29819893227E+03  0.40813520968E+01  0.32980609684E+03  0.41800000000E+01 0. -1.
        -11    1    1    2    0    0 -0.12984898596E+03  0.24821239311E+03  0.21744517892E+03  0.35461606998E+03  0.00000000000E+00 0.  1.
         11    1    1    2    0    0 -0.30996372374E+02  0.11972049272E+03  0.35791710148E+02  0.12874322504E+03  0.00000000000E+00 0. -1.
</event>
<event>
 7    1  0.2490079E-009  0.1266865E+03  0.7561462E-02  0.1232457E+00
         -2   -1    0    0    0  501 -0.00000000000E+00  0.00000000000E+00  0.10006536055E+03  0.10006536055E+03  0.00000000000E+00 0.  1.
          2   -1    0    0  501    0  0.00000000000E+00 -0.00000000000E+00 -0.16788748647E+03  0.16788748647E+03  0.00000000000E+00 0. -1.
         25    2    1    2    0    0 -0.25901958640E+02  0.64096279278E+02 -0.62586470118E+02  0.15602174260E+03  0.12508586429E+03 0.  0.
          5    1    3    3  502    0 -0.72744450443E+02  0.62180497560E+02 -0.39807729552E+02  0.10373185181E+03  0.41800000000E+01 0. -1.
         -5    1    3    3    0  502  0.46842491803E+02  0.19157817177E+01 -0.22778740566E+02  0.52289890798E+02  0.41800000000E+01 0. -1.
        -11    1    1    2    0    0  0.57820549940E+02 -0.45488833055E+02 -0.11483497467E+02  0.74460195018E+02  0.00000000000E+00 0. -1.
         11    1    1    2    0    0 -0.31918591299E+02 -0.18607446223E+02  0.62478416697E+01  0.37470909397E+02  0.00000000000E+00 0.  1.
</event>
<event>
 7    1  0.2490079E-009  0.3752572E+03  0.7561462E-02  0.1052701E+00
         -2   -1    0    0    0  501 -0.00000000000E+00  0.00000000000E+00  0.16433994338E+03  0.16433994338E+03  0.00000000000E+00 0. -1.
          2   -1    0    0  501    0  0.00000000000E+00 -0.00000000000E+00 -0.98183964958E+03  0.98183964958E+03  0.00000000000E+00 0.  1.
         25    2    1    2    0    0 -0.35379614021E+03 -0.82584365304E+02 -0.22400024292E+03  0.44476399765E+03  0.12508804325E+03 0.  0.
          5    1    3    3  502    0 -0.34050566711E+03 -0.50358134083E+02 -0.17994400067E+03  0.38842935880E+03  0.41800000000E+01 0.  1.
         -5    1    3    3    0  502 -0.13290473100E+02 -0.32226231221E+02 -0.44056242246E+02  0.56334638854E+02  0.41800000000E+01 0.  1.
        -11    1    1    2    0    0  0.10219792007E+03 -0.10875204091E+02 -0.20357989168E+03  0.22805143548E+03  0.00000000000E+00 0.  1.
         11    1    1    2    0    0  0.25159822014E+03  0.93459569395E+02 -0.38991957161E+03  0.47336415983E+03  0.00000000000E+00 0. -1.
</event>
<event>
 7    1  0.2490079E-009  0.1029104E+03  0.7561462E-02  0.1274292E+00
          2   -1    0    0  501    0  0.00000000000E+00  0.00000000000E+00  0.39393658444E+03  0.39393658444E+03  0.00000000000E+00 0. -1.
         -2   -1    0    0    0  501 -0.00000000000E+00 -0.00000000000E+00 -0.40464567130E+02  0.40464567130E+02  0.00000000000E+00 0.  1.
         25    2    1    2    0    0 -0.53972247281E+02  0.36313826292E+02  0.21424067044E+03  0.25647212894E+03  0.12508873088E+03 0.  0.
          5    1    3    3  502    0  0.40233136252E+02  0.22701904984E+01  0.68348154414E+02  0.79453141091E+02  0.41800000000E+01 0.  1.
         -5    1    3    3    0  502 -0.94205383533E+02  0.34043635793E+02  0.14589251603E+03  0.17701898785E+03  0.41800000000E+01 0.  1.
        -11    1    1    2    0    0  0.13238277975E+02 -0.90821611048E+01 -0.11294500888E+02  0.19629146807E+02  0.00000000000E+00 0.  1.
         11    1    1    2    0    0  0.40733969306E+02 -0.27231665187E+02  0.15052584775E+03  0.15829987582E+03  0.00000000000E+00 0. -1.
</event>
<event>
 7    1  0.2490079E-009  0.1091138E+03  0.7561462E-02  0.1262220E+00
          2   -1    0    0  501    0  0.00000000000E+00  0.00000000000E+00  0.18583923540E+03  0.18583923540E+03  0.00000000000E+00 0. -1.
         -2   -1    0    0    0  501 -0.00000000000E+00 -0.00000000000E+00 -0.13822230087E+03  0.13822230087E+03  0.00000000000E+00 0.  1.
         25    2    1    2    0    0  0.22577110990E+02  0.46529761339E+02 -0.81165219315E+02  0.15782928854E+03  0.12509015495E+03 0.  0.
          5    1    3    3  502    0  0.58139149414E+01 -0.37997937099E+02 -0.55827412684E+02  0.67910361784E+02  0.41800000000E+01 0.  1.
         -5    1    3    3    0  502  0.16763196048E+02  0.84527698438E+02 -0.25337806631E+02  0.89918926761E+02  0.41800000000E+01 0.  1.
        -11    1    1    2    0    0 -0.30194734478E+02  0.13284766803E+02  0.12557570321E+02  0.35297302893E+02  0.00000000000E+00 0.  1.
         11    1    1    2    0    0  0.76176234882E+01 -0.59814528142E+02  0.11622458352E+03  0.13093494483E+03  0.00000000000E+00 0. -1.
</event>
<event>
 7    1  0.2490079E-009  0.9805608E+02  0.7561462E-02  0.1284438E+00
         -1   -1    0    0    0  501 -0.00000000000E+00  0.00000000000E+00  0.33132535382E+03  0.33132535382E+03  0.00000000000E+00 0.  1.
          1   -1    0    0  501    0  0.00000000000E+00 -0.00000000000E+00 -0.86394460349E+02  0.86394460349E+02  0.00000000000E+00 0. -1.
         25    2    1    2    0    0  0.40860990927E+02  0.35955855971E+02  0.27394076354E+03  0.30602970451E+03  0.12509274141E+03 0.  0.
          5    1    3    3  502    0  0.57071684032E+02 -0.98945151858E+01  0.49392644720E+02  0.76237682949E+02  0.41800000000E+01 0. -1.
         -5    1    3    3    0  502 -0.16210693105E+02  0.45850371157E+02  0.22454811882E+03  0.22979202156E+03  0.41800000000E+01 0. -1.
        -11    1    1    2    0    0 -0.25757317042E+01  0.20694029562E+02 -0.37382422517E+02  0.42805639425E+02  0.00000000000E+00 0. -1.
         11    1    1    2    0    0 -0.38285259223E+02 -0.56649885533E+02  0.83725524419E+01  0.68884470232E+02  0.00000000000E+00 0.  1.
</event>
<event>
 7    1  0.2490079E-009  0.1351284E+03  0.7561462E-02  0.1220039E+00
          1   -1    0    0  501    0  0.00000000000E+00  0.00000000000E+00  0.27476074548E+03  0.27476074548E+03  0.00000000000E+00 0. -1.
         -1   -1    0    0    0  501 -0.00000000000E+00 -0.00000000000E+00 -0.85768031017E+02  0.85768031017E+02  0.00000000000E+00 0.  1.
         25    2    1    2    0    0 -0.10603264251E+03 -0.31647481178E+01  0.12569824983E+03  0.20664234596E+03  0.12509225486E+03 0.  0.
          5    1    3    3  502    0  0.25948513911E+02 -0.16715368446E+02  0.20765515832E+02  0.37435383854E+02  0.41800000000E+01 0.  1.
         -5    1    3    3    0  502 -0.13198115642E+03  0.13550620328E+02  0.10493273400E+03  0.16920696211E+03  0.41800000000E+01 0.  1.
        -11    1    1    2    0    0  0.49775177328E+02  0.53927911027E+01  0.80688335826E+02  0.94959243954E+02  0.00000000000E+00 0. -1.
         11    1    1    2    0    0  0.56257465178E+02 -0.22280429850E+01 -0.17393871193E+02  0.58927186585E+02  0.00000000000E+00 0.  1.
</event>
<event>
 7    1  0.2490079E-009  0.1205166E+03  0.7561462E-02  0.1242247E+00
         -1   -1    0    0    0  501 -0.00000000000E+00  0.00000000000E+00  0.14397975291E+03  0.14397975291E+03  0.00000000000E+00 0.  1.
          1   -1    0    0  501    0  0.00000000000E+00 -0.00000000000E+00 -0.10411381675E+03  0.10411381675E+03  0.00000000000E+00 0. -1.
         25    2    1    2    0    0 -0.37627939903E+02 -0.42739259438E+02  0.91178378991E+01  0.13775163320E+03  0.12509944573E+03 0.  0.
          5    1    3    3  502    0 -0.69668128112E+02 -0.65917790197E+02 -0.34025109167E+01  0.96061712558E+02  0.41800000000E+01 0.  1.
         -5    1    3    3    0  502  0.32040188208E+02  0.23178530759E+02  0.12520348816E+02  0.41689920641E+02  0.41800000000E+01 0.  1.
        -11    1    1    2    0    0  0.14142067960E+02  0.68768621638E+02  0.14446674852E+02  0.71678642722E+02  0.00000000000E+00 0.  1.
         11    1    1    2    0    0  0.23485871943E+02 -0.26029362200E+02  0.16301423411E+02  0.38663293739E+02  0.00000000000E+00 0. -1.
</event>
<event>
 7    1  0.3262994E-009  0.1910401E+03  0.7561462E-02  0.1157527E+00
          3   -1    0    0  501    0  0.00000000000E+00  0.00000000000E+00  0.10489127536E+04  0.10489127536E+04  0.00000000000E+00 0.  1.
         -3   -1    0    0    0  501 -0.00000000000E+00 -0.00000000000E+00 -0.44006055191E+02  0.44006055191E+02  0.00000000000E+00 0. -1.
         25    2    1    2    0    0 -0.67261439248E+02 -0.17042109747E+03  0.58891871880E+03  0.62931822102E+03  0.12509482117E+03 0.  0.
          5    1    3    3  502    0 -0.19164524491E+02 -0.13847806153E+03  0.25891190061E+03  0.29427248802E+03  0.41800000000E+01 0.  1.
         -5    1    3    3    0  502 -0.48096914757E+02 -0.31943035936E+02  0.33000681819E+03  0.33504573300E+03  0.41800000000E+01 0.  1.
        -11    1    1    2    0    0  0.12675193528E+02  0.57859929005E+02  0.24302395899E+03  0.25013811497E+03  0.00000000000E+00 0.  1.
         11    1    1    2    0    0  0.54586245720E+02  0.11256116846E+03  0.17296402062E+03  0.21346247280E+03  0.00000000000E+00 0. -1.
</event>
<event>
 7    1  0.2490079E-009  0.1050470E+03  0.7561462E-02  0.1270027E+00
          4   -1    0    0  501    0  0.00000000000E+00  0.00000000000E+00  0.19448360996E+02  0.19448360996E+02  0.00000000000E+00 0. -1.
         -4   -1    0    0    0  501 -0.00000000000E+00 -0.00000000000E+00 -0.10723233574E+04  0.10723233574E+04  0.00000000000E+00 0.  1.
         25    2    1    2    0    0  0.45264159417E+02  0.20460935932E+01 -0.88195299665E+03  0.89193163476E+03  0.12509165504E+03 0.  0.
          5    1    3    3  502    0  0.84359675304E+02  0.12611970162E+02 -0.44755055228E+03  0.45562548859E+03  0.41800000000E+01 0. -1.
         -5    1    3    3    0  502 -0.39095515887E+02 -0.10565876569E+02 -0.43440244437E+03  0.43630614617E+03  0.41800000000E+01 0. -1.
        -11    1    1    2    0    0  0.13320135624E+02  0.17705787840E+02 -0.11289878582E+03  0.11505240882E+03  0.00000000000E+00 0.  1.
         11    1    1    2    0    0 -0.58584295041E+02 -0.19751881434E+02 -0.58023213946E+02  0.84787674825E+02  0.00000000000E+00 0. -1.
</event>
<event>
 7    1  0.2490079E-009  0.1182120E+03  0.7561462E-02  0.1246076E+00
          2   -1    0    0  501    0  0.00000000000E+00  0.00000000000E+00  0.49204706452E+03  0.49204706452E+03  0.00000000000E+00 0. -1.
         -2   -1    0    0    0  501 -0.00000000000E+00 -0.00000000000E+00 -0.32917999388E+02  0.32917999388E+02  0.00000000000E+00 0.  1.
         25    2    1    2    0    0 -0.50577766398E+02  0.43099300801E+02  0.25082333519E+03  0.28805501769E+03  0.12509071733E+03 0.  0.
          5    1    3    3  502    0  0.34904037958E+02  0.13315235904E+02  0.13968944109E+03  0.14465890822E+03  0.41800000000E+01 0. -1.
         -5    1    3    3    0  502 -0.85481804356E+02  0.29784064897E+02  0.11113389409E+03  0.14339610948E+03  0.41800000000E+01 0. -1.
        -11    1    1    2    0    0  0.70176825839E+02 -0.11619270543E+02  0.16632189550E+03  0.18089435385E+03  0.00000000000E+00 0. -1.
         11    1    1    2    0    0 -0.19599059441E+02 -0.31480030258E+02  0.41983834449E+02  0.56015692365E+02  0.00000000000E+00 0.  1.
</event>
<event>
 7    1  0.2490079E-009  0.5610944E+02  0.7561462E-02  0.1414924E+00
         -3   -1    0    0    0  501 -0.00000000000E+00  0.00000000000E+00  0.11245545647E+04  0.11245545647E+04  0.00000000000E+00 0.  1.
          3   -1    0    0  501    0  0.00000000000E+00 -0.00000000000E+00 -0.11507428382E+02  0.11507428382E+02  0.00000000000E+00 0. -1.
         25    2    1    2    0    0  0.10874941651E+02 -0.11371493738E+02  0.78296875716E+03  0.79305522768E+03  0.12509574023E+03 0.  0.
          5    1    3    3  502    0 -0.56391794364E+01 -0.38779950179E+01 -0.16735817134E+01  0.81922198351E+01  0.41800000000E+01 0. -1.
         -5    1    3    3    0  502  0.16514121087E+02 -0.74934987201E+01  0.78464233888E+03  0.78486300784E+03  0.41800000000E+01 0. -1.
        -11    1    1    2    0    0 -0.42589052465E+02  0.26801692024E+02  0.25678713550E+03  0.26167115057E+03  0.00000000000E+00 0.  1.
         11    1    1    2    0    0  0.31714110814E+02 -0.15430198286E+02  0.73291243675E+02  0.81335614851E+02  0.00000000000E+00 0. -1.
</event>
<event>
 7    1  0.2490079E-009  0.1033625E+03  0.7561462E-02  0.1273380E+00
         -1   -1    0    0    0  501 -0.00000000000E+00  0.00000000000E+00  0.45244391057E+02  0.45244391057E+02  0.00000000000E+00 0.  1.
          1   -1    0    0  501    0  0.00000000000E+00 -0.00000000000E+00 -0.38336798455E+03  0.38336798455E+03  0.00000000000E+00 0. -1.
         25    2    1    2    0    0 -0.61216865340E+02  0.25044764679E+02 -0.24274172392E+03  0.28096999008E+03  0.12508335602E+03 0.  0.
          5    1    3    3  502    0  0.36370687891E+02  0.49726298911E+01 -0.36749882730E+02  0.52111229753E+02  0.41800000000E+01 0. -1.
         -5    1    3    3    0  502 -0.97587553232E+02  0.20072134788E+02 -0.20599184119E+03  0.22885876032E+03  0.41800000000E+01 0. -1.
        -11    1    1    2    0    0  0.52542609539E+02 -0.11200169517E+02 -0.29782321217E+01  0.53805571096E+02  0.00000000000E+00 0.  1.
         11    1    1    2    0    0  0.86742558016E+01 -0.13844595162E+02 -0.92403637453E+02  0.93836814436E+02  0.00000000000E+00 0. -1.
</event>
<event>
 7    1  0.2490079E-009  0.1667251E+03  0.7561462E-02  0.1181307E+00
         -1   -1    0    0    0  501 -0.00000000000E+00  0.00000000000E+00  0.74736114048E+02  0.74736114048E+02  0.00000000000E+00 0.  1.
          1   -1    0    0  501    0  0.00000000000E+00 -0.00000000000E+00 -0.52866868442E+03  0.52866868442E+03  0.00000000000E+00 0. -1.
         25    2    1    2    0    0 -0.57809915353E+02 -0.14210273491E+03 -0.33453496659E+03  0.38871677422E+03  0.12510760611E+03 0.  0.
          5    1    3    3  502    0 -0.33882799003E+02 -0.55423995281E+02 -0.30970594810E+02  0.72086846678E+02  0.41800000000E+01 0.  1.
         -5    1    3    3    0  502 -0.23927116350E+02 -0.86678739632E+02 -0.30356437178E+03  0.31662992754E+03  0.41800000000E+01 0.  1.
        -11    1    1    2    0    0  0.60556630083E+01  0.12303310654E+03 -0.79361914915E+02  0.14653371591E+03  0.00000000000E+00 0.  1.
         11    1    1    2    0    0  0.51754252344E+02  0.19069628373E+02 -0.40035688866E+02  0.68154308338E+02  0.00000000000E+00 0. -1.
</event>
<event>
 7    1  0.2490079E-009  0.1515469E+03  0.7561462E-02  0.1198585E+00
          2   -1    0    0  501    0  0.00000000000E+00  0.00000000000E+00  0.22217083350E+03  0.22217083350E+03  0.00000000000E+00 0. -1.
         -2   -1    0    0    0  501 -0.00000000000E+00 -0.00000000000E+00 -0.14444508375E+03  0.14444508375E+03  0.00000000000E+00 0.  1.
         25    2    1    2    0    0 -0.62097274849E+02 -0.12121712715E+03  0.69042352114E+02  0.19739419459E+03  0.12509179915E+03 0.  0.
          5    1    3    3  502    0 -0.46576403755E+02 -0.13391778432E+03  0.18740143585E+02  0.14308039602E+03  0.41800000000E+01 0. -1.
         -5    1    3    3    0  502 -0.15520871094E+02  0.12700657168E+02  0.50302208529E+02  0.54313798569E+02  0.41800000000E+01 0. -1.
        -11    1    1    2    0    0 -0.89706886805E-01  0.32046073354E+02 -0.39028080531E+02  0.50499009244E+02  0.00000000000E+00 0.  1.
         11    1    1    2    0    0  0.62186981736E+02  0.89171053800E+02  0.47711478165E+02  0.11872271342E+03  0.00000000000E+00 0. -1.
</event>
<event>
 7    1  0.2490079E-009  0.1485015E+03  0.7561462E-02  0.1202327E+00
          2   -1    0    0  501    0  0.00000000000E+00  0.00000000000E+00  0.18199964084E+04  0.18199964084E+04  0.00000000000E+00 0. -1.
         -2   -1    0    0    0  501 -0.00000000000E+00 -0.00000000000E+00 -0.17147636004E+02  0.17147636004E+02  0.00000000000E+00 0.  1.
         25    2    1    2    0    0  0.10872916747E+03 -0.29305390565E+02  0.13665460082E+04  0.13768720080E+04  0.12509075137E+03 0.  0.
          5    1    3    3  502    0  0.30925866949E+01 -0.57744215118E+02  0.40927099764E+03  0.41335720676E+03  0.41800000000E+01 0.  1.
         -5    1    3    3    0  502  0.10563658078E+03  0.28438824552E+02  0.95727501057E+03  0.96351480124E+03  0.41800000000E+01 0.  1.
        -11    1    1    2    0    0 -0.45509709653E+02 -0.19668461183E+02  0.72812249100E+02  0.88088623880E+02  0.00000000000E+00 0.  1.
         11    1    1    2    0    0 -0.63219457821E+02  0.48973851749E+02  0.36349051505E+03  0.37218341249E+03  0.00000000000E+00 0. -1.
</event>
<event>
 7    1  0.2490079E-009  0.1733664E+03  0.7561462E-02  0.1174382E+00
         -1   -1    0    0    0  501 -0.00000000000E+00  0.00000000000E+00  0.10194162317E+03  0.10194162317E+03  0.00000000000E+00 0.  1.
          1   -1    0    0  501    0  0.00000000000E+00 -0.00000000000E+00 -0.32017544400E+03  0.32017544400E+03  0.00000000000E+00 0. -1.
         25    2    1    2    0    0  0.22763573956E+02 -0.14234035883E+03 -0.12082136100E+03  0.22588538425E+03  0.12508975774E+03 0.  0.
          5    1    3    3  502    0 -0.17748396332E+02 -0.14753730002E+03 -0.84085830336E+02  0.17079273911E+03  0.41800000000E+01 0.  1.
         -5    1    3    3    0  502  0.40511970288E+02  0.51969411978E+01 -0.36735530667E+02  0.55092645133E+02  0.41800000000E+01 0.  1.
        -11    1    1    2    0    0 -0.37547254106E+02  0.13571900043E+03 -0.55609057740E+02  0.15139950684E+03  0.00000000000E+00 0.  1.
         11    1    1    2    0    0  0.14783680150E+02  0.66213583926E+01 -0.41803402087E+02  0.44832176077E+02  0.00000000000E+00 0. -1.
</event>
<event>
 7    1  0.2792322E-009  0.1140406E+03  0.7561462E-02  0.1253265E+00
          1   -1    0    0  501    0  0.00000000000E+00  0.00000000000E+00  0.71127630066E+03  0.71127630066E+03  0.00000000000E+00 0. -1.
         -1   -1    0    0    0  501 -0.00000000000E+00 -0.00000000000E+00 -0.31959270725E+02  0.31959270725E+02  0.00000000000E+00 0.  1.
         25    2    1    2    0    0  0.17759679159E+01  0.84514528977E+02  0.21414003027E+03  0.26201150917E+03  0.12509284032E+03 0.  0.
          5    1    3    3  502    0  0.23232314188E+02 -0.11093683903E+02 -0.43429694860E+00  0.26085844033E+02  0.41800000000E+01 0.  1.
         -5    1    3    3    0  502 -0.21456346272E+02  0.95608212880E+02  0.21457432722E+03  0.23592566513E+03  0.41800000000E+01 0.  1.
        -11    1    1    2    0    0 -0.20176514574E+02 -0.30486392556E+01  0.21067144239E+02  0.29329345510E+02  0.00000000000E+00 0.  1.
         11    1    1    2    0    0  0.18400546658E+02 -0.81465889722E+02  0.44410985543E+03  0.45189471671E+03  0.00000000000E+00 0. -1.
</event>
<event>
 7    1  0.2490079E-009  0.8517939E+02  0.7561462E-02  0.1314964E+00
          1   -1    0    0  501    0  0.00000000000E+00  0.00000000000E+00  0.18750772545E+03  0.18750772545E+03  0.00000000000E+00 0. -1.
         -1   -1    0    0    0  501 -0.00000000000E+00 -0.00000000000E+00 -0.11528955387E+03  0.11528955387E+03  0.00000000000E+00 0.  1.
         25    2    1    2    0    0 -0.15827546475E+02 -0.56101891332E+02  0.12621666448E+03  0.18702118365E+03  0.12509333837E+03 0.  0.
          5    1    3    3  502    0  0.97126989378E+01 -0.55415787356E+02 -0.17690086453E+01  0.56443314932E+02  0.41800000000E+01 0. -1.
         -5    1    3    3    0  502 -0.25540245413E+02 -0.68610397588E+00  0.12798567312E+03  0.13057786872E+03  0.41800000000E+01 0. -1.
        -11    1    1    2    0    0 -0.24556984950E+02  0.34228264301E+02 -0.55676565085E+02  0.69817615876E+02  0.00000000000E+00 0.  1.
         11    1    1    2    0    0  0.40384531425E+02  0.21873627031E+02  0.16780721885E+01  0.45958479785E+02  0.00000000000E+00 0. -1.
</event>
<event>
 7    1  0.2490079E-009  0.1248632E+03  0.7561462E-02  0.1235283E+00
         -2   -1    0    0    0  501 -0.00000000000E+00  0.00000000000E+00  0.11915785761E+03  0.11915785761E+03  0.00000000000E+00 0.  1.
          2   -1    0    0  501    0  0.00000000000E+00 -0.00000000000E+00 -0.20148083497E+03  0.20148083497E+03  0.00000000000E+00 0. -1.
         25    2    1    2    0    0  0.38983928419E+02  0.68118403212E+02  0.35147806524E+02  0.15180050431E+03  0.12509261079E+03 0.  0.
          5    1    3    3  502    0 -0.37534730279E+02  0.56712201479E+02  0.29091403865E+02  0.74087191555E+02  0.41800000000E+01 0.  1.
         -5    1    3    3    0  502  0.76518658698E+02  0.11406201733E+02  0.60564026591E+01  0.77713312760E+02  0.41800000000E+01 0.  1.
        -11    1    1    2    0    0 -0.30576588307E+02  0.45906028507E+01 -0.58267390164E+00  0.30924761857E+02  0.00000000000E+00 0.  1.
         11    1    1    2    0    0 -0.84073401124E+01 -0.72709006063E+02 -0.11688810998E+03  0.13791342641E+03  0.00000000000E+00 0. -1.
</event>
<event>
 7    1  0.2490079E-009  0.1005112E+03  0.7561462E-02  0.1279225E+00
          1   -1    0    0  501    0  0.00000000000E+00  0.00000000000E+00  0.37269554548E+02  0.37269554548E+02  0.00000000000E+00 0. -1.
         -1   -1    0    0    0  501 -0.00000000000E+00 -0.00000000000E+00 -0.47111715431E+03  0.47111715431E+03  0.00000000000E+00 0.  1.
         25    2    1    2    0    0  0.24094369960E+02 -0.13887052279E+02 -0.10375143608E+03  0.16487539037E+03  0.12508455130E+03 0.  0.
          5    1    3    3  502    0  0.19935828749E+02 -0.60343355964E+02 -0.99120347622E+02  0.11781796803E+03  0.41800000000E+01 0.  1.
         -5    1    3    3    0  502  0.41585412113E+01  0.46456303685E+02 -0.46310884609E+01  0.47057422341E+02  0.41800000000E+01 0.  1.
        -11    1    1    2    0    0 -0.52733946684E+02  0.26725321290E+02 -0.16064442535E+03  0.17117751992E+03  0.00000000000E+00 0.  1.
         11    1    1    2    0    0  0.28639576724E+02 -0.12838269011E+02 -0.16945173833E+03  0.17233379857E+03  0.00000000000E+00 0. -1.
</event>
<event>
 7    1  0.2490079E-009  0.1030110E+03  0.7561462E-02  0.1274089E+00
         -2   -1    0    0    0  501 -0.00000000000E+00  0.00000000000E+00  0.15197045136E+02  0.15197045136E+02  0.00000000000E+00 0. -1.
          2   -1    0    0  501    0  0.00000000000E+00 -0.00000000000E+00 -0.12175975324E+04  0.12175975324E+04  0.00000000000E+00 0.  1.
         25    2    1    2    0    0  0.90585916620E+01 -0.23504064043E+02 -0.10169153036E+04  0.10248920520E+04  0.12510989011E+03 0.  0.
          5    1    3    3  502    0 -0.52325012287E+02  0.14332367851E+01 -0.27186547228E+03  0.27689035465E+03  0.41800000000E+01 0. -1.
         -5    1    3    3    0  502  0.61383603949E+02 -0.24937300828E+02 -0.74504983128E+03  0.74800169739E+03  0.41800000000E+01 0. -1.
        -11    1    1    2    0    0  0.35788754679E+02  0.22481960646E+02 -0.51585780894E+02  0.66688577030E+02  0.00000000000E+00 0.  1.
         11    1    1    2    0    0 -0.44847346341E+02  0.10221033975E+01 -0.13389940279E+03  0.14121394845E+03  0.00000000000E+00 0. -1.
</event>
<event>
 7    1  0.2490079E-009  0.9159805E+02  0.7561462E-02  0.1299027E+00
         -1   -1    0    0    0  501 -0.00000000000E+00  0.00000000000E+00  0.59623579341E+02  0.59623579341E+02  0.00000000000E+00 0.  1.
          1   -1    0    0  501    0  0.00000000000E+00 -0.00000000000E+00 -0.31436438348E+03  0.31436438348E+03  0.00000000000E+00 0. -1.
         25    2    1    2    0    0 -0.67863084873E+02  0.43986644749E+02 -0.99929860514E+02  0.17936563863E+03  0.12508330062E+03 0.  0.
          5    1    3    3  502    0 -0.54247921135E+02  0.31145240094E+02  0.13664243785E+02  0.64164218114E+02  0.41800000000E+01 0. -1.
         -5    1    3    3    0  502 -0.13615163739E+02  0.12841404655E+02 -0.11359410430E+03  0.11520142051E+03  0.41800000000E+01 0. -1.
        -11    1    1    2    0    0  0.78209586072E+02 -0.29637927683E+02 -0.73293083371E+02  0.11120711390E+03  0.00000000000E+00 0.  1.
         11    1    1    2    0    0 -0.10346501199E+02 -0.14348717066E+02 -0.81517860254E+02  0.83415210297E+02  0.00000000000E+00 0. -1.
</event>
<event>
 7    1  0.2490079E-009  0.9995748E+02  0.7561462E-02  0.1280385E+00
         -1   -1    0    0    0  501 -0.00000000000E+00  0.00000000000E+00  0.22643033232E+03  0.22643033232E+03  0.00000000000E+00 0. -1.
          1   -1    0    0  501    0  0.00000000000E+00 -0.00000000000E+00 -0.80714090863E+02  0.80714090863E+02  0.00000000000E+00 0.  1.
         25    2    1    2    0    0 -0.68393373648E+02 -0.11643160549E+02  0.10164675568E+03  0.17547933013E+03  0.12509082946E+03 0.  0.
          5    1    3    3  502    0  0.18705609781E+01  0.12187184283E+02  0.10031334342E+03  0.10115466240E+03  0.41800000000E+01 0. -1.
         -5    1    3    3    0  502 -0.70263934626E+02 -0.23830344832E+02  0.13334122670E+01  0.74324667723E+02  0.41800000000E+01 0. -1.
        -11    1    1    2    0    0 -0.56324300708E+01 -0.28034128175E+02 -0.11647705104E+02  0.30875648094E+02  0.00000000000E+00 0.  1.
         11    1    1    2    0    0  0.74025803718E+02  0.39677288724E+02  0.55717190884E+02  0.10078944497E+03  0.00000000000E+00 0. -1.
</event>
<event>
 7    1  0.2490079E-009  0.1287589E+03  0.7561462E-02  0.1229309E+00
          1   -1    0    0  501    0  0.00000000000E+00  0.00000000000E+00  0.11107669826E+03  0.11107669826E+03  0.00000000000E+00 0. -1.
         -1   -1    0    0    0  501 -0.00000000000E+00 -0.00000000000E+00 -0.22138467550E+03  0.22138467550E+03  0.00000000000E+00 0.  1.
         25    2    1    2    0    0 -0.36580599801E+02  0.71251094356E+02 -0.14458339621E+03  0.20728189768E+03  0.12508624192E+03 0.  0.
          5    1    3    3  502    0 -0.78751711181E+02  0.52634084850E+02 -0.12532234883E+03  0.15714751802E+03  0.41800000000E+01 0.  1.
         -5    1    3    3    0  502  0.42171111380E+02  0.18617009506E+02 -0.19261047375E+02  0.50134379661E+02  0.41800000000E+01 0.  1.
        -11    1    1    2    0    0  0.56348529985E+02 -0.17278008915E+02  0.13828506263E+01  0.58954208496E+02  0.00000000000E+00 0.  1.
         11    1    1    2    0    0 -0.19767930184E+02 -0.53973085442E+02  0.32892568336E+02  0.66225267592E+02  0.00000000000E+00 0. -1.
</event>
<event>
 7    1  0.2490079E-009  0.1382306E+03  0.7561462E-02  0.1215730E+00
         -1   -1    0    0    0  501 -0.00000000000E+00  0.00000000000E+00  0.55024160303E+02  0.55024160303E+02  0.00000000000E+00 0.  1.
          1   -1    0    0  501    0  0.00000000000E+00 -0.00000000000E+00 -0.42472635267E+03  0.42472635267E+03  0.00000000000E+00 0. -1.
         25    2    1    2    0    0 -0.11456603055E+02  0.10170288552E+03 -0.24821755356E+03  0.29619842763E+03  0.12508726538E+03 0.  0.
          5    1    3    3  502    0 -0.32302336626E+02  0.12152569621E+03 -0.22920152941E+03  0.26146271105E+03  0.41800000000E+01 0.  1.
         -5    1    3    3    0  502  0.20845733570E+02 -0.19822810687E+02 -0.19016024150E+02  0.34735716577E+02  0.41800000000E+01 0.  1.
        -11    1    1    2    0    0  0.51399947995E+01  0.91770057323E+01 -0.50865426183E+02  0.51941587977E+02  0.00000000000E+00 0. -1.
         11    1    1    2    0    0  0.63166082560E+01 -0.11087989125E+03 -0.70619212625E+02  0.13161049736E+03  0.00000000000E+00 0.  1.
</event>
<event>
 7    1  0.2490079E-009  0.1480296E+03  0.7561462E-02  0.1202915E+00
         -2   -1    0    0    0  501 -0.00000000000E+00  0.00000000000E+00  0.41329922851E+02  0.41329922851E+02  0.00000000000E+00 0.  1.
          2   -1    0    0  501    0  0.00000000000E+00 -0.00000000000E+00 -0.65876066569E+03  0.65876066569E+03  0.00000000000E+00 0. -1.
         25    2    1    2    0    0  0.11181272157E+03  0.55259138908E+02 -0.37198389931E+03  0.41179443293E+03  0.12508787516E+03 0.  0.
          5    1    3    3  502    0  0.10441604220E+03  0.73997027990E+02 -0.36951629383E+03  0.39107292648E+03  0.41800000000E+01 0.  1.
         -5    1    3    3    0  502  0.73966793620E+01 -0.18737889083E+02 -0.24676054801E+01  0.20721506453E+02  0.41800000000E+01 0.  1.
        -11    1    1    2    0    0 -0.66109125632E+02  0.10927374922E+02 -0.80154695382E+02  0.10447295921E+03  0.00000000000E+00 0.  1.
         11    1    1    2    0    0 -0.45703595934E+02 -0.66186513830E+02 -0.16529214814E+03  0.18382319639E+03  0.00000000000E+00 0. -1.
</event>
<event>
 7    1  0.2490079E-009  0.8470392E+02  0.7561462E-02  0.1316209E+00
         -1   -1    0    0    0  501 -0.00000000000E+00  0.00000000000E+00  0.65090440735E+02  0.65090440735E+02  0.00000000000E+00 0.  1.
          1   -1    0    0  501    0  0.00000000000E+00 -0.00000000000E+00 -0.23214005066E+03  0.23214005066E+03  0.00000000000E+00 0. -1.
         25    2    1    2    0    0 -0.15514381694E+02  0.34516498392E+02 -0.39180776603E+02  0.13643988254E+03  0.12509445868E+03 0.  0.
          5    1    3    3  502    0  0.20109141482E+02  0.44549526923E+02 -0.71781225947E+02  0.86942824423E+02  0.41800000000E+01 0. -1.
         -5    1    3    3    0  502 -0.35623523177E+02 -0.10033028531E+02  0.32600449344E+02  0.49497058119E+02  0.41800000000E+01 0. -1.
        -11    1    1    2    0    0 -0.29473031788E+02 -0.67350553616E+01 -0.10401688026E+02  0.31972107958E+02  0.00000000000E+00 0.  1.
         11    1    1    2    0    0  0.44987413482E+02 -0.27781443031E+02 -0.11746714530E+03  0.12881850090E+03  0.00000000000E+00 0. -1.
</event>
<event>
 7    1  0.2490079E-009  0.8313920E+02  0.7561462E-02  0.1320372E+00
          1   -1    0    0  501    0  0.00000000000E+00  0.00000000000E+00  0.32220316872E+03  0.32220316872E+03  0.00000000000E+00 0. -1.
         -1   -1    0    0    0  501 -0.00000000000E+00 -0.00000000000E+00 -0.40725374421E+02  0.40725374421E+02  0.00000000000E+00 0.  1.
         25    2    1    2    0    0  0.31992432073E+02  0.23732011156E+02  0.15483973292E+03  0.20300152571E+03  0.12509017742E+03 0.  0.
          5    1    3    3  502    0  0.57579395445E+02 -0.16861736693E+02  0.14036463344E+03  0.15270693392E+03  0.41800000000E+01 0. -1.
         -5    1    3    3    0  502 -0.25586963372E+02  0.40593747849E+02  0.14475099476E+02  0.50294591795E+02  0.41800000000E+01 0. -1.
        -11    1    1    2    0    0 -0.30842065095E+02 -0.34995526760E+02  0.13691078491E+03  0.14463914718E+03  0.00000000000E+00 0. -1.
         11    1    1    2    0    0 -0.11503669777E+01  0.11263515604E+02 -0.10272723531E+02  0.15287870247E+02  0.00000000000E+00 0.  1.
</event>
<event>
 7    1  0.2490079E-009  0.1099228E+03  0.7561462E-02  0.1260713E+00
         -2   -1    0    0    0  501 -0.00000000000E+00  0.00000000000E+00  0.16527540974E+02  0.16527540974E+02  0.00000000000E+00 0. -1.
          2   -1    0    0  501    0  0.00000000000E+00 -0.00000000000E+00 -0.81837091905E+03  0.81837091905E+03  0.00000000000E+00 0.  1.
         25    2    1    2    0    0 -0.42958975023E+02 -0.52175144189E+01 -0.58292977125E+03  0.59776868698E+03  0.12509032310E+03 0.  0.
          5    1    3    3  502    0 -0.56704289039E+02  0.49283029076E+02 -0.36441438386E+03  0.37210147663E+03  0.41800000000E+01 0.  1.
         -5    1    3    3    0  502  0.13745314016E+02 -0.54500543495E+02 -0.21851538739E+03  0.22566721035E+03  0.41800000000E+01 0.  1.
        -11    1    1    2    0    0 -0.17119305126E+02  0.20042896979E+02 -0.40808847987E+02  0.48581379163E+02  0.00000000000E+00 0. -1.
         11    1    1    2    0    0  0.60078280149E+02 -0.14825382560E+02 -0.17810475883E+03  0.18854839388E+03  0.00000000000E+00 0.  1.
</event>
<event>
 7    1  0.2490079E-009  0.9338244E+02  0.7561462E-02  0.1294861E+00
         -1   -1    0    0    0  501 -0.00000000000E+00  0.00000000000E+00  0.34514219487E+02  0.34514219487E+02  0.00000000000E+00 0.  1.
          1   -1    0    0  501    0  0.00000000000E+00 -0.00000000000E+00 -0.44947938872E+03  0.44947938872E+03  0.00000000000E+00 0. -1.
         25    2    1    2    0    0 -0.84142762888E+01 -0.46528044691E+02 -0.28376600844E+03  0.31369793620E+03  0.12509032193E+03 0.  0.
          5    1    3    3  502    0 -0.38110042688E+02 -0.20429580982E+02 -0.21564809089E+02  0.48500067256E+02  0.41800000000E+01 0.  1.
         -5    1    3    3    0  502  0.29695766399E+02 -0.26098463709E+02 -0.26220119936E+03  0.26519786895E+03  0.41800000000E+01 0.  1.
        -11    1    1    2    0    0  0.43971309156E+02  0.51441062406E+02 -0.10834382659E+03  0.12774209835E+03  0.00000000000E+00 0.  1.
         11    1    1    2    0    0 -0.35557032868E+02 -0.49130177150E+01 -0.22855334195E+02  0.42553573653E+02  0.00000000000E+00 0. -1.
</event>
<event>
 7    1  0.2490079E-009  0.8271377E+02  0.7561462E-02  0.1321522E+00
          1   -1    0    0  501    0  0.00000000000E+00  0.00000000000E+00  0.92806243540E+03  0.92806243540E+03  0.00000000000E+00 0. -1.
         -1   -1    0    0    0  501 -0.00000000000E+00 -0.00000000000E+00 -0.17265120312E+02  0.17265120312E+02  0.00000000000E+00 0.  1.
         25    2    1    2    0    0 -0.27830023720E+02  0.12662778521E+02  0.73444777402E+03  0.74565350631E+03  0.12510300769E+03 0.  0.
          5    1    3    3  502    0  0.16572296544E+02  0.29804358204E+02  0.62840858891E+03  0.62934709644E+03  0.41800000000E+01 0.  1.
         -5    1    3    3    0  502 -0.44402320264E+02 -0.17141579684E+02  0.10603918511E+03  0.11630640987E+03  0.41800000000E+01 0.  1.
        -11    1    1    2    0    0  0.44932258104E+02  0.17821137223E+02  0.14455696479E+03  0.15242446266E+03  0.00000000000E+00 0. -1.
         11    1    1    2    0    0 -0.17102234384E+02 -0.30483915743E+02  0.31792576279E+02  0.47249586732E+02  0.00000000000E+00 0.  1.
</event>
<event>
 7    1  0.2490079E-009  0.1391655E+03  0.7561462E-02  0.1214456E+00
          2   -1    0    0  501    0  0.00000000000E+00  0.00000000000E+00  0.17975097587E+03  0.17975097587E+03  0.00000000000E+00 0. -1.
         -2   -1    0    0    0  501 -0.00000000000E+00 -0.00000000000E+00 -0.18380532192E+03  0.18380532192E+03  0.00000000000E+00 0.  1.
         25    2    1    2    0    0 -0.12438788089E+03  0.49667173146E+02 -0.58541103402E+02  0.19239128685E+03  0.12509265953E+03 0.  0.
          5    1    3    3  502    0 -0.71760240249E+02  0.33378084694E+02 -0.96861892835E+02  0.12515321531E+03  0.41800000000E+01 0. -1.
         -5    1    3    3    0  502 -0.52627640639E+02  0.16289088453E+02  0.38320789433E+02  0.67238071542E+02  0.41800000000E+01 0. -1.
        -11    1    1    2    0    0  0.58806861679E+02 -0.51575874295E+02  0.68617972476E+02  0.10405164072E+03  0.00000000000E+00 0. -1.
         11    1    1    2    0    0  0.65581019209E+02  0.19087011484E+01 -0.14131215124E+02  0.67113370214E+02  0.00000000000E+00 0.  1.
</event>
<event>
 7    1  0.2490079E-009  0.8979996E+02  0.7561462E-02  0.1303337E+00
          1   -1    0    0  501    0  0.00000000000E+00  0.00000000000E+00  0.96128183407E+02  0.96128183407E+02  0.00000000000E+00 0. -1.
         -1   -1    0    0    0  501 -0.00000000000E+00 -0.00000000000E+00 -0.19206958588E+03  0.19206958588E+03  0.00000000000E+00 0.  1.
         25    2    1    2    0    0 -0.13244482140E+02 -0.19718574591E+02  0.20117402203E+02  0.12890374795E+03  0.12508887989E+03 0.  0.
          5    1    3    3  502    0  0.19849533162E+02 -0.57177967509E+02  0.42401106324E+02  0.74017904271E+02  0.41800000000E+01 0. -1.
         -5    1    3    3    0  502 -0.33094015302E+02  0.37459392917E+02 -0.22283704121E+02  0.54885843675E+02  0.41800000000E+01 0. -1.
        -11    1    1    2    0    0  0.28367161246E+02  0.36470301138E+02 -0.12631852882E+03  0.13450334355E+03  0.00000000000E+00 0.  1.
         11    1    1    2    0    0 -0.15122679106E+02 -0.16751726547E+02  0.10259724149E+02  0.24790677789E+02  0.00000000000E+00 0. -1.
</event>
<event>
 7    1  0.2490079E-009  0.7783038E+02  0.7561462E-02  0.1335324E+00
          1   -1    0    0  501    0  0.00000000000E+00  0.00000000000E+00  0.16669594571E+03  0.16669594571E+03  0.00000000000E+00 0. -1.
         -1   -1    0    0    0  501 -0.00000000000E+00 -0.00000000000E+00 -0.86441151273E+02  0.86441151273E+02  0.00000000000E+00 0.  1.
         25    2    1    2    0    0 -0.14587011204E+02 -0.26984353083E+02  0.28154964256E+00  0.12879424860E+03  0.12508774119E+03 0.  0.
          5    1    3    3  502    0 -0.34537132952E+02 -0.80928361826E+01  0.56062214155E+02  0.66473692585E+02  0.41800000000E+01 0.  1.
         -5    1    3    3    0  502  0.19950121748E+02 -0.18891516900E+02 -0.55780664512E+02  0.62320556015E+02  0.41800000000E+01 0.  1.
        -11    1    1    2    0    0  0.29566506365E+02 -0.24583570143E+02  0.49225573424E+02  0.62463487724E+02  0.00000000000E+00 0. -1.
         11    1    1    2    0    0 -0.14979495161E+02  0.51567923226E+02  0.30747671371E+02  0.61879360661E+02  0.00000000000E+00 0.  1.
</event>
<event>
 7    1  0.2490079E-009  0.1387125E+03  0.7561462E-02  0.1215072E+00
         -2   -1    0    0    0  501 -0.00000000000E+00  0.00000000000E+00  0.15404460500E+02  0.15404460500E+02  0.00000000000E+00 0.  1.
          2   -1    0    0  501    0  0.00000000000E+00 -0.00000000000E+00 -0.12522303299E+04  0.12522303299E+04  0.00000000000E+00 0. -1.
         25    2    1    2    0    0  0.18869954817E+02 -0.85573145280E+02 -0.70276804593E+03  0.71917296170E+03  0.12509190249E+03 0.  0.
          5    1    3    3  502    0  0.64499357171E+02 -0.11761030516E+02 -0.28653440997E+03  0.29396926610E+03  0.41800000000E+01 0.  1.
         -5    1    3    3    0  502 -0.45629402353E+02 -0.73812114764E+02 -0.41623363596E+03  0.42520369560E+03  0.41800000000E+01 0.  1.
        -11    1    1    2    0    0 -0.15894005310E+02  0.10449502670E+03 -0.45552065859E+03  0.46762260469E+03  0.00000000000E+00 0.  1.
         11    1    1    2    0    0 -0.29759495070E+01 -0.18921881425E+02 -0.78537164843E+02  0.80839223980E+02  0.00000000000E+00 0. -1.
</event>
<event>
 7    1  0.2490079E-009  0.1195299E+03  0.7561462E-02  0.1243875E+00
         -1   -1    0    0    0  501 -0.00000000000E+00  0.00000000000E+00  0.38506640940E+03  0.38506640940E+03  0.00000000000E+00 0.  1.
          1   -1    0    0  501    0  0.00000000000E+00 -0.00000000000E+00 -0.46359863370E+02  0.46359863370E+02  0.00000000000E+00 0. -1.
         25    2    1    2    0    0 -0.72254949979E+02  0.11014407511E+02  0.24003493967E+03  0.28036501212E+03  0.12508266381E+03 0.  0.
          5    1    3    3  502    0 -0.92681598281E+02  0.46452038342E+02  0.17205786452E+03  0.20092051082E+03  0.41800000000E+01 0.  1.
         -5    1    3    3    0  502  0.20426648302E+02 -0.35437630830E+02  0.67977075153E+02  0.79444501295E+02  0.41800000000E+01 0.  1.
        -11    1    1    2    0    0  0.32227913482E+02  0.24652682486E+02  0.87281659371E+02  0.96252175163E+02  0.00000000000E+00 0.  1.
         11    1    1    2    0    0  0.40027036497E+02 -0.35667089997E+02  0.11389946984E+02  0.54809085487E+02  0.00000000000E+00 0. -1.
</event>
<event>
 7    1  0.2490079E-009  0.1386778E+03  0.7561462E-02  0.1215119E+00
          1   -1    0    0  501    0  0.00000000000E+00  0.00000000000E+00  0.89182376221E+02  0.89182376221E+02  0.00000000000E+00 0. -1.
         -1   -1    0    0    0  501 -0.00000000000E+00 -0.00000000000E+00 -0.27959345417E+03  0.27959345417E+03  0.00000000000E+00 0.  1.
         25    2    1    2    0    0 -0.11296330991E+03  0.36649971021E+01 -0.83220440598E+02  0.18800813241E+03  0.12508906639E+03 0.  0.
          5    1    3    3  502    0 -0.68993133461E+02  0.54964416273E+02 -0.10950998830E+02  0.88986157892E+02  0.41800000000E+01 0. -1.
         -5    1    3    3    0  502 -0.43970176454E+02 -0.51299419171E+02 -0.72269441769E+02  0.99021974522E+02  0.41800000000E+01 0. -1.
        -11    1    1    2    0    0  0.36969360780E+02 -0.22209966854E+02 -0.91260527649E+02  0.10093810069E+03  0.00000000000E+00 0.  1.
         11    1    1    2    0    0  0.75993949134E+02  0.18544969751E+02 -0.15930109702E+02  0.79829597288E+02  0.00000000000E+00 0. -1.
</event>
<event>
 7    1  0.2490079E-009  0.1154208E+03  0.7561462E-02  0.1250848E+00
          2   -1    0    0  501    0  0.00000000000E+00  0.00000000000E+00  0.13904134218E+03  0.13904134218E+03  0.00000000000E+00 0. -1.
         -2   -1    0    0    0  501 -0.00000000000E+00 -0.00000000000E+00 -0.11346961604E+03  0.11346961604E+03  0.00000000000E+00 0.  1.
         25    2    1    2    0    0  0.22210816702E+02  0.58486556400E+02  0.36910929983E+02  0.14464605418E+03  0.12508423794E+03 0.  0.
          5    1    3    3  502    0  0.10493606495E+02 -0.35741165482E+02 -0.97987088448E+01  0.38743177236E+02  0.41800000000E+01 0.  1.
         -5    1    3    3    0  502  0.11717210207E+02  0.94227721882E+02  0.46709638828E+02  0.10590287695E+03  0.41800000000E+01 0.  1.
        -11    1    1    2    0    0 -0.46428162961E+02 -0.57730225441E+02  0.11016218434E+02  0.74897999399E+02  0.00000000000E+00 0. -1.
         11    1    1    2    0    0  0.24217346259E+02 -0.75633095974E+00 -0.22355422280E+02  0.32966904642E+02  0.00000000000E+00 0.  1.
</event>
<event>
 7    1  0.2490079E-009  0.1093018E+03  0.7561462E-02  0.1261868E+00
          1   -1    0    0  501    0  0.00000000000E+00  0.00000000000E+00  0.51376718064E+03  0.51376718064E+03  0.00000000000E+00 0. -1.
         -1   -1    0    0    0  501 -0.00000000000E+00 -0.00000000000E+00 -0.44480725523E+02  0.44480725523E+02  0.00000000000E+00 0.  1.
         25    2    1    2    0    0  0.69216619812E+02 -0.15683443191E+02  0.40651308664E+03  0.43120282758E+03  0.12508428378E+03 0.  0.
          5    1    3    3  502    0 -0.21961838187E+02  0.33104985415E+02  0.99740396640E+02  0.10744245677E+03  0.41800000000E+01 0.  1.
         -5    1    3    3    0  502  0.91178457999E+02 -0.48788428606E+02  0.30677269000E+03  0.32376037080E+03  0.41800000000E+01 0.  1.
        -11    1    1    2    0    0 -0.15768129221E+02 -0.68062328594E+01  0.66747648781E+02  0.68921747821E+02  0.00000000000E+00 0. -1.
         11    1    1    2    0    0 -0.53448490590E+02  0.22489676050E+02 -0.39742803100E+01  0.58123330765E+02  0.00000000000E+00 0.  1.
</event>
<event>
 7    1  0.2490079E-009  0.1173177E+03  0.7561462E-02  0.1247589E+00
          1   -1    0    0  501    0  0.00000000000E+00  0.00000000000E+00  0.84737128247E+03  0.84737128247E+03  0.00000000000E+00 0. -1.
         -1   -1    0    0    0  501 -0.00000000000E+00 -0.00000000000E+00 -0.31457513230E+02  0.31457513230E+02  0.00000000000E+00 0.  1.
         25    2    1    2    0    0 -0.35702094531E+02  0.72933534189E+02  0.68469667132E+03  0.70075217022E+03  0.12510048918E+03 0.  0.
          5    1    3    3  502    0  0.59986902600E-01  0.10184663224E+03  0.50765086168E+03  0.51778336191E+03  0.41800000000E+01 0. -1.
         -5    1    3    3    0  502 -0.35762081434E+02 -0.28913098053E+02  0.17704580963E+03  0.18296880832E+03  0.41800000000E+01 0. -1.
        -11    1    1    2    0    0  0.35022249950E+02 -0.38350124033E+02  0.11140077386E+02  0.53116770695E+02  0.00000000000E+00 0.  1.
         11    1    1    2    0    0  0.67984458113E+00 -0.34583410156E+02  0.12007702054E+03  0.12495985478E+03  0.00000000000E+00 0. -1.
</event>
<event>
 7    1  0.2490079E-009  0.1127242E+03  0.7561462E-02  0.1255607E+00
         -3   -1    0    0    0  501 -0.00000000000E+00  0.00000000000E+00  0.12471127471E+04  0.12471127471E+04  0.00000000000E+00 0.  1.
          3   -1    0    0  501    0  0.00000000000E+00 -0.00000000000E+00 -0.19966049116E+02  0.19966049116E+02  0.00000000000E+00 0. -1.
         25    2    1    2    0    0 -0.10207921264E+03 -0.17585439673E+02  0.83268970699E+03  0.84838018450E+03  0.12508947194E+03 0.  0.
          5    1    3    3  502    0  0.35837154199E+01  0.10315363623E+02  0.45563945669E+03  0.45578946526E+03  0.41800000000E+01 0.  1.
         -5    1    3    3    0  502 -0.10566292806E+03 -0.27900803296E+02  0.37705025029E+03  0.39259071925E+03  0.41800000000E+01 0.  1.
        -11    1    1    2    0    0  0.68718708351E+02  0.56136228566E+01  0.36817154600E+03  0.37457183680E+03  0.00000000000E+00 0.  1.
         11    1    1    2    0    0  0.33360504289E+02  0.11971816816E+02  0.26285444959E+02  0.44126774877E+02  0.00000000000E+00 0. -1.
</event>
<event>
 7    1  0.2490079E-009  0.9870114E+02  0.7561462E-02  0.1283051E+00
          1   -1    0    0  501    0  0.00000000000E+00  0.00000000000E+00  0.14983071542E+03  0.14983071542E+03  0.00000000000E+00 0.  1.
         -1   -1    0    0    0  501 -0.00000000000E+00 -0.00000000000E+00 -0.79063309786E+02  0.79063309786E+02  0.00000000000E+00 0. -1.
         25    2    1    2    0    0  0.24163458379E+02 -0.13991260879E+02  0.32677071687E+02  0.13226708467E+03  0.12508861887E+03 0.  0.
          5    1    3    3  502    0 -0.50823536268E+02  0.32844826413E+01  0.13342686770E+02  0.52814007188E+02  0.41800000000E+01 0. -1.
         -5    1    3    3    0  502  0.74986994648E+02 -0.17275743520E+02  0.19334384916E+02  0.79453077477E+02  0.41800000000E+01 0. -1.
        -11    1    1    2    0    0 -0.44259361866E+02  0.19552023887E+02  0.52411682072E+02  0.71331319688E+02  0.00000000000E+00 0.  1.
         11    1    1    2    0    0  0.20095903487E+02 -0.55607630078E+01 -0.14321348125E+02  0.25295620852E+02  0.00000000000E+00 0. -1.
</event>
<event>
 7    1  0.2490079E-009  0.1106936E+03  0.7561462E-02  0.1259291E+00
          3   -1    0    0  501    0  0.00000000000E+00  0.00000000000E+00  0.27951951119E+03  0.27951951119E+03  0.00000000000E+00 0. -1.
         -3   -1    0    0    0  501 -0.00000000000E+00 -0.00000000000E+00 -0.26357390358E+03  0.26357390358E+03  0.00000000000E+00 0.  1.
         25    2    1    2    0    0 -0.13151186016E+02  0.65840994471E+02 -0.23107922624E+03  0.27120512273E+03  0.12508644829E+03 0.  0.
          5    1    3    3  502    0  0.25532790187E+02 -0.56775611098E+01 -0.30524088632E+00  0.26490066948E+02  0.41800000000E+01 0.  1.
         -5    1    3    3    0  502 -0.38683976203E+02  0.71518555581E+02 -0.23077398536E+03  0.24471505578E+03  0.41800000000E+01 0.  1.
        -11    1    1    2    0    0  0.18992856455E+02  0.19918922440E+02  0.55002569600E+02  0.61504265951E+02  0.00000000000E+00 0.  1.
         11    1    1    2    0    0 -0.58416704395E+01 -0.85759916912E+02  0.19202226426E+03  0.21038402609E+03  0.00000000000E+00 0. -1.
</event>
<event>
 7    1  0.2490079E-009  0.2674475E+03  0.7561462E-02  0.1102749E+00
          1   -1    0    0  501    0  0.00000000000E+00  0.00000000000E+00  0.10518894788E+04  0.10518894788E+04  0.00000000000E+00 0. -1.
         -1   -1    0    0    0  501 -0.00000000000E+00 -0.00000000000E+00 -0.69401599937E+02  0.69401599937E+02  0.00000000000E+00 0.  1.
         25    2    1    2    0    0  0.14979598071E+03  0.19612781686E+03  0.51059244697E+03  0.58073894937E+03  0.12509246190E+03 0.  0.
          5    1    3    3  502    0 -0.18707308035E+02  0.49612588804E+02  0.90545457026E+02  0.10501106861E+03  0.41800000000E+01 0.  1.
         -5    1    3    3    0  502  0.16850328875E+03  0.14651522806E+03  0.42004698995E+03  0.47572788076E+03  0.41800000000E+01 0.  1.
        -11    1    1    2    0    0 -0.13208254591E+03 -0.11436091697E+03  0.36628212563E+03  0.40581623159E+03  0.00000000000E+00 0.  1.
         11    1    1    2    0    0 -0.17713434803E+02 -0.81766899892E+02  0.10561330625E+03  0.13473589777E+03  0.00000000000E+00 0. -1.
</event>
<event>
 7    1  0.2490079E-009  0.1109901E+03  0.7561462E-02  0.1258747E+00
          2   -1    0    0  501    0  0.00000000000E+00  0.00000000000E+00  0.14557380922E+03  0.14557380922E+03  0.00000000000E+00 0. -1.
         -2   -1    0    0    0  501 -0.00000000000E+00 -0.00000000000E+00 -0.13057252869E+03  0.13057252869E+03  0.00000000000E+00 0.  1.
         25    2    1    2    0    0  0.74392495154E+02 -0.14585901769E+02 -0.29936865021E+02  0.14929964803E+03  0.12508867715E+03 0.  0.
          5    1    3    3  502    0  0.61444182114E+01  0.25895119381E+02  0.36747842841E+02  0.45565199839E+02  0.41800000000E+01 0. -1.
         -5    1    3    3    0  502  0.68248076942E+02 -0.40481021150E+02 -0.66684707863E+02  0.10373444820E+03  0.41800000000E+01 0. -1.
        -11    1    1    2    0    0 -0.30862335911E+01 -0.30865372695E+02  0.25318844363E+02  0.40040478884E+02  0.00000000000E+00 0. -1.
         11    1    1    2    0    0 -0.71306261562E+02  0.45451274464E+02  0.19619301187E+02  0.86806210996E+02  0.00000000000E+00 0.  1.
</event>
<event>
 7    1  0.2490079E-009  0.1001568E+03  0.7561462E-02  0.1279967E+00
          1   -1    0    0  501    0  0.00000000000E+00  0.00000000000E+00  0.16321921794E+03  0.16321921794E+03  0.00000000000E+00 0. -1.
         -1   -1    0    0    0  501 -0.00000000000E+00 -0.00000000000E+00 -0.10463817692E+03  0.10463817692E+03  0.00000000000E+00 0.  1.
         25    2    1    2    0    0 -0.76854039150E+00 -0.64400517166E+02  0.64932341644E+02  0.15495463682E+03  0.12508682271E+03 0.  0.
          5    1    3    3  502    0  0.41854347287E+02  0.15839769500E+02  0.32624426084E+01  0.45064405204E+02  0.41800000000E+01 0. -1.
         -5    1    3    3    0  502 -0.42622887679E+02 -0.80240286666E+02  0.61669899036E+02  0.10989023162E+03  0.41800000000E+01 0. -1.
        -11    1    1    2    0    0  0.76162174424E+00  0.23060627199E+02 -0.48596418092E+02  0.53795766059E+02  0.00000000000E+00 0.  1.
         11    1    1    2    0    0  0.69186472642E-02  0.41339889967E+02  0.42245117466E+02  0.59106991972E+02  0.00000000000E+00 0. -1.
</event>
<event>
 7    1  0.2490079E-009  0.2012641E+03  0.7561462E-02  0.1148677E+00
         -1   -1    0    0    0  501 -0.00000000000E+00  0.00000000000E+00  0.37103439581E+02  0.37103439581E+02  0.00000000000E+00 0.  1.
          1   -1    0    0  501    0  0.00000000000E+00 -0.00000000000E+00 -0.15583759018E+04  0.15583759018E+04  0.00000000000E+00 0. -1.
         25    2    1    2    0    0  0.18427388053E+03 -0.17350179010E+02 -0.11455235353E+04  0.11671031727E+04  0.12509098318E+03 0.  0.
          5    1    3    3  502    0  0.67472841155E+02 -0.57250441477E+02 -0.30671346186E+03  0.31925039926E+03  0.41800000000E+01 0. -1.
         -5    1    3    3    0  502  0.11680103937E+03  0.39900262467E+02 -0.83881007343E+03  0.84785277344E+03  0.41800000000E+01 0. -1.
        -11    1    1    2    0    0 -0.10933331912E+03  0.32342434040E+02 -0.14003061525E+03  0.18057790816E+03  0.00000000000E+00 0.  1.
         11    1    1    2    0    0 -0.74940561413E+02 -0.14992255030E+02 -0.23571831172E+03  0.24779826056E+03  0.00000000000E+00 0. -1.
</event>
<event>
 7    1  0.2490079E-009  0.1203920E+03  0.7561462E-02  0.1242452E+00
         -2   -1    0    0    0  501 -0.00000000000E+00  0.00000000000E+00  0.34725321846E+02  0.34725321846E+02  0.00000000000E+00 0.  1.
          2   -1    0    0  501    0  0.00000000000E+00 -0.00000000000E+00 -0.56992069293E+03  0.56992069293E+03  0.00000000000E+00 0. -1.
         25    2    1    2    0    0  0.39046941424E+02 -0.78022292261E+02 -0.25451986236E+03  0.29671544262E+03  0.12509017478E+03 0.  0.
          5    1    3    3  502    0  0.19045867382E+02  0.16226845764E+02 -0.90532241700E+00  0.25384002766E+02  0.41800000000E+01 0.  1.
         -5    1    3    3    0  502  0.20001074043E+02 -0.94249138024E+02 -0.25361453994E+03  0.27133143985E+03  0.41800000000E+01 0.  1.
        -11    1    1    2    0    0 -0.64090717871E+02  0.49219313145E+02 -0.13499853357E+03  0.15733647056E+03  0.00000000000E+00 0. -1.
         11    1    1    2    0    0  0.25043776447E+02  0.28802979115E+02 -0.14567697516E+03  0.15059410160E+03  0.00000000000E+00 0.  1.
</event>
<event>
 7    1  0.2490079E-009  0.9471019E+02  0.7561462E-02  0.1291830E+00
          2   -1    0    0  501    0  0.00000000000E+00  0.00000000000E+00  0.25586825865E+03  0.25586825865E+03  0.00000000000E+00 0. -1.
         -2   -1    0    0    0  501 -0.00000000000E+00 -0.00000000000E+00 -0.52927189675E+02  0.52927189675E+02  0.00000000000E+00 0.  1.
         25    2    1    2    0    0 -0.44441050417E+02 -0.11040639872E+02  0.91660626002E+02  0.16169598333E+03  0.12508804090E+03 0.  0.
          5    1    3    3  502    0 -0.69093849090E+01 -0.48687764052E+02  0.96260026566E+02  0.10817441048E+03  0.41800000000E+01 0.  1.
         -5    1    3    3    0  502 -0.37531665508E+02  0.37647124180E+02 -0.45994005645E+01  0.53521572850E+02  0.41800000000E+01 0.  1.
        -11    1    1    2    0    0  0.56835327357E+02  0.29866115922E+02  0.10603438558E+03  0.12395777604E+03  0.00000000000E+00 0. -1.
         11    1    1    2    0    0 -0.12394276941E+02 -0.18825476049E+02  0.52460573922E+01  0.23141688951E+02  0.00000000000E+00 0.  1.
</event>
<event>
 7    1  0.2490079E-009  0.1045880E+03  0.7561462E-02  0.1270933E+00
         -1   -1    0    0    0  501 -0.00000000000E+00  0.00000000000E+00  0.50549570004E+02  0.50549570004E+02  0.00000000000E+00 0.  1.
          1   -1    0    0  501    0  0.00000000000E+00 -0.00000000000E+00 -0.31164312813E+03  0.31164312813E+03  0.00000000000E+00 0. -1.
         25    2    1    2    0    0  0.23196818264E+01  0.52390632909E+02 -0.19636503534E+03  0.23865831481E+03  0.12509358410E+03 0.  0.
          5    1    3    3  502    0  0.52581339875E+02  0.26648932090E+02 -0.37468235744E+02  0.69973594837E+02  0.41800000000E+01 0.  1.
         -5    1    3    3    0  502 -0.50261658049E+02  0.25741700819E+02 -0.15889679960E+03  0.16868471997E+03  0.41800000000E+01 0.  1.
        -11    1    1    2    0    0 -0.25334920252E+02  0.97827824040E+01  0.46719390306E+01  0.27556996027E+02  0.00000000000E+00 0.  1.
         11    1    1    2    0    0  0.23015238426E+02 -0.62173415313E+02 -0.69400461814E+02  0.95977387293E+02  0.00000000000E+00 0. -1.
</event>
<event>
 7    1  0.2490079E-009  0.9984315E+02  0.7561462E-02  0.1280626E+00
         -1   -1    0    0    0  501 -0.00000000000E+00  0.00000000000E+00  0.44188210633E+03  0.44188210633E+03  0.00000000000E+00 0.  1.
          1   -1    0    0  501    0  0.00000000000E+00 -0.00000000000E+00 -0.34834442118E+02  0.34834442118E+02  0.00000000000E+00 0. -1.
         25    2    1    2    0    0 -0.28599632509E+02 -0.78468507813E+01  0.12543314140E+03  0.17961129438E+03  0.12508889663E+03 0.  0.
          5    1    3    3  502    0  0.18094508617E+02 -0.43775183752E+02  0.10803563459E+03  0.11803748852E+03  0.41800000000E+01 0. -1.
         -5    1    3    3    0  502 -0.46694141126E+02  0.35928332971E+02  0.17397506817E+02  0.61573805867E+02  0.41800000000E+01 0. -1.
        -11    1    1    2    0    0  0.39170469830E+02  0.41933090250E+02  0.19909548813E+03  0.20719971804E+03  0.00000000000E+00 0.  1.
         11    1    1    2    0    0 -0.10570837321E+02 -0.34086239469E+02  0.82519034684E+02  0.89905536025E+02  0.00000000000E+00 0. -1.
</event>
<event>
 7    1  0.2490079E-009  0.8508052E+02  0.7561462E-02  0.1315222E+00
         -3   -1    0    0    0  501 -0.00000000000E+00  0.00000000000E+00  0.16035848018E+03  0.16035848018E+03  0.00000000000E+00 0.  1.
          3   -1    0    0  501    0  0.00000000000E+00 -0.00000000000E+00 -0.74041988107E+02  0.74041988107E+02  0.00000000000E+00 0. -1.
         25    2    1    2    0    0  0.76515250331E+01  0.65802609604E+01  0.22232167434E+02  0.12745038736E+03  0.12508991286E+03 0.  0.
          5    1    3    3  502    0 -0.85624001224E+01 -0.57244922955E+02  0.68531744605E+00  0.58036522639E+02  0.41800000000E+01 0. -1.
         -5    1    3    3    0  502  0.16213925156E+02  0.63825183916E+02  0.21546849988E+02  0.69413864719E+02  0.41800000000E+01 0. -1.
        -11    1    1    2    0    0 -0.78322165906E+01 -0.25779742226E+02 -0.11257271399E+02  0.29200426115E+02  0.00000000000E+00 0. -1.
         11    1    1    2    0    0  0.18069155747E+00  0.19199481266E+02  0.75341596038E+02  0.77749654815E+02  0.00000000000E+00 0.  1.
</event>
<event>
 7    1  0.2490079E-009  0.1031319E+03  0.7561462E-02  0.1273845E+00
         -2   -1    0    0    0  501 -0.00000000000E+00  0.00000000000E+00  0.42351366484E+02  0.42351366484E+02  0.00000000000E+00 0. -1.
          2   -1    0    0  501    0  0.00000000000E+00 -0.00000000000E+00 -0.32271468429E+03  0.32271468429E+03  0.00000000000E+00 0.  1.
         25    2    1    2    0    0  0.27138008013E+02 -0.21779065142E+02 -0.11501274716E+03  0.17345323088E+03  0.12508913676E+03 0.  0.
          5    1    3    3  502    0 -0.48674902320E+02 -0.22493655035E+01 -0.61301298029E+02  0.78419559430E+02  0.41800000000E+01 0. -1.
         -5    1    3    3    0  502  0.75812910333E+02 -0.19529699639E+02 -0.53711449127E+02  0.95033671446E+02  0.41800000000E+01 0. -1.
        -11    1    1    2    0    0 -0.17148795068E+02  0.47961504687E+02 -0.15250423624E+03  0.16078535125E+03  0.00000000000E+00 0.  1.
         11    1    1    2    0    0 -0.99892129442E+01 -0.26182439545E+02 -0.12846334410E+02  0.30827468653E+02  0.00000000000E+00 0. -1.
</event>
<event>
 7    1  0.2490079E-009  0.8506116E+02  0.7561462E-02  0.1315273E+00
          1   -1    0    0  501    0  0.00000000000E+00  0.00000000000E+00  0.36004407335E+03  0.36004407335E+03  0.00000000000E+00 0. -1.
         -1   -1    0    0    0  501 -0.00000000000E+00 -0.00000000000E+00 -0.29397087435E+02  0.29397087435E+02  0.00000000000E+00 0.  1.
         25    2    1    2    0    0  0.49158458936E+01  0.29140634042E+02  0.19143446662E+03  0.23058227210E+03  0.12509071549E+03 0.  0.
          5    1    3    3  502    0 -0.55167060157E+02  0.38747796066E+02  0.10068380719E+03  0.12124148488E+03  0.41800000000E+01 0.  1.
         -5    1    3    3    0  502  0.60082906051E+02 -0.96071620237E+01  0.90750659425E+02  0.10934078721E+03  0.41800000000E+01 0.  1.
        -11    1    1    2    0    0 -0.15685579074E+02 -0.74368621615E+01 -0.19618579512E+00  0.17360380139E+02  0.00000000000E+00 0.  1.
         11    1    1    2    0    0  0.10769733181E+02 -0.21703771881E+02  0.13940870510E+03  0.14149850855E+03  0.00000000000E+00 0. -1.
</event>
<event>
 7    1  0.2490079E-009  0.8892579E+02  0.7561462E-02  0.1305474E+00
          1   -1    0    0  501    0  0.00000000000E+00  0.00000000000E+00  0.19971011729E+03  0.19971011729E+03  0.00000000000E+00 0. -1.
         -1   -1    0    0    0  501 -0.00000000000E+00 -0.00000000000E+00 -0.68292924777E+02  0.68292924777E+02  0.00000000000E+00 0.  1.
         25    2    1    2    0    0 -0.20895997773E+01  0.39678944603E+02  0.52035957375E+02  0.14118627488E+03  0.12508812207E+03 0.  0.
          5    1    3    3  502    0 -0.40998675519E+02  0.32752878522E+02 -0.22082685473E+02  0.57085548464E+02  0.41800000000E+01 0. -1.
         -5    1    3    3    0  502  0.38909075742E+02  0.69260660818E+01  0.74118642848E+02  0.84100726418E+02  0.41800000000E+01 0. -1.
        -11    1    1    2    0    0 -0.35665976382E+02 -0.29710788348E+02  0.10431852513E+02  0.47577477469E+02  0.00000000000E+00 0.  1.
         11    1    1    2    0    0  0.37755576159E+02 -0.99681562557E+01  0.68949382626E+02  0.79239289717E+02  0.00000000000E+00 0. -1.
</event>
<event>
 7    1  0.2490079E-009  0.7902403E+02  0.7561462E-02  0.1331844E+00
          2   -1    0    0  501    0  0.00000000000E+00  0.00000000000E+00  0.46493573695E+03  0.46493573695E+03  0.00000000000E+00 0. -1.
         -2   -1    0    0    0  501 -0.00000000000E+00 -0.00000000000E+00 -0.30521518933E+02  0.30521518933E+02  0.00000000000E+00 0.  1.
         25    2    1    2    0    0  0.92464066559E+01 -0.29924792532E+02  0.15418922629E+03  0.20100478924E+03  0.12509044148E+03 0.  0.
          5    1    3    3  502    0  0.30444303970E+02  0.13855037651E+01  0.15963827079E+03  0.16257498321E+03  0.41800000000E+01 0. -1.
         -5    1    3    3    0  502 -0.21197897314E+02 -0.31310296297E+02 -0.54490445084E+01  0.38429806021E+02  0.41800000000E+01 0. -1.
        -11    1    1    2    0    0  0.35841258797E+02  0.25404723499E+02  0.11432437307E+03  0.12247472427E+03  0.00000000000E+00 0.  1.
         11    1    1    2    0    0 -0.45087665453E+02  0.45200690328E+01  0.16590061867E+03  0.17197774238E+03  0.00000000000E+00 0. -1.
</event>
<event>
 7    1  0.2490079E-009  0.9915539E+02  0.7561462E-02  0.1282082E+00
          2   -1    0    0  501    0  0.00000000000E+00  0.00000000000E+00  0.45569096305E+03  0.45569096305E+03  0.00000000000E+00 0. -1.
         -2   -1    0    0    0  501 -0.00000000000E+00 -0.00000000000E+00 -0.36324315009E+02  0.36324315009E+02  0.00000000000E+00 0.  1.
         25    2    1    2    0    0  0.42400704155E+02 -0.44439921902E+02  0.28998043630E+03  0.32172864819E+03  0.12509173937E+03 0.  0.
          5    1    3    3  502    0  0.75226002838E+01  0.17523588786E+02 -0.34077720880E+01  0.19817946149E+02  0.41800000000E+01 0.  1.
         -5    1    3    3    0  502  0.34878103871E+02 -0.61963510687E+02  0.29338820839E+03  0.30191070204E+03  0.41800000000E+01 0.  1.
        -11    1    1    2    0    0 -0.65002022744E+02  0.91356120542E+01  0.97858419545E+02  0.11783459867E+03  0.00000000000E+00 0. -1.
         11    1    1    2    0    0  0.22601318589E+02  0.35304309848E+02  0.31527792196E+02  0.52452031195E+02  0.00000000000E+00 0.  1.
</event>
<event>
 7    1  0.2490079E-009  0.7532336E+02  0.7561462E-02  0.1342873E+00
         -1   -1    0    0    0  501 -0.00000000000E+00  0.00000000000E+00  0.52090320024E+03  0.52090320024E+03  0.00000000000E+00 0.  1.
          1   -1    0    0  501    0  0.00000000000E+00 -0.00000000000E+00 -0.27727917248E+02  0.27727917248E+02  0.00000000000E+00 0. -1.
         25    2    1    2    0    0  0.10219043732E+02  0.49841341959E+01  0.39042228051E+03  0.41013100784E+03  0.12509442843E+03 0.  0.
          5    1    3    3  502    0  0.18997451753E+02 -0.25975596418E+02  0.37078276991E+03  0.37220017416E+03  0.41800000000E+01 0. -1.
         -5    1    3    3    0  502 -0.87784080209E+01  0.30959730614E+02  0.19639510601E+02  0.37930833681E+02  0.41800000000E+01 0. -1.
        -11    1    1    2    0    0 -0.34414229639E+02  0.28327454684E+02  0.26537094811E+02  0.51874861846E+02  0.00000000000E+00 0.  1.
         11    1    1    2    0    0  0.24195185907E+02 -0.33311588880E+02  0.76215907675E+02  0.86625247806E+02  0.00000000000E+00 0. -1.
</event>
<event>
 7    1  0.2490079E-009  0.9183914E+02  0.7561462E-02  0.1298458E+00
         -1   -1    0    0    0  501 -0.00000000000E+00  0.00000000000E+00  0.80468954861E+02  0.80468954861E+02  0.00000000000E+00 0.  1.
          1   -1    0    0  501    0  0.00000000000E+00 -0.00000000000E+00 -0.18448961799E+03  0.18448961799E+03  0.00000000000E+00 0. -1.
         25    2    1    2    0    0 -0.50320634959E+02  0.47638894002E+01 -0.78109675492E+02  0.15590103433E+03  0.12509656333E+03 0.  0.
          5    1    3    3  502    0  0.16416185020E+02 -0.17233749504E+02  0.22561434359E+02  0.33060308119E+02  0.41800000000E+01 0.  1.
         -5    1    3    3    0  502 -0.66736819979E+02  0.21997638904E+02 -0.10067110985E+03  0.12284072621E+03  0.41800000000E+01 0.  1.
        -11    1    1    2    0    0  0.62939468583E+02  0.15891751873E+02  0.10071410447E+02  0.65691382932E+02  0.00000000000E+00 0.  1.
         11    1    1    2    0    0 -0.12618833625E+02 -0.20655641273E+02 -0.35982398081E+02  0.43366155583E+02  0.00000000000E+00 0. -1.
</event>
<event>
 7    1  0.2490079E-009  0.1251070E+03  0.7561462E-02  0.1234902E+00
          1   -1    0    0  501    0  0.00000000000E+00  0.00000000000E+00  0.95564527944E+03  0.95564527944E+03  0.00000000000E+00 0. -1.
         -1   -1    0    0    0  501 -0.00000000000E+00 -0.00000000000E+00 -0.20245179078E+02  0.20245179078E+02  0.00000000000E+00 0.  1.
         25    2    1    2    0    0 -0.23004063329E+02  0.68123671819E+02  0.65778213071E+03  0.67341964291E+03  0.12508661953E+03 0.  0.
          5    1    3    3  502    0  0.49998698328E+02  0.40924458669E+02  0.25048404406E+03  0.25871685271E+03  0.41800000000E+01 0.  1.
         -5    1    3    3    0  502 -0.73002761657E+02  0.27199213150E+02  0.40729808665E+03  0.41470279020E+03  0.41800000000E+01 0.  1.
        -11    1    1    2    0    0  0.53036058298E+02 -0.42187146689E+02  0.10224596092E+03  0.12266546111E+03  0.00000000000E+00 0.  1.
         11    1    1    2    0    0 -0.30031994969E+02 -0.25936525129E+02  0.17537200874E+03  0.17980535450E+03  0.00000000000E+00 0. -1.
</event>
<event>
 7    1  0.2490079E-009  0.1537103E+03  0.7561462E-02  0.1195987E+00
          3   -1    0    0  501    0  0.00000000000E+00  0.00000000000E+00  0.12213506333E+03  0.12213506333E+03  0.00000000000E+00 0. -1.
         -3   -1    0    0    0  501 -0.00000000000E+00 -0.00000000000E+00 -0.27896005719E+03  0.27896005719E+03  0.00000000000E+00 0.  1.
         25    2    1    2    0    0  0.12836239219E+03  0.57590684977E+02 -0.30059519071E+02  0.19064238235E+03  0.12508937819E+03 0.  0.
          5    1    3    3  502    0  0.90697879757E+02  0.26375834527E+02  0.41992258249E+02  0.10345343006E+03  0.41800000000E+01 0. -1.
         -5    1    3    3    0  502  0.37664512430E+02  0.31214850450E+02 -0.72051777320E+02  0.87188952283E+02  0.41800000000E+01 0. -1.
        -11    1    1    2    0    0 -0.83160932067E+02 -0.78150071671E+02 -0.65465642770E+02  0.13156338665E+03  0.00000000000E+00 0. -1.
         11    1    1    2    0    0 -0.45201460120E+02  0.20559386693E+02 -0.61299832019E+02  0.78889351523E+02  0.00000000000E+00 0.  1.
</event>
<event>
 7    1  0.2490079E-009  0.1024387E+03  0.7561462E-02  0.1275250E+00
         -2   -1    0    0    0  501 -0.00000000000E+00  0.00000000000E+00  0.16796423694E+02  0.16796423694E+02  0.00000000000E+00 0.  1.
          2   -1    0    0  501    0  0.00000000000E+00 -0.00000000000E+00 -0.74755500929E+03  0.74755500929E+03  0.00000000000E+00 0. -1.
         25    2    1    2    0    0 -0.23403274777E+01 -0.22908658801E+02 -0.47563460580E+03  0.49234689664E+03  0.12508758777E+03 0.  0.
          5    1    3    3  502    0  0.51409919845E+02  0.47502667599E+01 -0.10831613918E+03  0.12006416326E+03  0.41800000000E+01 0. -1.
         -5    1    3    3    0  502 -0.53750247323E+02 -0.27658925560E+02 -0.36731846662E+03  0.37228273338E+03  0.41800000000E+01 0. -1.
        -11    1    1    2    0    0 -0.38391728904E+02  0.32884399828E+02 -0.16563452072E+03  0.17317650838E+03  0.00000000000E+00 0.  1.
         11    1    1    2    0    0  0.40732056382E+02 -0.99757410277E+01 -0.89489459075E+02  0.98828027966E+02  0.00000000000E+00 0. -1.
</event>
<event>
 7    1  0.2490079E-009  0.1227402E+03  0.7561462E-02  0.1238644E+00
         -4   -1    0    0    0  501 -0.00000000000E+00  0.00000000000E+00  0.10280941699E+04  0.10280941699E+04  0.00000000000E+00 0.  1.
          4   -1    0    0  501    0  0.00000000000E+00 -0.00000000000E+00 -0.22243921884E+02  0.22243921884E+02  0.00000000000E+00 0. -1.
         25    2    1    2    0    0  0.10073835582E+03 -0.28794703828E+02  0.57108809180E+03  0.59394130074E+03  0.12508920346E+03 0.  0.
          5    1    3    3  502    0  0.74017230142E+02 -0.31792772624E+02  0.13687190701E+03  0.15887328938E+03  0.41800000000E+01 0.  1.
         -5    1    3    3    0  502  0.26721125680E+02  0.29980687962E+01  0.43421618479E+03  0.43506801136E+03  0.41800000000E+01 0.  1.
        -11    1    1    2    0    0 -0.11184608582E+03  0.42776211627E+02  0.35472128352E+03  0.37438822120E+03  0.00000000000E+00 0. -1.
         11    1    1    2    0    0  0.11107729995E+02 -0.13981507799E+02  0.80040872676E+02  0.82008569825E+02  0.00000000000E+00 0.  1.
</event>
<event>
 7    1  0.2490079E-009  0.1089605E+03  0.7561462E-02  0.1262507E+00
         -1   -1    0    0    0  501 -0.00000000000E+00  0.00000000000E+00  0.12726738428E+04  0.12726738428E+04  0.00000000000E+00 0.  1.
          1   -1    0    0  501    0  0.00000000000E+00 -0.00000000000E+00 -0.12477810808E+02  0.12477810808E+02  0.00000000000E+00 0. -1.
         25    2    1    2    0    0 -0.48814615600E+01  0.37225157281E+02  0.10000510699E+04  0.10085432631E+04  0.12509128727E+03 0.  0.
          5    1    3    3  502    0 -0.62509755934E+02  0.26579016548E+02  0.41419582997E+03  0.41974941533E+03  0.41800000000E+01 0.  1.
         -5    1    3    3    0  502  0.57628294374E+02  0.10646140732E+02  0.58585523989E+03  0.58879384774E+03  0.41800000000E+01 0.  1.
        -11    1    1    2    0    0 -0.32418243166E+02  0.70967725006E+01  0.64059609933E+02  0.72145272158E+02  0.00000000000E+00 0.  1.
         11    1    1    2    0    0  0.37299704726E+02 -0.44321929781E+02  0.19608535223E+03  0.20446311841E+03  0.00000000000E+00 0. -1.
</event>
<event>
 7    1  0.2490079E-009  0.1178932E+03  0.7561462E-02  0.1246614E+00
          1   -1    0    0  501    0  0.00000000000E+00  0.00000000000E+00  0.60820631022E+03  0.60820631022E+03  0.00000000000E+00 0. -1.
         -1   -1    0    0    0  501 -0.00000000000E+00 -0.00000000000E+00 -0.27311130232E+02  0.27311130232E+02  0.00000000000E+00 0.  1.
         25    2    1    2    0    0  0.18090159875E+02  0.50315749657E+02  0.43015092638E+03  0.45115004272E+03  0.12509041943E+03 0.  0.
          5    1    3    3  502    0 -0.51230625356E+02  0.41089109156E+02  0.21983787862E+03  0.22947561340E+03  0.41800000000E+01 0.  1.
         -5    1    3    3    0  502  0.69320785230E+02  0.92266405007E+01  0.21031304775E+03  0.22167442932E+03  0.41800000000E+01 0.  1.
        -11    1    1    2    0    0 -0.26013101618E+02  0.17690078937E+02  0.21483853655E+02  0.38094308189E+02  0.00000000000E+00 0.  1.
         11    1    1    2    0    0  0.79229417428E+01 -0.68005828594E+02  0.12926039996E+03  0.14627308955E+03  0.00000000000E+00 0. -1.
</event>
<event>
 7    1  0.2490079E-009  0.1928003E+03  0.7561462E-02  0.1155960E+00
          1   -1    0    0  501    0  0.00000000000E+00  0.00000000000E+00  0.92020455946E+03  0.92020455946E+03  0.00000000000E+00 0. -1.
         -1   -1    0    0    0  501 -0.00000000000E+00 -0.00000000000E+00 -0.43978224004E+02  0.43978224004E+02  0.00000000000E+00 0.  1.
         25    2    1    2    0    0 -0.44934795836E+02  0.15688462229E+03  0.56642031096E+03  0.60258697610E+03  0.12508866655E+03 0.  0.
          5    1    3    3  502    0 -0.45590942058E+02 -0.23952070238E+01  0.11083500233E+03  0.11994224091E+03  0.41800000000E+01 0. -1.
         -5    1    3    3    0  502  0.65614622196E+00  0.15927982931E+03  0.45558530863E+03  0.48264473518E+03  0.41800000000E+01 0. -1.
        -11    1    1    2    0    0 -0.15436434602E+02 -0.85713585195E+02  0.19555373860E+03  0.21407093890E+03  0.00000000000E+00 0. -1.
         11    1    1    2    0    0  0.60371230438E+02 -0.71171037095E+02  0.11425228590E+03  0.14752486847E+03  0.00000000000E+00 0.  1.
</event>
<event>
 7    1  0.2490079E-009  0.1204197E+03  0.7561462E-02  0.1242406E+00
         -2   -1    0    0    0  501 -0.00000000000E+00  0.00000000000E+00  0.19631454409E+02  0.19631454409E+02  0.00000000000E+00 0.  1.
          2   -1    0    0  501    0  0.00000000000E+00 -0.00000000000E+00 -0.77127038759E+03  0.77127038759E+03  0.00000000000E+00 0. -1.
         25    2    1    2    0    0  0.34663450511E+02 -0.40282545257E+02 -0.42317664658E+03  0.44446516884E+03  0.12508626560E+03 0.  0.
          5    1    3    3  502    0 -0.23599967058E+02 -0.67045759584E+02 -0.24049808774E+03  0.25081645666E+03  0.41800000000E+01 0.  1.
         -5    1    3    3    0  502  0.58263417570E+02  0.26763214326E+02 -0.18267855884E+03  0.19364871218E+03  0.41800000000E+01 0.  1.
        -11    1    1    2    0    0 -0.62184472920E+02  0.75806999982E+01 -0.14311445205E+03  0.15622458856E+03  0.00000000000E+00 0.  1.
         11    1    1    2    0    0  0.27521022409E+02  0.32701845259E+02 -0.18534783455E+03  0.19021208461E+03  0.00000000000E+00 0. -1.
</event>
<event>
 7    1  0.2490079E-009  0.1343701E+03  0.7561462E-02  0.1221112E+00
          2   -1    0    0  501    0  0.00000000000E+00  0.00000000000E+00  0.10809080336E+04  0.10809080336E+04  0.00000000000E+00 0.  1.
         -2   -1    0    0    0  501 -0.00000000000E+00 -0.00000000000E+00 -0.24310885185E+02  0.24310885185E+02  0.00000000000E+00 0. -1.
         25    2    1    2    0    0  0.11619872936E+03  0.27121206145E+02  0.51348888833E+03  0.54180770452E+03  0.12508815175E+03 0.  0.
          5    1    3    3  502    0  0.46618078558E+02 -0.46368622895E+01  0.41189830177E+03  0.41457499821E+03  0.41800000000E+01 0.  1.
         -5    1    3    3    0  502  0.69580650800E+02  0.31758068434E+02  0.10159058657E+03  0.12723270631E+03  0.41800000000E+01 0.  1.
        -11    1    1    2    0    0 -0.18936359154E+02 -0.42600707448E+02  0.24679012267E+03  0.25115487378E+03  0.00000000000E+00 0.  1.
         11    1    1    2    0    0 -0.97262370204E+02  0.15479501303E+02  0.29631813742E+03  0.31225634050E+03  0.00000000000E+00 0. -1.
</event>
<event>
 7    1  0.2490079E-009  0.1492259E+03  0.7561462E-02  0.1201427E+00
          2   -1    0    0  501    0  0.00000000000E+00  0.00000000000E+00  0.61709099631E+03  0.61709099631E+03  0.00000000000E+00 0. -1.
         -2   -1    0    0    0  501 -0.00000000000E+00 -0.00000000000E+00 -0.41357227017E+02  0.41357227017E+02  0.00000000000E+00 0.  1.
         25    2    1    2    0    0  0.15827199056E+02 -0.10894155861E+03  0.39104001481E+03  0.42506297576E+03  0.12508987472E+03 0.  0.
          5    1    3    3  502    0  0.48789729411E+02 -0.81199282437E+01  0.62585241658E+02  0.79879633224E+02  0.41800000000E+01 0.  1.
         -5    1    3    3    0  502 -0.32962530355E+02 -0.10082163037E+03  0.32845477316E+03  0.34518334254E+03  0.41800000000E+01 0.  1.
        -11    1    1    2    0    0  0.31493904161E+02  0.10100089667E+02  0.41244908368E+02  0.52867951321E+02  0.00000000000E+00 0.  1.
         11    1    1    2    0    0 -0.47321103217E+02  0.98841468942E+02  0.14344884611E+03  0.18051729624E+03  0.00000000000E+00 0. -1.
</event>
<event>
 7    1  0.2490079E-009  0.2123044E+03  0.7561462E-02  0.1139754E+00
          2   -1    0    0  501    0  0.00000000000E+00  0.00000000000E+00  0.84956178961E+02  0.84956178961E+02  0.00000000000E+00 0. -1.
         -2   -1    0    0    0  501 -0.00000000000E+00 -0.00000000000E+00 -0.58594603447E+03  0.58594603447E+03  0.00000000000E+00 0.  1.
         25    2    1    2    0    0  0.18768812244E+03  0.15893971239E+02 -0.33551020629E+03  0.40459235836E+03  0.12509367806E+03 0.  0.
          5    1    3    3  502    0  0.44857243327E+02  0.52546013441E+02 -0.57973270256E+02  0.90286368139E+02  0.41800000000E+01 0.  1.
         -5    1    3    3    0  502  0.14283087912E+03 -0.36652042202E+02 -0.27753693603E+03  0.31430599022E+03  0.41800000000E+01 0.  1.
        -11    1    1    2    0    0 -0.96758980394E+02  0.35930777031E+02 -0.70663524599E+02  0.12508658894E+03  0.00000000000E+00 0.  1.
         11    1    1    2    0    0 -0.90929142049E+02 -0.51824748270E+02 -0.94816124618E+02  0.14122326612E+03  0.00000000000E+00 0. -1.
</event>
<event>
 7    1  0.2490079E-009  0.1127677E+03  0.7561462E-02  0.1255529E+00
          2   -1    0    0  501    0  0.00000000000E+00  0.00000000000E+00  0.60886684281E+03  0.60886684281E+03  0.00000000000E+00 0. -1.
         -2   -1    0    0    0  501 -0.00000000000E+00 -0.00000000000E+00 -0.21444692026E+02  0.21444692026E+02  0.00000000000E+00 0.  1.
         25    2    1    2    0    0  0.10051319785E+02  0.34299568345E+02  0.30398805707E+03  0.33065684284E+03  0.12509084483E+03 0.  0.
          5    1    3    3  502    0  0.61988020171E+02 -0.63373111849E+01  0.17339070602E+03  0.18429456176E+03  0.41800000000E+01 0. -1.
         -5    1    3    3    0  502 -0.51936700386E+02  0.40636879530E+02  0.13059735105E+03  0.14636228109E+03  0.41800000000E+01 0. -1.
        -11    1    1    2    0    0  0.24091971355E+02 -0.52898415269E+02  0.15925498989E+03  0.16953116890E+03  0.00000000000E+00 0.  1.
         11    1    1    2    0    0 -0.34143291140E+02  0.18598846924E+02  0.12417910383E+03  0.13012352310E+03  0.00000000000E+00 0. -1.
</event>
<event>
 7    1  0.2490079E-009  0.1055823E+03  0.7561462E-02  0.1268977E+00
         -1   -1    0    0    0  501 -0.00000000000E+00  0.00000000000E+00  0.92503667887E+01  0.92503667887E+01  0.00000000000E+00 0.  1.
          1   -1    0    0  501    0  0.00000000000E+00 -0.00000000000E+00 -0.23516720334E+04  0.23516720334E+04  0.00000000000E+00 0. -1.
         25    2    1    2    0    0  0.33976581245E+02  0.44675530441E+01 -0.20213216898E+04  0.20254786486E+04  0.12509202648E+03 0.  0.
          5    1    3    3  502    0  0.35109174304E+02  0.54137482258E+02 -0.15848524376E+04  0.15861709373E+04  0.41800000000E+01 0. -1.
         -5    1    3    3    0  502 -0.11325930597E+01 -0.49669929214E+02 -0.43646925222E+03  0.43930771125E+03  0.41800000000E+01 0. -1.
        -11    1    1    2    0    0 -0.39402190896E+02 -0.42658443026E+02 -0.20752440611E+03  0.21549629821E+03  0.00000000000E+00 0. -1.
         11    1    1    2    0    0  0.54256096513E+01  0.38190889982E+02 -0.11357557066E+03  0.11994745336E+03  0.00000000000E+00 0.  1.
</event>
<event>
 7    1  0.2490079E-009  0.6028246E+02  0.7561462E-02  0.1396650E+00
         -2   -1    0    0    0  501 -0.00000000000E+00  0.00000000000E+00  0.19140173234E+03  0.19140173234E+03  0.00000000000E+00 0. -1.
          2   -1    0    0  501    0  0.00000000000E+00 -0.00000000000E+00 -0.68768950929E+02  0.68768950929E+02  0.00000000000E+00 0.  1.
         25    2    1    2    0    0  0.75022941636E+01  0.11811009457E+02  0.11025702433E+03  0.16733196717E+03  0.12509033321E+03 0.  0.
          5    1    3    3  502    0 -0.27714675127E+02 -0.20531134456E+01  0.12377536616E+03  0.12692569543E+03  0.41800000000E+01 0. -1.
         -5    1    3    3    0  502  0.35216969291E+02  0.13864122903E+02 -0.13518341835E+02  0.40406271739E+02  0.41800000000E+01 0. -1.
        -11    1    1    2    0    0 -0.25426569971E+02  0.89500287563E+01 -0.31273411257E+02  0.41287282871E+02  0.00000000000E+00 0.  1.
         11    1    1    2    0    0  0.17924275807E+02 -0.20761038214E+02  0.43649168348E+02  0.51551433233E+02  0.00000000000E+00 0. -1.
</event>
<event>
 7    1  0.2490079E-009  0.9610723E+02  0.7561462E-02  0.1288702E+00
         -1   -1    0    0    0  501 -0.00000000000E+00  0.00000000000E+00  0.20925980393E+03  0.20925980393E+03  0.00000000000E+00 0.  1.
          1   -1    0    0  501    0  0.00000000000E+00 -0.00000000000E+00 -0.11740587548E+03  0.11740587548E+03  0.00000000000E+00 0. -1.
         25    2    1    2    0    0  0.46074603072E+02 -0.75709461153E+02  0.12142907165E+03  0.19556940131E+03  0.12509028631E+03 0.  0.
          5    1    3    3  502    0  0.29264661367E+01 -0.54261362883E+02 -0.10100831147E+02  0.55428863382E+02  0.41800000000E+01 0.  1.
         -5    1    3    3    0  502  0.43148136935E+02 -0.21448098270E+02  0.13152990280E+03  0.14014053793E+03  0.41800000000E+01 0.  1.
        -11    1    1    2    0    0 -0.35822260317E+02  0.66648066079E+02 -0.60760379965E+02  0.97041345930E+02  0.00000000000E+00 0. -1.
         11    1    1    2    0    0 -0.10252342754E+02  0.90613950746E+01  0.31185236765E+02  0.34054932165E+02  0.00000000000E+00 0.  1.
</event>
<event>
 7    1  0.2490079E-009  0.1195727E+03  0.7561462E-02  0.1243804E+00
         -1   -1    0    0    0  501 -0.00000000000E+00  0.00000000000E+00  0.15139417204E+03  0.15139417204E+03  0.00000000000E+00 0.  1.
          1   -1    0    0  501    0  0.00000000000E+00 -0.00000000000E+00 -0.21583692800E+03  0.21583692800E+03  0.00000000000E+00 0. -1.
         25    2    1    2    0    0 -0.35646676231E+02  0.52990133034E+02 -0.16529038842E+03  0.21690096730E+03  0.12508588005E+03 0.  0.
          5    1    3    3  502    0 -0.45404722615E+02  0.84626123938E+02 -0.15425128678E+03  0.18175285847E+03  0.41800000000E+01 0.  1.
         -5    1    3    3    0  502  0.97580463842E+01 -0.31635990904E+02 -0.11039101638E+02  0.35148108835E+02  0.41800000000E+01 0.  1.
        -11    1    1    2    0    0  0.18800641816E+02 -0.77588434032E+02  0.60529028749E+02  0.10018579016E+03  0.00000000000E+00 0. -1.
         11    1    1    2    0    0  0.16846034415E+02  0.24598300998E+02  0.40318603705E+02  0.50144342574E+02  0.00000000000E+00 0.  1.
</event>
<event>
 7    1  0.2490079E-009  0.1093510E+03  0.7561462E-02  0.1261776E+00
          4   -1    0    0  501    0  0.00000000000E+00  0.00000000000E+00  0.37813192571E+02  0.37813192571E+02  0.00000000000E+00 0. -1.
         -4   -1    0    0    0  501 -0.00000000000E+00 -0.00000000000E+00 -0.41329251106E+03  0.41329251106E+03  0.00000000000E+00 0.  1.
         25    2    1    2    0    0 -0.41757973042E+02 -0.93253193027E+01 -0.12821938224E+03  0.18416980084E+03  0.12509042995E+03 0.  0.
          5    1    3    3  502    0  0.16003985482E+02 -0.54936734391E+02 -0.44408404534E+02  0.72551713489E+02  0.41800000000E+01 0. -1.
         -5    1    3    3    0  502 -0.57761958524E+02  0.45611415089E+02 -0.83810977708E+02  0.11161808735E+03  0.41800000000E+01 0. -1.
        -11    1    1    2    0    0  0.27338846207E+02  0.43013865270E+02 -0.74065099952E+02  0.89906863744E+02  0.00000000000E+00 0. -1.
         11    1    1    2    0    0  0.14419126835E+02 -0.33688545967E+02 -0.17319483629E+03  0.17702903905E+03  0.00000000000E+00 0.  1.
</event>
<event>
 7    1  0.2515451E-009  0.1602538E+03  0.7561462E-02  0.1188411E+00
         -2   -1    0    0    0  501 -0.00000000000E+00  0.00000000000E+00  0.31170298580E+02  0.31170298580E+02  0.00000000000E+00 0.  1.
          2   -1    0    0  501    0  0.00000000000E+00 -0.00000000000E+00 -0.84939741821E+03  0.84939741821E+03  0.00000000000E+00 0. -1.
         25    2    1    2    0    0 -0.42131342159E+01 -0.11757780655E+03 -0.51070369296E+03  0.53880144273E+03  0.12508573700E+03 0.  0.
          5    1    3    3  502    0  0.59784580300E+02 -0.48098525092E+02 -0.24550675837E+03  0.25725222052E+03  0.41800000000E+01 0. -1.
         -5    1    3    3    0  502 -0.63997714515E+02 -0.69479281461E+02 -0.26519693458E+03  0.28154922221E+03  0.41800000000E+01 0. -1.
        -11    1    1    2    0    0 -0.41399916486E+02  0.79728923509E+02 -0.18588805283E+03  0.20645828274E+03  0.00000000000E+00 0.  1.
         11    1    1    2    0    0  0.45613050702E+02  0.37848883045E+02 -0.12163537384E+03  0.13530799131E+03  0.00000000000E+00 0. -1.
</event>
<event>
 7    1  0.2490079E-009  0.2247947E+03  0.7561462E-02  0.1130358E+00
          2   -1    0    0  501    0  0.00000000000E+00  0.00000000000E+00  0.23615705669E+03  0.23615705669E+03  0.00000000000E+00 0. -1.
         -2   -1    0    0    0  501 -0.00000000000E+00 -0.00000000000E+00 -0.28693187482E+03  0.28693187482E+03  0.00000000000E+00 0.  1.
         25    2    1    2    0    0 -0.38565898459E+02  0.21543180085E+03 -0.11398638752E+03  0.27665531011E+03  0.12508826777E+03 0.  0.
          5    1    3    3  502    0  0.14787332509E+01  0.14987300427E+03 -0.12955986338E+03  0.19815987147E+03  0.41800000000E+01 0. -1.
         -5    1    3    3    0  502 -0.40044631710E+02  0.65558796576E+02  0.15573475862E+02  0.78495438643E+02  0.41800000000E+01 0. -1.
        -11    1    1    2    0    0  0.34955937358E+02 -0.80820223364E+02  0.68664841710E+02  0.11166327305E+03  0.00000000000E+00 0. -1.
         11    1    1    2    0    0  0.36099611006E+01 -0.13461157749E+03 -0.54532723215E+01  0.13477034834E+03  0.00000000000E+00 0.  1.
</event>
<event>
 7    1  0.2490079E-009  0.1215875E+03  0.7561462E-02  0.1240501E+00
         -1   -1    0    0    0  501 -0.00000000000E+00  0.00000000000E+00  0.41828371531E+02  0.41828371531E+02  0.00000000000E+00 0.  1.
          1   -1    0    0  501    0  0.00000000000E+00 -0.00000000000E+00 -0.81597688987E+03  0.81597688987E+03  0.00000000000E+00 0. -1.
         25    2    1    2    0    0 -0.44103382922E+02  0.68618847303E+02 -0.69404767244E+03  0.70993185177E+03  0.12508959969E+03 0.  0.
          5    1    3    3  502    0  0.34356465031E+02  0.24291595590E+02 -0.40329130797E+03  0.40550191095E+03  0.41800000000E+01 0.  1.
         -5    1    3    3    0  502 -0.78459847952E+02  0.44327251713E+02 -0.29075636447E+03  0.30442994082E+03  0.41800000000E+01 0.  1.
        -11    1    1    2    0    0 -0.20698108297E+02 -0.25496748404E+02  0.42289674449E+01  0.33111629859E+02  0.00000000000E+00 0.  1.
         11    1    1    2    0    0  0.64801491219E+02 -0.43122098898E+02 -0.84329813346E+02  0.11476177977E+03  0.00000000000E+00 0. -1.
</event>
<event>
 7    1  0.2490079E-009  0.1041228E+03  0.7561462E-02  0.1271858E+00
          1   -1    0    0  501    0  0.00000000000E+00  0.00000000000E+00  0.52953805087E+02  0.52953805087E+02  0.00000000000E+00 0. -1.
         -1   -1    0    0    0  501 -0.00000000000E+00 -0.00000000000E+00 -0.36537048554E+03  0.36537048554E+03  0.00000000000E+00 0.  1.
         25    2    1    2    0    0 -0.73762621922E+02 -0.34029050959E+01 -0.23951592656E+03  0.28012173458E+03  0.12509117855E+03 0.  0.
          5    1    3    3  502    0  0.84238767496E+01  0.24099989107E+02 -0.16112129806E+03  0.16318491432E+03  0.41800000000E+01 0.  1.
         -5    1    3    3    0  502 -0.82186498672E+02 -0.27502894203E+02 -0.78394628503E+02  0.11693682026E+03  0.41800000000E+01 0.  1.
        -11    1    1    2    0    0  0.30932939403E+02 -0.28611637222E+02 -0.73505936128E+02  0.84726590694E+02  0.00000000000E+00 0.  1.
         11    1    1    2    0    0  0.42829682519E+02  0.32014542318E+02  0.60518224030E+00  0.53475965350E+02  0.00000000000E+00 0. -1.
</event>
<event>
 7    1  0.2490079E-009  0.1292866E+03  0.7561462E-02  0.1228518E+00
          2   -1    0    0  501    0  0.00000000000E+00  0.00000000000E+00  0.12391854828E+03  0.12391854828E+03  0.00000000000E+00 0. -1.
         -2   -1    0    0    0  501 -0.00000000000E+00 -0.00000000000E+00 -0.20551327858E+03  0.20551327858E+03  0.00000000000E+00 0.  1.
         25    2    1    2    0    0 -0.72097549067E+02 -0.28952347892E+02 -0.13690593853E+03  0.20106427320E+03  0.12508921186E+03 0.  0.
          5    1    3    3  502    0 -0.76047336027E+02 -0.68792481049E+02 -0.11860988121E+03  0.15684826772E+03  0.41800000000E+01 0.  1.
         -5    1    3    3    0  502  0.39497869597E+01  0.39840133157E+02 -0.18296057313E+02  0.44216005475E+02  0.41800000000E+01 0.  1.
        -11    1    1    2    0    0  0.34784950616E+02  0.58522781189E+02  0.35756316590E+02  0.76898783368E+02  0.00000000000E+00 0. -1.
         11    1    1    2    0    0  0.37312598451E+02 -0.29570433297E+02  0.19554891630E+02  0.51468770291E+02  0.00000000000E+00 0.  1.
</event>
<event>
 7    1  0.2490079E-009  0.1067125E+03  0.7561462E-02  0.1266782E+00
          1   -1    0    0  501    0  0.00000000000E+00  0.00000000000E+00  0.11990927748E+04  0.11990927748E+04  0.00000000000E+00 0. -1.
         -1   -1    0    0    0  501 -0.00000000000E+00 -0.00000000000E+00 -0.12742858624E+02  0.12742858624E+02  0.00000000000E+00 0.  1.
         25    2    1    2    0    0  0.54691489760E+02 -0.29656148227E+02  0.91820575254E+03  0.92877323897E+03  0.12508908521E+03 0.  0.
          5    1    3    3  502    0 -0.35517358808E+02 -0.30367995702E+02  0.23621370437E+03  0.24082791464E+03  0.41800000000E+01 0.  1.
         -5    1    3    3    0  502  0.90208848568E+02  0.71184747528E+00  0.68199204818E+03  0.68794532433E+03  0.41800000000E+01 0.  1.
        -11    1    1    2    0    0  0.61539363041E+01  0.10920930200E+02  0.71829813096E+01  0.14447590421E+02  0.00000000000E+00 0.  1.
         11    1    1    2    0    0 -0.60845426065E+02  0.18735218027E+02  0.26096118233E+03  0.26861480404E+03  0.00000000000E+00 0. -1.
</event>
<event>
 7    1  0.2490079E-009  0.1084910E+03  0.7561462E-02  0.1263390E+00
         -1   -1    0    0    0  501 -0.00000000000E+00  0.00000000000E+00  0.11388094267E+03  0.11388094267E+03  0.00000000000E+00 0.  1.
          1   -1    0    0  501    0  0.00000000000E+00 -0.00000000000E+00 -0.16424177392E+03  0.16424177392E+03  0.00000000000E+00 0. -1.
         25    2    1    2    0    0 -0.76045700152E+02 -0.25134980506E+01 -0.59295729373E+02  0.15796936804E+03  0.12509624908E+03 0.  0.
          5    1    3    3  502    0 -0.10632067045E+03  0.10831625138E+02 -0.24399694189E+02  0.10970062235E+03  0.41800000000E+01 0. -1.
         -5    1    3    3    0  502  0.30274970295E+02 -0.13345123188E+02 -0.34896035185E+02  0.48268745694E+02  0.41800000000E+01 0. -1.
        -11    1    1    2    0    0  0.36719443800E+02 -0.35454793228E+01  0.50548120552E+02  0.62577955127E+02  0.00000000000E+00 0.  1.
         11    1    1    2    0    0  0.39326256351E+02  0.60589773734E+01 -0.41613222428E+02  0.57575393410E+02  0.00000000000E+00 0. -1.
</event>
<event>
 7    1  0.2490079E-009  0.1427330E+03  0.7561462E-02  0.1209698E+00
         -2   -1    0    0    0  501 -0.00000000000E+00  0.00000000000E+00  0.49872201017E+02  0.49872201017E+02  0.00000000000E+00 0.  1.
          2   -1    0    0  501    0  0.00000000000E+00 -0.00000000000E+00 -0.64344153209E+03  0.64344153209E+03  0.00000000000E+00 0. -1.
         25    2    1    2    0    0 -0.12467484669E+03  0.64965085506E+02 -0.34025879438E+03  0.38883030184E+03  0.12509467115E+03 0.  0.
          5    1    3    3  502    0 -0.54336779984E+02  0.10650777655E+02 -0.24349009305E+02  0.60632263506E+02  0.41800000000E+01 0. -1.
         -5    1    3    3    0  502 -0.70338066706E+02  0.54314307851E+02 -0.31590978507E+03  0.32819803834E+03  0.41800000000E+01 0. -1.
        -11    1    1    2    0    0  0.36488388247E+02 -0.24456029818E+02 -0.17308196792E+03  0.17856894324E+03  0.00000000000E+00 0.  1.
         11    1    1    2    0    0  0.88186458443E+02 -0.40509055688E+02 -0.80228568775E+02  0.12591448802E+03  0.00000000000E+00 0. -1.
</event>
<event>
 7    1  0.2490079E-009  0.9858652E+02  0.7561462E-02  0.1283297E+00
          2   -1    0    0  501    0  0.00000000000E+00  0.00000000000E+00  0.18169730559E+03  0.18169730559E+03  0.00000000000E+00 0.  1.
         -2   -1    0    0    0  501 -0.00000000000E+00 -0.00000000000E+00 -0.75035609588E+02  0.75035609588E+02  0.00000000000E+00 0. -1.
         25    2    1    2    0    0  0.40501549583E+02 -0.95451665222E+01  0.69396686491E+02  0.14898006337E+03  0.12509066097E+03 0.  0.
          5    1    3    3  502    0  0.76798928216E+02 -0.43669185521E+00  0.85006940902E+01  0.77382170265E+02  0.41800000000E+01 0.  1.
         -5    1    3    3    0  502 -0.36297378633E+02 -0.91084746670E+01  0.60895992401E+02  0.71597893103E+02  0.41800000000E+01 0.  1.
        -11    1    1    2    0    0  0.91530986619E+01  0.28132575673E+02  0.45323552914E+02  0.54124351986E+02  0.00000000000E+00 0.  1.
         11    1    1    2    0    0 -0.49654648245E+02 -0.18587409151E+02 -0.80585434056E+01  0.53628499822E+02  0.00000000000E+00 0. -1.
</event>
<event>
 7    1  0.2490079E-009  0.1118298E+03  0.7561462E-02  0.1257218E+00
          2   -1    0    0  501    0  0.00000000000E+00  0.00000000000E+00  0.64614932156E+03  0.64614932156E+03  0.00000000000E+00 0. -1.
         -2   -1    0    0    0  501 -0.00000000000E+00 -0.00000000000E+00 -0.29649191813E+02  0.29649191813E+02  0.00000000000E+00 0.  1.
         25    2    1    2    0    0  0.36491732943E+02 -0.82641064215E+02  0.34261380579E+03  0.37575595987E+03  0.12508848626E+03 0.  0.
          5    1    3    3  502    0 -0.13016794552E+02 -0.33554615507E+02  0.12490594603E+02  0.38325403008E+02  0.41800000000E+01 0.  1.
         -5    1    3    3    0  502  0.49508527494E+02 -0.49086448708E+02  0.33012321119E+03  0.33743055686E+03  0.41800000000E+01 0.  1.
        -11    1    1    2    0    0 -0.14523223391E+02  0.92407764088E+02  0.17676695349E+03  0.19999168664E+03  0.00000000000E+00 0.  1.
         11    1    1    2    0    0 -0.21968509551E+02 -0.97666998730E+01  0.97119370475E+02  0.10005086686E+03  0.00000000000E+00 0. -1.
</event>
<event>
 7    1  0.2490079E-009  0.1062936E+03  0.7561462E-02  0.1267592E+00
         -4   -1    0    0    0  501 -0.00000000000E+00  0.00000000000E+00  0.13131258459E+03  0.13131258459E+03  0.00000000000E+00 0.  1.
          4   -1    0    0  501    0  0.00000000000E+00 -0.00000000000E+00 -0.10414305876E+03  0.10414305876E+03  0.00000000000E+00 0. -1.
         25    2    1    2    0    0 -0.10277860945E+02  0.40723843788E+02  0.19666705788E+02  0.13340423925E+03  0.12508335563E+03 0.  0.
          5    1    3    3  502    0 -0.32947728330E+02 -0.25133669232E+02 -0.26841117054E+02  0.49549693197E+02  0.41800000000E+01 0. -1.
         -5    1    3    3    0  502  0.22669867385E+02  0.65857513020E+02  0.46507822842E+02  0.83854546054E+02  0.41800000000E+01 0. -1.
        -11    1    1    2    0    0  0.46696955268E+02 -0.22677570181E+00 -0.21105098403E+01  0.46745174193E+02  0.00000000000E+00 0. -1.
         11    1    1    2    0    0 -0.36419094323E+02 -0.40497068087E+02  0.96133298849E+01  0.55306229906E+02  0.00000000000E+00 0.  1.
</event>
<event>
 7    1  0.2490079E-009  0.1203928E+03  0.7561462E-02  0.1242450E+00
          1   -1    0    0  501    0  0.00000000000E+00  0.00000000000E+00  0.11549419500E+04  0.11549419500E+04  0.00000000000E+00 0.  1.
         -1   -1    0    0    0  501 -0.00000000000E+00 -0.00000000000E+00 -0.18456209037E+02  0.18456209037E+02  0.00000000000E+00 0. -1.
         25    2    1    2    0    0  0.85814799299E+02  0.26317288120E+02  0.66493643375E+03  0.68252784016E+03  0.12508801794E+03 0.  0.
          5    1    3    3  502    0  0.72399588607E+02 -0.26235761679E+02  0.54985432235E+03  0.55523622345E+03  0.41800000000E+01 0. -1.
         -5    1    3    3    0  502  0.13415210692E+02  0.52553049799E+02  0.11508211140E+03  0.12729161671E+03  0.41800000000E+01 0. -1.
        -11    1    1    2    0    0 -0.54992499039E+02 -0.46840020895E+02  0.42641164876E+03  0.43248705958E+03  0.00000000000E+00 0.  1.
         11    1    1    2    0    0 -0.30822300260E+02  0.20522732775E+02  0.45137658402E+02  0.58383259243E+02  0.00000000000E+00 0. -1.
</event>
<event>
 7    1  0.2490079E-009  0.1247947E+03  0.7561462E-02  0.1235391E+00
         -2   -1    0    0    0  501 -0.00000000000E+00  0.00000000000E+00  0.30416537258E+03  0.30416537258E+03  0.00000000000E+00 0.  1.
          2   -1    0    0  501    0  0.00000000000E+00 -0.00000000000E+00 -0.89746406308E+02  0.89746406308E+02  0.00000000000E+00 0. -1.
         25    2    1    2    0    0 -0.68065558759E+02 -0.87072416417E+02  0.44750861073E+02  0.17281516714E+03  0.12509163216E+03 0.  0.
          5    1    3    3  502    0 -0.22591458281E+02 -0.79724717149E+02 -0.27170503151E+02  0.87304714381E+02  0.41800000000E+01 0.  1.
         -5    1    3    3    0  502 -0.45474100478E+02 -0.73476992678E+01  0.71921364224E+02  0.85510452757E+02  0.41800000000E+01 0.  1.
        -11    1    1    2    0    0  0.37975178533E+02  0.12543869135E+02  0.12029601437E+03  0.12676984622E+03  0.00000000000E+00 0.  1.
         11    1    1    2    0    0  0.30090380226E+02  0.74528547282E+02  0.49372090826E+02  0.94326765526E+02  0.00000000000E+00 0. -1.
</event>
<event>
 7    1  0.2490079E-009  0.1356312E+03  0.7561462E-02  0.1219331E+00
         -2   -1    0    0    0  501 -0.00000000000E+00  0.00000000000E+00  0.54217619757E+02  0.54217619757E+02  0.00000000000E+00 0.  1.
          2   -1    0    0  501    0  0.00000000000E+00 -0.00000000000E+00 -0.40394199006E+03  0.40394199006E+03  0.00000000000E+00 0. -1.
         25    2    1    2    0    0 -0.13239589716E+02 -0.10977481373E+03 -0.16662329660E+03  0.23587318630E+03  0.12508813127E+03 0.  0.
          5    1    3    3  502    0 -0.64421511117E+02 -0.50830773174E+02 -0.52379116461E+02  0.97441997298E+02  0.41800000000E+01 0. -1.
         -5    1    3    3    0  502  0.51181921401E+02 -0.58944040552E+02 -0.11424418014E+03  0.13843118901E+03  0.41800000000E+01 0. -1.
        -11    1    1    2    0    0  0.11989589006E+02  0.63142695394E+02 -0.15507501954E+03  0.16786605349E+03  0.00000000000E+00 0. -1.
         11    1    1    2    0    0  0.12500007103E+01  0.46632118333E+02 -0.28026054161E+02  0.54420370027E+02  0.00000000000E+00 0.  1.
</event>
<event>
 7    1  0.2490079E-009  0.1367827E+03  0.7561462E-02  0.1217725E+00
         -1   -1    0    0    0  501 -0.00000000000E+00  0.00000000000E+00  0.15500607652E+02  0.15500607652E+02  0.00000000000E+00 0.  1.
          1   -1    0    0  501    0  0.00000000000E+00 -0.00000000000E+00 -0.15647552111E+04  0.15647552111E+04  0.00000000000E+00 0. -1.
         25    2    1    2    0    0 -0.13597367382E+02  0.59031574060E+02 -0.10013163184E+04  0.10109165431E+04  0.12509305588E+03 0.  0.
          5    1    3    3  502    0 -0.60050467245E+02  0.64257039636E+02 -0.75960695500E+03  0.76469289538E+03  0.41800000000E+01 0. -1.
         -5    1    3    3    0  502  0.46453099863E+02 -0.52254655760E+01 -0.24170936335E+03  0.24622364774E+03  0.41800000000E+01 0. -1.
        -11    1    1    2    0    0  0.36348139066E+02 -0.91776329713E+02 -0.48417966065E+03  0.49413968237E+03  0.00000000000E+00 0. -1.
         11    1    1    2    0    0 -0.22750771684E+02  0.32744755654E+02 -0.63758624490E+02  0.75199593296E+02  0.00000000000E+00 0.  1.
</event>
<event>
 7    1  0.2490079E-009  0.9297671E+02  0.7561462E-02  0.1295799E+00
         -2   -1    0    0    0  501 -0.00000000000E+00  0.00000000000E+00  0.14572510045E+03  0.14572510045E+03  0.00000000000E+00 0. -1.
          2   -1    0    0  501    0  0.00000000000E+00 -0.00000000000E+00 -0.12327212574E+03  0.12327212574E+03  0.00000000000E+00 0.  1.
         25    2    1    2    0    0  0.43015928922E+02  0.64052862398E+02 -0.98937487895E+00  0.14697808404E+03  0.12509372087E+03 0.  0.
          5    1    3    3  502    0  0.32226396537E+02  0.19273605529E+02 -0.60670935275E+02  0.71473402682E+02  0.41800000000E+01 0.  1.
         -5    1    3    3    0  502  0.10789532385E+02  0.44779256869E+02  0.59681560396E+02  0.75504681353E+02  0.41800000000E+01 0.  1.
        -11    1    1    2    0    0 -0.54175414341E+02 -0.70594121430E+02 -0.66805017866E+01  0.89236397303E+02  0.00000000000E+00 0.  1.
         11    1    1    2    0    0  0.11159485419E+02  0.65412590321E+01  0.30122851378E+02  0.32782744847E+02  0.00000000000E+00 0. -1.
</event>
<event>
 7    1  0.2490079E-009  0.1496638E+03  0.7561462E-02  0.1200887E+00
          1   -1    0    0  501    0  0.00000000000E+00  0.00000000000E+00  0.51749235173E+02  0.51749235173E+02  0.00000000000E+00 0. -1.
         -1   -1    0    0    0  501 -0.00000000000E+00 -0.00000000000E+00 -0.59356333682E+03  0.59356333682E+03  0.00000000000E+00 0.  1.
         25    2    1    2    0    0 -0.61888932854E+01 -0.12664726680E+03 -0.19316252053E+03  0.26274480972E+03  0.12508094623E+03 0.  0.
          5    1    3    3  502    0 -0.33604710844E+02 -0.11697720676E+03 -0.79698786008E+02  0.14554144558E+03  0.41800000000E+01 0.  1.
         -5    1    3    3    0  502  0.27415817559E+02 -0.96700600496E+01 -0.11346373453E+03  0.11720336414E+03  0.41800000000E+01 0.  1.
        -11    1    1    2    0    0 -0.33903560712E+02  0.38249471408E+02 -0.64509221878E+02  0.82303786056E+02  0.00000000000E+00 0.  1.
         11    1    1    2    0    0  0.40092453998E+02  0.88397795397E+02 -0.28414235923E+03  0.30026397621E+03  0.00000000000E+00 0. -1.
</event>
<event>
 7    1  0.3198394E-009  0.1134225E+03  0.7561462E-02  0.1254360E+00
         -1   -1    0    0    0  501 -0.00000000000E+00  0.00000000000E+00  0.27946346056E+02  0.27946346056E+02  0.00000000000E+00 0.  1.
          1   -1    0    0  501    0  0.00000000000E+00 -0.00000000000E+00 -0.83459189582E+03  0.83459189582E+03  0.00000000000E+00 0. -1.
         25    2    1    2    0    0 -0.87411264569E+02  0.56664898002E+02 -0.50577767604E+03  0.53132615455E+03  0.12507911531E+03 0.  0.
          5    1    3    3  502    0 -0.61723632543E+02  0.25070325161E+02 -0.82725126971E+02  0.10629791649E+03  0.41800000000E+01 0.  1.
         -5    1    3    3    0  502 -0.25687632026E+02  0.31594572842E+02 -0.42305254907E+03  0.42502823806E+03  0.41800000000E+01 0.  1.
        -11    1    1    2    0    0  0.49510702915E+02  0.17330182289E+01 -0.48167689840E+02  0.69097318326E+02  0.00000000000E+00 0.  1.
         11    1    1    2    0    0  0.37900561654E+02 -0.58397916231E+02 -0.25270018388E+03  0.26211476900E+03  0.00000000000E+00 0. -1.
</event>
<event>
 7    1  0.2781784E-009  0.8901584E+02  0.7561462E-02  0.1305253E+00
          1   -1    0    0  501    0  0.00000000000E+00  0.00000000000E+00  0.91156449854E+03  0.91156449854E+03  0.00000000000E+00 0. -1.
         -1   -1    0    0    0  501 -0.00000000000E+00 -0.00000000000E+00 -0.14649166903E+02  0.14649166903E+02  0.00000000000E+00 0.  1.
         25    2    1    2    0    0  0.32062156518E+02  0.23265780075E+02  0.53126081945E+03  0.54722534818E+03  0.12509294546E+03 0.  0.
          5    1    3    3  502    0 -0.15343977050E+02 -0.11863555388E+02  0.42616633899E+03  0.42662794384E+03  0.41800000000E+01 0. -1.
         -5    1    3    3    0  502  0.47406133567E+02  0.35129335464E+02  0.10509448046E+03  0.12059740434E+03  0.41800000000E+01 0. -1.
        -11    1    1    2    0    0 -0.54471080205E+02 -0.42829298128E+02  0.27407300363E+03  0.28269676099E+03  0.00000000000E+00 0.  1.
         11    1    1    2    0    0  0.22408923687E+02  0.19563518053E+02  0.91581508560E+02  0.96291556274E+02  0.00000000000E+00 0. -1.
</event>
<event>
 7    1  0.2490079E-009  0.1237150E+03  0.7561462E-02  0.1237091E+00
         -2   -1    0    0    0  501 -0.00000000000E+00  0.00000000000E+00  0.10010927937E+03  0.10010927937E+03  0.00000000000E+00 0.  1.
          2   -1    0    0  501    0  0.00000000000E+00 -0.00000000000E+00 -0.22069345386E+03  0.22069345386E+03  0.00000000000E+00 0. -1.
         25    2    1    2    0    0  0.42092686321E+02  0.37220646183E+02  0.23282758454E+02  0.13909095758E+03  0.12508811652E+03 0.  0.
          5    1    3    3  502    0  0.64110809852E+02  0.71530477105E+02  0.16471139982E+02  0.97547813645E+02  0.41800000000E+01 0.  1.
         -5    1    3    3    0  502 -0.22018123531E+02 -0.34309830922E+02  0.68116184723E+01  0.41543143934E+02  0.41800000000E+01 0.  1.
        -11    1    1    2    0    0 -0.72826677429E+02 -0.22491281607E+02 -0.10849560738E+03  0.13259290899E+03  0.00000000000E+00 0. -1.
         11    1    1    2    0    0  0.30733991108E+02 -0.14729364576E+02 -0.35371325565E+02  0.49118866665E+02  0.00000000000E+00 0.  1.
</event>
<event>
 7    1  0.2490079E-009  0.1591031E+03  0.7561462E-02  0.1189713E+00
          1   -1    0    0  501    0  0.00000000000E+00  0.00000000000E+00  0.31597377331E+03  0.31597377331E+03  0.00000000000E+00 0. -1.
         -1   -1    0    0    0  501 -0.00000000000E+00 -0.00000000000E+00 -0.85671318109E+02  0.85671318109E+02  0.00000000000E+00 0.  1.
         25    2    1    2    0    0  0.85335727698E+02  0.89464941161E+02  0.13341219386E+03  0.22075491503E+03  0.12509099456E+03 0.  0.
          5    1    3    3  502    0  0.55442775357E+02  0.11436433861E+03  0.12939426130E+03  0.18142064530E+03  0.41800000000E+01 0. -1.
         -5    1    3    3    0  502  0.29892952341E+02 -0.24899397447E+02  0.40179325651E+01  0.39334269727E+02  0.41800000000E+01 0. -1.
        -11    1    1    2    0    0 -0.22208199639E+02 -0.85857909504E+02  0.47138683403E+02  0.10043326256E+03  0.00000000000E+00 0.  1.
         11    1    1    2    0    0 -0.63127528059E+02 -0.36070316571E+01  0.49751577937E+02  0.80456913833E+02  0.00000000000E+00 0. -1.
</event>
<event>
 7    1  0.2490079E-009  0.1422488E+03  0.7561462E-02  0.1210335E+00
          2   -1    0    0  501    0  0.00000000000E+00  0.00000000000E+00  0.60209644184E+03  0.60209644184E+03  0.00000000000E+00 0. -1.
         -2   -1    0    0    0  501 -0.00000000000E+00 -0.00000000000E+00 -0.51559754036E+02  0.51559754036E+02  0.00000000000E+00 0.  1.
         25    2    1    2    0    0  0.13048008156E+03  0.14022736672E+02  0.37368828703E+03  0.41534555614E+03  0.12508919342E+03 0.  0.
          5    1    3    3  502    0  0.10965372937E+03 -0.97914030381E+01  0.13368895057E+03  0.17323400313E+03  0.41800000000E+01 0.  1.
         -5    1    3    3    0  502  0.20826352196E+02  0.23814139710E+02  0.23999933646E+03  0.24211155300E+03  0.41800000000E+01 0.  1.
        -11    1    1    2    0    0 -0.19381281543E+02 -0.24026002342E+02  0.95183498606E+02  0.10006388594E+03  0.00000000000E+00 0. -1.
         11    1    1    2    0    0 -0.11109880002E+03  0.10003265671E+02  0.81664902169E+02  0.13824675380E+03  0.00000000000E+00 0.  1.
</event>
<event>
 7    1  0.2490079E-009  0.1746721E+03  0.7561462E-02  0.1173061E+00
          1   -1    0    0  501    0  0.00000000000E+00  0.00000000000E+00  0.66494784972E+03  0.66494784972E+03  0.00000000000E+00 0.  1.
         -1   -1    0    0    0  501 -0.00000000000E+00 -0.00000000000E+00 -0.50292285117E+02  0.50292285117E+02  0.00000000000E+00 0. -1.
         25    2    1    2    0    0  0.96476296545E+02 -0.10615274599E+03  0.25952539278E+03  0.32183380193E+03  0.12508990885E+03 0.  0.
          5    1    3    3  502    0  0.63762702439E+02  0.58635618810E+01  0.14363475934E+03  0.15731649650E+03  0.41800000000E+01 0.  1.
         -5    1    3    3    0  502  0.32713594106E+02 -0.11201630788E+03  0.11589063343E+03  0.16451730543E+03  0.41800000000E+01 0.  1.
        -11    1    1    2    0    0 -0.99800863523E+02  0.49043887005E+02  0.21514515428E+03  0.24218371667E+03  0.00000000000E+00 0.  1.
         11    1    1    2    0    0  0.33245669784E+01  0.57108858989E+02  0.13998501755E+03  0.15122261623E+03  0.00000000000E+00 0. -1.
</event>
<event>
 7    1  0.2490079E-009  0.1872754E+03  0.7561462E-02  0.1160942E+00
         -1   -1    0    0    0  501 -0.00000000000E+00  0.00000000000E+00  0.13340287343E+03  0.13340287343E+03  0.00000000000E+00 0.  1.
          1   -1    0    0  501    0  0.00000000000E+00 -0.00000000000E+00 -0.47459907112E+03  0.47459907112E+03  0.00000000000E+00 0. -1.
         25    2    1    2    0    0 -0.13675528437E+03 -0.75220357439E+02  0.22454793435E+02  0.20127709059E+03  0.12509252365E+03 0.  0.
          5    1    3    3  502    0 -0.14071740114E+03 -0.17342288440E+02  0.14878956530E+02  0.14262186964E+03  0.41800000000E+01 0.  1.
         -5    1    3    3    0  502  0.39621167675E+01 -0.57878068999E+02  0.75758369056E+01  0.58655220954E+02  0.41800000000E+01 0.  1.
        -11    1    1    2    0    0  0.11648141163E+03  0.23278127770E+02 -0.29670819313E+03  0.31960216263E+03  0.00000000000E+00 0.  1.
         11    1    1    2    0    0  0.20273872746E+02  0.51942229669E+02 -0.66942798005E+02  0.87122691326E+02  0.00000000000E+00 0. -1.
</event>
<event>
 7    1  0.2490079E-009  0.1249153E+03  0.7561462E-02  0.1235202E+00
         -2   -1    0    0    0  501 -0.00000000000E+00  0.00000000000E+00  0.18075660754E+03  0.18075660754E+03  0.00000000000E+00 0.  1.
          2   -1    0    0  501    0  0.00000000000E+00 -0.00000000000E+00 -0.10514269914E+03  0.10514269914E+03  0.00000000000E+00 0. -1.
         25    2    1    2    0    0 -0.49035847240E+02 -0.40591048441E+02 -0.17921058630E+02  0.14149211228E+03  0.12508679374E+03 0.  0.
          5    1    3    3  502    0  0.31211820004E+02 -0.50343344206E+02 -0.62506825348E+01  0.59709073397E+02  0.41800000000E+01 0. -1.
         -5    1    3    3    0  502 -0.80247667244E+02  0.97522957653E+01 -0.11670376095E+02  0.81783038883E+02  0.41800000000E+01 0. -1.
        -11    1    1    2    0    0  0.55185950991E+02 -0.12065089689E+02  0.41245668152E+02  0.69944697564E+02  0.00000000000E+00 0. -1.
         11    1    1    2    0    0 -0.61501037506E+01  0.52656138130E+02  0.52289298871E+02  0.74462496838E+02  0.00000000000E+00 0.  1.
</event>
<event>
 7    1  0.2490079E-009  0.1083350E+03  0.7561462E-02  0.1263685E+00
         -3   -1    0    0    0  501 -0.00000000000E+00  0.00000000000E+00  0.20424224197E+03  0.20424224197E+03  0.00000000000E+00 0.  1.
          3   -1    0    0  501    0  0.00000000000E+00 -0.00000000000E+00 -0.85008256804E+02  0.85008256804E+02  0.00000000000E+00 0. -1.
         25    2    1    2    0    0 -0.60355922947E+02 -0.16717999537E+02  0.70946582387E+02  0.15685706524E+03  0.12509353469E+03 0.  0.
          5    1    3    3  502    0  0.25123719477E+02  0.15236871867E+02 -0.13359878008E+02  0.32547231603E+02  0.41800000000E+01 0.  1.
         -5    1    3    3    0  502 -0.85479642424E+02 -0.31954871404E+02  0.84306460395E+02  0.12430983364E+03  0.41800000000E+01 0.  1.
        -11    1    1    2    0    0  0.37523731824E+02 -0.27060511525E+02  0.65424643910E+02  0.80129181730E+02  0.00000000000E+00 0.  1.
         11    1    1    2    0    0  0.22832191123E+02  0.43778511062E+02 -0.17137241133E+02  0.52264251797E+02  0.00000000000E+00 0. -1.
</event>
<event>
 7    1  0.2490079E-009  0.8518723E+02  0.7561462E-02  0.1314944E+00
         -1   -1    0    0    0  501 -0.00000000000E+00  0.00000000000E+00  0.36636515092E+03  0.36636515092E+03  0.00000000000E+00 0.  1.
          1   -1    0    0  501    0  0.00000000000E+00 -0.00000000000E+00 -0.42531757958E+02  0.42531757958E+02  0.00000000000E+00 0. -1.
         25    2    1    2    0    0 -0.24387928305E+02 -0.30876944885E+02  0.25810395555E+03  0.28950660982E+03  0.12509303931E+03 0.  0.
          5    1    3    3  502    0 -0.49146607598E+02 -0.10174172823E+02  0.29025100432E+02  0.58127718742E+02  0.41800000000E+01 0.  1.
         -5    1    3    3    0  502  0.24758679293E+02 -0.20702772062E+02  0.22907885512E+03  0.23137889107E+03  0.41800000000E+01 0.  1.
        -11    1    1    2    0    0 -0.10983375258E+02  0.47237022348E+02  0.64107572327E+02  0.80385021255E+02  0.00000000000E+00 0.  1.
         11    1    1    2    0    0  0.35371303564E+02 -0.16360077463E+02  0.16218650808E+01  0.39005277806E+02  0.00000000000E+00 0. -1.
</event>
<event>
 7    1  0.2490079E-009  0.1044350E+03  0.7561462E-02  0.1271237E+00
          2   -1    0    0  501    0  0.00000000000E+00  0.00000000000E+00  0.52165959168E+03  0.52165959168E+03  0.00000000000E+00 0. -1.
         -2   -1    0    0    0  501 -0.00000000000E+00 -0.00000000000E+00 -0.29399085997E+02  0.29399085997E+02  0.00000000000E+00 0.  1.
         25    2    1    2    0    0  0.37455617895E+02 -0.46553418557E+02  0.28651820119E+03  0.31829366930E+03  0.12509211092E+03 0.  0.
          5    1    3    3  502    0 -0.70992619081E+01  0.35019164638E+02  0.14144504128E+03  0.14594832481E+03  0.41800000000E+01 0. -1.
         -5    1    3    3    0  502  0.44554879803E+02 -0.81572583195E+02  0.14507315991E+03  0.17234534449E+03  0.41800000000E+01 0. -1.
        -11    1    1    2    0    0 -0.48276184812E+02  0.22062388125E+02  0.19785725410E+03  0.20485319619E+03  0.00000000000E+00 0. -1.
         11    1    1    2    0    0  0.10820566916E+02  0.24491030432E+02  0.78850504060E+01  0.27911812194E+02  0.00000000000E+00 0.  1.
</event>
<event>
 7    1  0.2490079E-009  0.1724155E+03  0.7561462E-02  0.1175352E+00
          1   -1    0    0  501    0  0.00000000000E+00  0.00000000000E+00  0.73617302273E+03  0.73617302273E+03  0.00000000000E+00 0. -1.
         -1   -1    0    0    0  501 -0.00000000000E+00 -0.00000000000E+00 -0.51184045224E+02  0.51184045224E+02  0.00000000000E+00 0.  1.
         25    2    1    2    0    0  0.76944033147E+02 -0.13437128512E+03  0.44289523554E+03  0.48557277179E+03  0.12509476622E+03 0.  0.
          5    1    3    3  502    0  0.69454467458E+02 -0.16178262554E+02  0.24206982452E+03  0.25239043479E+03  0.41800000000E+01 0. -1.
         -5    1    3    3    0  502  0.74895656885E+01 -0.11819302256E+03  0.20082541102E+03  0.23318233700E+03  0.41800000000E+01 0. -1.
        -11    1    1    2    0    0 -0.13673842472E+02  0.20990862550E+02 -0.21811437088E+01  0.25146523943E+02  0.00000000000E+00 0.  1.
         11    1    1    2    0    0 -0.63270190675E+02  0.11338042257E+03  0.24427488568E+03  0.27663777222E+03  0.00000000000E+00 0. -1.
</event>
<event>
 7    1  0.2490079E-009  0.9797406E+02  0.7561462E-02  0.1284615E+00
         -4   -1    0    0    0  501 -0.00000000000E+00  0.00000000000E+00  0.48874813182E+02  0.48874813182E+02  0.00000000000E+00 0.  1.
          4   -1    0    0  501    0  0.00000000000E+00 -0.00000000000E+00 -0.36408984887E+03  0.36408984887E+03  0.00000000000E+00 0. -1.
         25    2    1    2    0    0 -0.46007402705E+02 -0.66897942938E+02 -0.19824619606E+03  0.24807771818E+03  0.12509589974E+03 0.  0.
          5    1    3    3  502    0 -0.31329894412E+02 -0.50085948889E+02 -0.11970024559E+02  0.60422830518E+02  0.41800000000E+01 0.  1.
         -5    1    3    3    0  502 -0.14677508293E+02 -0.16811994050E+02 -0.18627617150E+03  0.18765488766E+03  0.41800000000E+01 0.  1.
        -11    1    1    2    0    0  0.63833511368E+02  0.71255293799E+02 -0.84742045925E+02  0.12780159786E+03  0.00000000000E+00 0.  1.
         11    1    1    2    0    0 -0.17826108663E+02 -0.43573508601E+01 -0.32226793701E+02  0.37085346012E+02  0.00000000000E+00 0. -1.
</event>
<event>
 7    1  0.2490079E-009  0.5225957E+02  0.7561462E-02  0.1433522E+00
          2   -1    0    0  501    0  0.00000000000E+00  0.00000000000E+00  0.25121249950E+02  0.25121249950E+02  0.00000000000E+00 0. -1.
         -2   -1    0    0    0  501 -0.00000000000E+00 -0.00000000000E+00 -0.54933902661E+03  0.54933902661E+03  0.00000000000E+00 0.  1.
         25    2    1    2    0    0 -0.17517230667E+02 -0.90001370139E+01 -0.40552786425E+03  0.42483857837E+03  0.12508842132E+03 0.  0.
          5    1    3    3  502    0 -0.20867414337E+02  0.15043046006E+02 -0.39832176972E+03  0.39917345458E+03  0.41800000000E+01 0.  1.
         -5    1    3    3    0  502  0.33501836701E+01 -0.24043183020E+02 -0.72060945317E+01  0.25665123782E+02  0.41800000000E+01 0.  1.
        -11    1    1    2    0    0 -0.55517271505E+01 -0.17693465653E+02  0.64266098050E+01  0.19626046845E+02  0.00000000000E+00 0. -1.
         11    1    1    2    0    0  0.23068957817E+02  0.26693602667E+02 -0.12511652222E+03  0.12999565135E+03  0.00000000000E+00 0.  1.
</event>
<event>
 7    1  0.2490079E-009  0.1327059E+03  0.7561462E-02  0.1223495E+00
          2   -1    0    0  501    0  0.00000000000E+00  0.00000000000E+00  0.57295435010E+02  0.57295435010E+02  0.00000000000E+00 0. -1.
         -2   -1    0    0    0  501 -0.00000000000E+00 -0.00000000000E+00 -0.32798644803E+03  0.32798644803E+03  0.00000000000E+00 0.  1.
         25    2    1    2    0    0 -0.67976437092E+02  0.34899199006E+02 -0.10355372665E+03  0.17946671544E+03  0.12508468154E+03 0.  0.
          5    1    3    3  502    0  0.36059142583E+02 -0.13116496083E+01 -0.26834378452E+02  0.45161249489E+02  0.41800000000E+01 0. -1.
         -5    1    3    3    0  502 -0.10403557968E+03  0.36210848614E+02 -0.76719348203E+02  0.13430546595E+03  0.41800000000E+01 0. -1.
        -11    1    1    2    0    0  0.28225149257E+02 -0.63759610899E+02 -0.11236361296E+03  0.13224041950E+03  0.00000000000E+00 0.  1.
         11    1    1    2    0    0  0.39751287835E+02  0.28860411893E+02 -0.54773673407E+02  0.73574748098E+02  0.00000000000E+00 0. -1.
</event>
<event>
 7    1  0.2490079E-009  0.9676585E+02  0.7561462E-02  0.1287248E+00
         -1   -1    0    0    0  501 -0.00000000000E+00  0.00000000000E+00  0.42245511192E+02  0.42245511192E+02  0.00000000000E+00 0.  1.
          1   -1    0    0  501    0  0.00000000000E+00 -0.00000000000E+00 -0.41404862530E+03  0.41404862530E+03  0.00000000000E+00 0. -1.
         25    2    1    2    0    0  0.43024961845E+02 -0.36291027215E+02 -0.29622779284E+03  0.32644345431E+03  0.12508492161E+03 0.  0.
          5    1    3    3  502    0  0.31161528740E+00 -0.77265308436E+02 -0.15442997997E+03  0.17273134083E+03  0.41800000000E+01 0.  1.
         -5    1    3    3    0  502  0.42713346558E+02  0.40974281221E+02 -0.14179781286E+03  0.15371211347E+03  0.41800000000E+01 0.  1.
        -11    1    1    2    0    0 -0.86547491629E+01  0.11708455680E+02  0.20354718135E+02  0.25026129701E+02  0.00000000000E+00 0.  1.
         11    1    1    2    0    0 -0.34370212682E+02  0.24582571535E+02 -0.95930039408E+02  0.10482455249E+03  0.00000000000E+00 0. -1.
</event>
<event>
 7    1  0.2490079E-009  0.1667340E+03  0.7561462E-02  0.1181297E+00
          1   -1    0    0  501    0  0.00000000000E+00  0.00000000000E+00  0.29494714701E+03  0.29494714701E+03  0.00000000000E+00 0. -1.
         -1   -1    0    0    0  501 -0.00000000000E+00 -0.00000000000E+00 -0.16008104481E+03  0.16008104481E+03  0.00000000000E+00 0.  1.
         25    2    1    2    0    0  0.96986314233E+02 -0.11714412546E+03  0.18629841776E+03  0.27107970008E+03  0.12509201436E+03 0.  0.
          5    1    3    3  502    0  0.54431248117E+02 -0.35296266545E+02  0.16351878095E+03  0.17596718821E+03  0.41800000000E+01 0. -1.
         -5    1    3    3    0  502  0.42555066116E+02 -0.81847858911E+02  0.22779636814E+02  0.95112511868E+02  0.41800000000E+01 0. -1.
        -11    1    1    2    0    0 -0.37784225665E+02 -0.71384241442E+01 -0.56093743597E+01  0.38859617716E+02  0.00000000000E+00 0.  1.
         11    1    1    2    0    0 -0.59202088568E+02  0.12428254960E+03 -0.45822941198E+02  0.14508887403E+03  0.00000000000E+00 0. -1.
</event>
<event>
 7    1  0.2490079E-009  0.2293261E+03  0.7561462E-02  0.1127115E+00
          3   -1    0    0  501    0  0.00000000000E+00  0.00000000000E+00  0.31747438524E+03  0.31747438524E+03  0.00000000000E+00 0. -1.
         -3   -1    0    0    0  501 -0.00000000000E+00 -0.00000000000E+00 -0.17514409914E+03  0.17514409914E+03  0.00000000000E+00 0.  1.
         25    2    1    2    0    0  0.95577858073E+01  0.20718862611E+03  0.46957384572E+02  0.24672479018E+03  0.12509855341E+03 0.  0.
          5    1    3    3  502    0  0.64253868507E+02  0.82449748624E+02  0.33244106219E+02  0.10976868253E+03  0.41800000000E+01 0. -1.
         -5    1    3    3    0  502 -0.54696082700E+02  0.12473887749E+03  0.13713278353E+02  0.13695610765E+03  0.41800000000E+01 0. -1.
        -11    1    1    2    0    0 -0.30945302895E+02 -0.18250663633E+03  0.53299477596E+02  0.19263208037E+03  0.00000000000E+00 0.  1.
         11    1    1    2    0    0  0.21387517088E+02 -0.24681989780E+02  0.42073423932E+02  0.53261613833E+02  0.00000000000E+00 0. -1.
</event>
<event>
 7    1  0.2490782E-009  0.1089704E+03  0.7561462E-02  0.1262489E+00
         -2   -1    0    0    0  501 -0.00000000000E+00  0.00000000000E+00  0.32577320833E+02  0.32577320833E+02  0.00000000000E+00 0.  1.
          2   -1    0    0  501    0  0.00000000000E+00 -0.00000000000E+00 -0.64759970015E+03  0.64759970015E+03  0.00000000000E+00 0. -1.
         25    2    1    2    0    0 -0.29986021063E+02 -0.66844231993E+02 -0.18938542801E+03  0.23850120895E+03  0.12509465824E+03 0.  0.
          5    1    3    3  502    0 -0.47175698833E+02  0.41024959323E+01 -0.14585271102E+03  0.15340424618E+03  0.41800000000E+01 0.  1.
         -5    1    3    3    0  502  0.17189677770E+02 -0.70946727925E+02 -0.43532716987E+02  0.85096962774E+02  0.41800000000E+01 0.  1.
        -11    1    1    2    0    0  0.23566303765E+02 -0.58703202878E+01 -0.26609639227E+02  0.36026437976E+02  0.00000000000E+00 0.  1.
         11    1    1    2    0    0  0.64197172977E+01  0.72714552281E+02 -0.39902731208E+03  0.40564937405E+03  0.00000000000E+00 0. -1.
</event>
<event>
 7    1  0.2490079E-009  0.2031285E+03  0.7561462E-02  0.1147126E+00
          1   -1    0    0  501    0  0.00000000000E+00  0.00000000000E+00  0.20773528401E+03  0.20773528401E+03  0.00000000000E+00 0. -1.
         -1   -1    0    0    0  501 -0.00000000000E+00 -0.00000000000E+00 -0.24533828756E+03  0.24533828756E+03  0.00000000000E+00 0.  1.
         25    2    1    2    0    0  0.16067535408E+02 -0.18341635184E+03 -0.91531583576E+02  0.24067651254E+03  0.12508968415E+03 0.  0.
          5    1    3    3  502    0 -0.11953269646E+02 -0.17933821720E+03 -0.43836315139E+02  0.18505180823E+03  0.41800000000E+01 0.  1.
         -5    1    3    3    0  502  0.28020805054E+02 -0.40781346361E+01 -0.47695268437E+02  0.55624704308E+02  0.41800000000E+01 0.  1.
        -11    1    1    2    0    0 -0.45043440375E+02  0.10515932203E+03  0.59145372473E+02  0.12878497434E+03  0.00000000000E+00 0.  1.
         11    1    1    2    0    0  0.28975904966E+02  0.78257029807E+02 -0.52167924473E+01  0.83612084690E+02  0.00000000000E+00 0. -1.
</event>
<event>
 7    1  0.2490079E-009  0.2023154E+03  0.7561462E-02  0.1147800E+00
          1   -1    0    0  501    0  0.00000000000E+00  0.00000000000E+00  0.23019926263E+03  0.23019926263E+03  0.00000000000E+00 0. -1.
         -1   -1    0    0    0  501 -0.00000000000E+00 -0.00000000000E+00 -0.22184118663E+03  0.22184118663E+03  0.00000000000E+00 0.  1.
         25    2    1    2    0    0  0.16806533168E+03 -0.65915339069E+02  0.85716643359E+02  0.23576597249E+03  0.12508982051E+03 0.  0.
          5    1    3    3  502    0  0.15259605448E+03 -0.87708538759E+01  0.87913446827E+02  0.17637667151E+03  0.41800000000E+01 0.  1.
         -5    1    3    3    0  502  0.15469277205E+02 -0.57144485193E+02 -0.21968034678E+01  0.59389300979E+02  0.41800000000E+01 0.  1.
        -11    1    1    2    0    0 -0.59431721405E+02 -0.94256977623E+01 -0.56299372723E+02  0.82405052373E+02  0.00000000000E+00 0.  1.
         11    1    1    2    0    0 -0.10863361028E+03  0.75341036831E+02 -0.21059194635E+02  0.13386942441E+03  0.00000000000E+00 0. -1.
</event>
<event>
 7    1  0.2490079E-009  0.1133576E+03  0.7561462E-02  0.1254475E+00
          4   -1    0    0  501    0  0.00000000000E+00  0.00000000000E+00  0.15322603863E+03  0.15322603863E+03  0.00000000000E+00 0. -1.
         -4   -1    0    0    0  501 -0.00000000000E+00 -0.00000000000E+00 -0.27202559138E+03  0.27202559138E+03  0.00000000000E+00 0.  1.
         25    2    1    2    0    0 -0.10459800211E+02 -0.72005814875E+02 -0.22679213140E+03  0.26902770710E+03  0.12508793519E+03 0.  0.
          5    1    3    3  502    0  0.75326068918E+01 -0.10517755783E+03 -0.18126464300E+03  0.20974604178E+03  0.41800000000E+01 0.  1.
         -5    1    3    3    0  502 -0.17992407102E+02  0.33171742960E+02 -0.45527488398E+02  0.59281665329E+02  0.41800000000E+01 0.  1.
        -11    1    1    2    0    0 -0.10639110903E+02  0.55276591252E+02  0.11531395753E+03  0.12831991670E+03  0.00000000000E+00 0. -1.
         11    1    1    2    0    0  0.21098911113E+02  0.16729223623E+02 -0.73213788921E+01  0.27904006202E+02  0.00000000000E+00 0.  1.
</event>
<event>
 7    1  0.2490079E-009  0.1075862E+03  0.7561462E-02  0.1265106E+00
         -1   -1    0    0    0  501 -0.00000000000E+00  0.00000000000E+00  0.14801564333E+02  0.14801564333E+02  0.00000000000E+00 0.  1.
          1   -1    0    0  501    0  0.00000000000E+00 -0.00000000000E+00 -0.16636598101E+04  0.16636598101E+04  0.00000000000E+00 0. -1.
         25    2    1    2    0    0  0.79305568629E+02 -0.24175162092E+02 -0.12918094106E+04  0.13004977232E+04  0.12509581530E+03 0.  0.
          5    1    3    3  502    0  0.58361297519E+01 -0.17325903728E+02 -0.97506190265E+03  0.97524224362E+03  0.41800000000E+01 0. -1.
         -5    1    3    3    0  502  0.73469438878E+02 -0.68492583640E+01 -0.31674750797E+03  0.32525547958E+03  0.41800000000E+01 0. -1.
        -11    1    1    2    0    0 -0.76489235611E+02 -0.19347531166E+02 -0.25658285341E+03  0.26843936148E+03  0.00000000000E+00 0. -1.
         11    1    1    2    0    0 -0.28163330186E+01  0.43522693258E+02 -0.10046598174E+03  0.10952428976E+03  0.00000000000E+00 0.  1.
</event>
<event>
 7    1  0.2490079E-009  0.1274268E+03  0.7561462E-02  0.1231325E+00
          1   -1    0    0  501    0  0.00000000000E+00  0.00000000000E+00  0.53194487857E+03  0.53194487857E+03  0.00000000000E+00 0. -1.
         -1   -1    0    0    0  501 -0.00000000000E+00 -0.00000000000E+00 -0.37861154987E+02  0.37861154987E+02  0.00000000000E+00 0.  1.
         25    2    1    2    0    0 -0.10906952048E+02 -0.91954857813E+02  0.29809100260E+03  0.33627388295E+03  0.12508885261E+03 0.  0.
          5    1    3    3  502    0  0.55381763434E+02 -0.29985753993E+02  0.98558926381E+02  0.11703682981E+03  0.41800000000E+01 0. -1.
         -5    1    3    3    0  502 -0.66288715482E+02 -0.61969103819E+02  0.19953207622E+03  0.21923705314E+03  0.41800000000E+01 0. -1.
        -11    1    1    2    0    0 -0.14854322380E+02  0.44308812604E+02  0.16421241658E+03  0.17073265513E+03  0.00000000000E+00 0. -1.
         11    1    1    2    0    0  0.25761274427E+02  0.47646045208E+02  0.31780304401E+02  0.62799495475E+02  0.00000000000E+00 0.  1.
</event>
<event>
 7    1  0.2490079E-009  0.9771087E+02  0.7561462E-02  0.1285185E+00
         -1   -1    0    0    0  501 -0.00000000000E+00  0.00000000000E+00  0.63596780734E+02  0.63596780734E+02  0.00000000000E+00 0.  1.
          1   -1    0    0  501    0  0.00000000000E+00 -0.00000000000E+00 -0.24126274496E+03  0.24126274496E+03  0.00000000000E+00 0. -1.
         25    2    1    2    0    0  0.97227765119E+01  0.23136054877E+02 -0.14961948937E+03  0.19663070679E+03  0.12509130200E+03 0.  0.
          5    1    3    3  502    0  0.24040936810E+01  0.74838413338E+02 -0.93534113224E+02  0.11988607306E+03  0.41800000000E+01 0.  1.
         -5    1    3    3    0  502  0.73186828309E+01 -0.51702358461E+02 -0.56085376147E+02  0.76744633730E+02  0.41800000000E+01 0.  1.
        -11    1    1    2    0    0 -0.35712408140E+02 -0.43529099481E+01  0.26686625929E+02  0.44793971957E+02  0.00000000000E+00 0.  1.
         11    1    1    2    0    0  0.25989631628E+02 -0.18783144929E+02 -0.54733100784E+02  0.63434846946E+02  0.00000000000E+00 0. -1.
</event>
<event>
 7    1  0.2490079E-009  0.2114096E+03  0.7561462E-02  0.1140455E+00
         -2   -1    0    0    0  501 -0.00000000000E+00  0.00000000000E+00  0.44499114371E+02  0.44499114371E+02  0.00000000000E+00 0.  1.
          2   -1    0    0  501    0  0.00000000000E+00 -0.00000000000E+00 -0.11846749705E+04  0.11846749705E+04  0.00000000000E+00 0. -1.
         25    2    1    2    0    0  0.12355902613E+03  0.15667913336E+03 -0.64391078062E+03  0.68562607120E+03  0.12508729888E+03 0.  0.
          5    1    3    3  502    0  0.48260010169E+02  0.81624888895E+02 -0.48621736174E+03  0.49539524253E+03  0.41800000000E+01 0.  1.
         -5    1    3    3    0  502  0.75299015958E+02  0.75054244461E+02 -0.15769341888E+03  0.19023082866E+03  0.41800000000E+01 0.  1.
        -11    1    1    2    0    0 -0.67769088882E+02 -0.15089653908E+03 -0.35962930952E+03  0.39584802030E+03  0.00000000000E+00 0. -1.
         11    1    1    2    0    0 -0.55789937245E+02 -0.57825942811E+01 -0.13663576601E+03  0.14769999339E+03  0.00000000000E+00 0.  1.
</event>
<event>
 7    1  0.2490079E-009  0.1351778E+03  0.7561462E-02  0.1219969E+00
         -2   -1    0    0    0  501 -0.00000000000E+00  0.00000000000E+00  0.25501731303E+02  0.25501731303E+02  0.00000000000E+00 0.  1.
          2   -1    0    0  501    0  0.00000000000E+00 -0.00000000000E+00 -0.72357852231E+03  0.72357852231E+03  0.00000000000E+00 0. -1.
         25    2    1    2    0    0 -0.71097232002E+02  0.40132751350E+02 -0.39373056915E+03  0.42111147293E+03  0.12508260240E+03 0.  0.
          5    1    3    3  502    0 -0.10664802697E+03  0.37810606375E+02 -0.30943635325E+03  0.32950231065E+03  0.41800000000E+01 0. -1.
         -5    1    3    3    0  502  0.35550794968E+02  0.23221449749E+01 -0.84294215897E+02  0.91609162281E+02  0.41800000000E+01 0. -1.
        -11    1    1    2    0    0  0.54711074505E+02 -0.69001800692E+02 -0.20160505204E+03  0.21999806177E+03  0.00000000000E+00 0.  1.
         11    1    1    2    0    0  0.16386157497E+02  0.28869049343E+02 -0.10274116982E+03  0.10797071891E+03  0.00000000000E+00 0. -1.
</event>
<event>
 7    1  0.2490079E-009  0.1509483E+03  0.7561462E-02  0.1199313E+00
          2   -1    0    0  501    0  0.00000000000E+00  0.00000000000E+00  0.88615097637E+03  0.88615097637E+03  0.00000000000E+00 0. -1.
         -2   -1    0    0    0  501 -0.00000000000E+00 -0.00000000000E+00 -0.49850334121E+02  0.49850334121E+02  0.00000000000E+00 0.  1.
         25    2    1    2    0    0  0.61764697227E+02  0.13271890918E+03  0.66801702443E+03  0.69521529785E+03  0.12509348007E+03 0.  0.
          5    1    3    3  502    0  0.27135128866E+02  0.65845845942E+02  0.55358470766E+03  0.55816260319E+03  0.41800000000E+01 0. -1.
         -5    1    3    3    0  502  0.34629568361E+02  0.66873063234E+02  0.11443231677E+03  0.13705269466E+03  0.41800000000E+01 0. -1.
        -11    1    1    2    0    0 -0.33014469626E+02 -0.19549244148E+02  0.96186198354E+02  0.10355632721E+03  0.00000000000E+00 0. -1.
         11    1    1    2    0    0 -0.28750227601E+02 -0.11316966503E+03  0.72097419458E+02  0.13722968543E+03  0.00000000000E+00 0.  1.
</event>
<event>
 7    1  0.2490079E-009  0.1253022E+03  0.7561462E-02  0.1234598E+00
          2   -1    0    0  501    0  0.00000000000E+00  0.00000000000E+00  0.16141468513E+02  0.16141468513E+02  0.00000000000E+00 0. -1.
         -2   -1    0    0    0  501 -0.00000000000E+00 -0.00000000000E+00 -0.11655297451E+04  0.11655297451E+04  0.00000000000E+00 0.  1.
         25    2    1    2    0    0  0.78925710268E+02  0.21837180556E+02 -0.71976206821E+03  0.73512629801E+03  0.12508840471E+03 0.  0.
          5    1    3    3  502    0  0.40262736412E+02 -0.47165919493E+02 -0.20216398538E+03  0.21150286355E+03  0.41800000000E+01 0. -1.
         -5    1    3    3    0  502  0.38662973855E+02  0.69003100049E+02 -0.51759808284E+03  0.52362343447E+03  0.41800000000E+01 0. -1.
        -11    1    1    2    0    0 -0.73974477509E+02 -0.44310832649E+02 -0.39913893683E+03  0.40834735717E+03  0.00000000000E+00 0.  1.
         11    1    1    2    0    0 -0.49512327589E+01  0.22473652093E+02 -0.30487271549E+02  0.38197558440E+02  0.00000000000E+00 0. -1.
</event>
<event>
 7    1  0.2490079E-009  0.2075165E+03  0.7561462E-02  0.1143548E+00
         -1   -1    0    0    0  501 -0.00000000000E+00  0.00000000000E+00  0.73905661301E+02  0.73905661301E+02  0.00000000000E+00 0.  1.
          1   -1    0    0  501    0  0.00000000000E+00 -0.00000000000E+00 -0.81023387015E+03  0.81023387015E+03  0.00000000000E+00 0. -1.
         25    2    1    2    0    0  0.18973367795E+03 -0.51627173034E+02 -0.20395557723E+03  0.30969307987E+03  0.12509073784E+03 0.  0.
          5    1    3    3  502    0  0.66619680389E+01 -0.29307260122E+02 -0.84841549424E+02  0.90104706995E+02  0.41800000000E+01 0.  1.
         -5    1    3    3    0  502  0.18307170991E+03 -0.22319912912E+02 -0.11911402781E+03  0.21958837288E+03  0.41800000000E+01 0.  1.
        -11    1    1    2    0    0 -0.72616410071E+02  0.10014465900E+01 -0.99651593327E+02  0.12330687718E+03  0.00000000000E+00 0. -1.
         11    1    1    2    0    0 -0.11711726788E+03  0.50625726444E+02 -0.43272103829E+03  0.45113957440E+03  0.00000000000E+00 0.  1.
</event>
<event>
 7    1  0.2490079E-009  0.7581108E+02  0.7561462E-02  0.1341378E+00
         -1   -1    0    0    0  501 -0.00000000000E+00  0.00000000000E+00  0.28950852495E+02  0.28950852495E+02  0.00000000000E+00 0.  1.
          1   -1    0    0  501    0  0.00000000000E+00 -0.00000000000E+00 -0.56732017231E+03  0.56732017231E+03  0.00000000000E+00 0. -1.
         25    2    1    2    0    0 -0.62120840191E+02 -0.26234481328E+02 -0.27195970775E+03  0.30684998979E+03  0.12509031457E+03 0.  0.
          5    1    3    3  502    0 -0.11273391038E+02 -0.40358538003E+01  0.12018392420E+02  0.17472596194E+02  0.41800000000E+01 0.  1.
         -5    1    3    3    0  502 -0.50847449153E+02 -0.22198627528E+02 -0.28397810017E+03  0.28937739359E+03  0.41800000000E+01 0.  1.
        -11    1    1    2    0    0  0.27170036361E+02 -0.13535585911E+02 -0.17700296905E+02  0.35138632193E+02  0.00000000000E+00 0.  1.
         11    1    1    2    0    0  0.34950803831E+02  0.39770067239E+02 -0.24870931516E+03  0.25428240282E+03  0.00000000000E+00 0. -1.
</event>
<event>
 7    1  0.2490079E-009  0.1021750E+03  0.7561462E-02  0.1275788E+00
         -1   -1    0    0    0  501 -0.00000000000E+00  0.00000000000E+00  0.93258695554E+02  0.93258695554E+02  0.00000000000E+00 0.  1.
          1   -1    0    0  501    0  0.00000000000E+00 -0.00000000000E+00 -0.38172804478E+03  0.38172804478E+03  0.00000000000E+00 0. -1.
         25    2    1    2    0    0  0.17071650498E+02  0.19079407614E+02  0.39030373651E+02  0.13351259481E+03  0.12508708111E+03 0.  0.
          5    1    3    3  502    0  0.50575374083E+01  0.63592114612E+02  0.55212280985E+02  0.84471321151E+02  0.41800000000E+01 0. -1.
         -5    1    3    3    0  502  0.12014113090E+02 -0.44512706998E+02 -0.16181907333E+02  0.49041273664E+02  0.41800000000E+01 0. -1.
        -11    1    1    2    0    0  0.69792275448E+01  0.34604060663E+02 -0.87094447762E+02  0.93976558047E+02  0.00000000000E+00 0.  1.
         11    1    1    2    0    0 -0.24050878043E+02 -0.53683468277E+02 -0.24040527511E+03  0.24749758747E+03  0.00000000000E+00 0. -1.
</event>
<event>
 7    1  0.2490079E-009  0.1445938E+03  0.7561462E-02  0.1207278E+00
         -1   -1    0    0    0  501 -0.00000000000E+00  0.00000000000E+00  0.10872732809E+03  0.10872732809E+03  0.00000000000E+00 0.  1.
          1   -1    0    0  501    0  0.00000000000E+00 -0.00000000000E+00 -0.21094290584E+03  0.21094290584E+03  0.00000000000E+00 0. -1.
         25    2    1    2    0    0 -0.99968350254E+02 -0.14040737142E+02 -0.22941074469E+02  0.16236934293E+03  0.12508675899E+03 0.  0.
          5    1    3    3  502    0  0.16260500182E+02 -0.38096296984E+02 -0.13269841773E+01  0.41652911028E+02  0.41800000000E+01 0.  1.
         -5    1    3    3    0  502 -0.11622885044E+03  0.24055559842E+02 -0.21614090292E+02  0.12071643191E+03  0.41800000000E+01 0.  1.
        -11    1    1    2    0    0  0.78071070294E+02 -0.26722417624E+02 -0.25520514529E+02  0.86374048662E+02  0.00000000000E+00 0. -1.
         11    1    1    2    0    0  0.21897279960E+02  0.40763154767E+02 -0.53753988755E+02  0.70926842333E+02  0.00000000000E+00 0.  1.
</event>
<event>
 7    1  0.2490079E-009  0.1147481E+03  0.7561462E-02  0.1252021E+00
         -1   -1    0    0    0  501 -0.00000000000E+00  0.00000000000E+00  0.76807954855E+01  0.76807954855E+01  0.00000000000E+00 0.  1.
          1   -1    0    0  501    0  0.00000000000E+00 -0.00000000000E+00 -0.21794142019E+04  0.21794142019E+04  0.00000000000E+00 0. -1.
         25    2    1    2    0    0 -0.26006496691E+02  0.44343501815E+02 -0.16211857731E+04  0.16268168370E+04  0.12508807354E+03 0.  0.
          5    1    3    3  502    0 -0.71427919178E+02  0.20615821092E+02 -0.12321962635E+04  0.12344440302E+04  0.41800000000E+01 0. -1.
         -5    1    3    3    0  502  0.45421422487E+02  0.23727680723E+02 -0.38898950964E+03  0.39237280673E+03  0.41800000000E+01 0. -1.
        -11    1    1    2    0    0 -0.24694209082E+02  0.12309737890E+02 -0.12724070812E+03  0.13019804688E+03  0.00000000000E+00 0.  1.
         11    1    1    2    0    0  0.50700705773E+02 -0.56653239705E+02 -0.42330692523E+03  0.43008011357E+03  0.00000000000E+00 0. -1.
</event>
<event>
 7    1  0.2490079E-009  0.9360749E+02  0.7561462E-02  0.1294344E+00
         -2   -1    0    0    0  501 -0.00000000000E+00  0.00000000000E+00  0.42593615624E+03  0.42593615624E+03  0.00000000000E+00 0.  1.
          2   -1    0    0  501    0  0.00000000000E+00 -0.00000000000E+00 -0.31503524527E+02  0.31503524527E+02  0.00000000000E+00 0. -1.
         25    2    1    2    0    0  0.35887708565E+02 -0.17323111945E+02  0.22069963563E+03  0.25679562287E+03  0.12509054690E+03 0.  0.
          5    1    3    3  502    0 -0.43952098368E+02  0.66657685713E+01  0.51743300219E+02  0.68345160320E+02  0.41800000000E+01 0. -1.
         -5    1    3    3    0  502  0.79839806933E+02 -0.23988880517E+02  0.16895633541E+03  0.18845046255E+03  0.41800000000E+01 0. -1.
        -11    1    1    2    0    0 -0.18650459996E+02 -0.14013888123E+02  0.62120875068E-01  0.23328792883E+02  0.00000000000E+00 0. -1.
         11    1    1    2    0    0 -0.17237248569E+02  0.31337000068E+02  0.17367087521E+03  0.17731526501E+03  0.00000000000E+00 0.  1.
</event>
<event>
 7    1  0.2490079E-009  0.1230286E+03  0.7561462E-02  0.1238183E+00
         -2   -1    0    0    0  501 -0.00000000000E+00  0.00000000000E+00  0.10030087100E+03  0.10030087100E+03  0.00000000000E+00 0. -1.
          2   -1    0    0  501    0  0.00000000000E+00 -0.00000000000E+00 -0.19178109380E+03  0.19178109380E+03  0.00000000000E+00 0.  1.
         25    2    1    2    0    0  0.31053662692E+02  0.78567307102E+02 -0.56159166796E+02  0.16106066167E+03  0.12509809355E+03 0.  0.
          5    1    3    3  502    0 -0.27649460069E+02 -0.17735980177E+02  0.36777925743E+01  0.33317505806E+02  0.41800000000E+01 0. -1.
         -5    1    3    3    0  502  0.58703122761E+02  0.96303287279E+02 -0.59836959371E+02  0.12774315586E+03  0.41800000000E+01 0. -1.
        -11    1    1    2    0    0 -0.46524403964E+02 -0.59113018466E+02  0.13321712342E+02  0.76395923557E+02  0.00000000000E+00 0. -1.
         11    1    1    2    0    0  0.15470741272E+02 -0.19454288636E+02 -0.48642768342E+02  0.54625379576E+02  0.00000000000E+00 0.  1.
</event>
<event>
 7    1  0.2490079E-009  0.1031204E+03  0.7561462E-02  0.1273868E+00
          2   -1    0    0  501    0  0.00000000000E+00  0.00000000000E+00  0.11042087677E+03  0.11042087677E+03  0.00000000000E+00 0. -1.
         -2   -1    0    0    0  501 -0.00000000000E+00 -0.00000000000E+00 -0.19248213797E+03  0.19248213797E+03  0.00000000000E+00 0.  1.
         25    2    1    2    0    0  0.49563897016E+02 -0.44635112491E+02 -0.11822321771E+03  0.18458955535E+03  0.12509077338E+03 0.  0.
          5    1    3    3  502    0 -0.28006053337E+02 -0.44827875797E+02 -0.84821586256E+02  0.10003025226E+03  0.41800000000E+01 0.  1.
         -5    1    3    3    0  502  0.77569950353E+02  0.19276330599E+00 -0.33401631449E+02  0.84559303089E+02  0.41800000000E+01 0.  1.
        -11    1    1    2    0    0  0.26688545495E-02  0.20331851688E+02 -0.27403803537E+02  0.34122611982E+02  0.00000000000E+00 0.  1.
         11    1    1    2    0    0 -0.49566565870E+02  0.24303260803E+02  0.63565760043E+02  0.84190847410E+02  0.00000000000E+00 0. -1.
</event>
<event>
 7    1  0.2490079E-009  0.1151028E+03  0.7561462E-02  0.1251402E+00
         -2   -1    0    0    0  501 -0.00000000000E+00  0.00000000000E+00  0.21631463049E+02  0.21631463049E+02  0.00000000000E+00 0.  1.
          2   -1    0    0  501    0  0.00000000000E+00 -0.00000000000E+00 -0.92395122335E+03  0.92395122335E+03  0.00000000000E+00 0. -1.
         25    2    1    2    0    0 -0.36805064387E+02 -0.82635168031E+02 -0.48764673079E+03  0.51149679143E+03  0.12508576991E+03 0.  0.
          5    1    3    3  502    0  0.18701977504E+02 -0.29920609090E+02 -0.27294722235E+02  0.44804922417E+02  0.41800000000E+01 0. -1.
         -5    1    3    3    0  502 -0.55507041891E+02 -0.52714558941E+02 -0.46035200856E+03  0.46669186902E+03  0.41800000000E+01 0. -1.
        -11    1    1    2    0    0  0.37627924892E+02  0.23287671297E+01 -0.63511881487E+02  0.73858262761E+02  0.00000000000E+00 0.  1.
         11    1    1    2    0    0 -0.82286050457E+00  0.80306400901E+02 -0.35116114802E+03  0.36022763221E+03  0.00000000000E+00 0. -1.
</event>
<event>
 7    1  0.2490079E-009  0.1545303E+03  0.7561462E-02  0.1195014E+00
          1   -1    0    0  501    0  0.00000000000E+00  0.00000000000E+00  0.42041136082E+03  0.42041136082E+03  0.00000000000E+00 0. -1.
         -1   -1    0    0    0  501 -0.00000000000E+00 -0.00000000000E+00 -0.64806357470E+02  0.64806357470E+02  0.00000000000E+00 0.  1.
         25    2    1    2    0    0  0.10524582354E+03  0.30432788284E+02  0.10519576063E+03  0.19676405387E+03  0.12508839620E+03 0.  0.
          5    1    3    3  502    0  0.12321767916E+03 -0.80966421208E+01  0.79052251485E+02  0.14667952459E+03  0.41800000000E+01 0. -1.
         -5    1    3    3    0  502 -0.17971855617E+02  0.38529430405E+02  0.26143509149E+02  0.50084529271E+02  0.41800000000E+01 0. -1.
        -11    1    1    2    0    0 -0.19906621017E+02  0.31555715746E+02  0.56357985453E+02  0.67588899095E+02  0.00000000000E+00 0. -1.
         11    1    1    2    0    0 -0.85339202523E+02 -0.61988504031E+02  0.19405125726E+03  0.22086476533E+03  0.00000000000E+00 0.  1.
</event>
<event>
 7    1  0.2490079E-009  0.1272772E+03  0.7561462E-02  0.1231553E+00
         -1   -1    0    0    0  501 -0.00000000000E+00  0.00000000000E+00  0.27675485075E+02  0.27675485075E+02  0.00000000000E+00 0.  1.
          1   -1    0    0  501    0  0.00000000000E+00 -0.00000000000E+00 -0.79021699345E+03  0.79021699345E+03  0.00000000000E+00 0. -1.
         25    2    1    2    0    0  0.93290956440E+02 -0.37760713008E+02 -0.45267056910E+03  0.48029941631E+03  0.12509121144E+03 0.  0.
          5    1    3    3  502    0  0.18259016265E+02 -0.69259880394E+02 -0.28479599879E+03  0.29369466463E+03  0.41800000000E+01 0.  1.
         -5    1    3    3    0  502  0.75031940175E+02  0.31499167386E+02 -0.16787457031E+03  0.18660475168E+03  0.41800000000E+01 0.  1.
        -11    1    1    2    0    0 -0.25220353561E+02  0.47217565585E+01 -0.87473689400E+01  0.27108627448E+02  0.00000000000E+00 0.  1.
         11    1    1    2    0    0 -0.68070602879E+02  0.33038956449E+02 -0.30112357033E+03  0.31048443476E+03  0.00000000000E+00 0. -1.
</event>
<event>
 7    1  0.2490079E-009  0.1266977E+03  0.7561462E-02  0.1232440E+00
         -2   -1    0    0    0  501 -0.00000000000E+00  0.00000000000E+00  0.10374623624E+03  0.10374623624E+03  0.00000000000E+00 0.  1.
          2   -1    0    0  501    0  0.00000000000E+00 -0.00000000000E+00 -0.23019797008E+03  0.23019797008E+03  0.00000000000E+00 0. -1.
         25    2    1    2    0    0  0.77597678694E+02 -0.12630712761E+02  0.13313896338E+02  0.14834356036E+03  0.12509043697E+03 0.  0.
          5    1    3    3  502    0 -0.17538766723E+02  0.35533611004E+02  0.12021565632E+02  0.41620142832E+02  0.41800000000E+01 0. -1.
         -5    1    3    3    0  502  0.95136445417E+02 -0.48164323764E+02  0.12923307058E+01  0.10672341753E+03  0.41800000000E+01 0. -1.
        -11    1    1    2    0    0 -0.68428307323E+02  0.39106715088E+02 -0.13619418798E+03  0.15735509286E+03  0.00000000000E+00 0. -1.
         11    1    1    2    0    0 -0.91693713710E+01 -0.26476002327E+02 -0.35714421990E+01  0.28245553100E+02  0.00000000000E+00 0.  1.
</event>
<event>
 7    1  0.4709092E-009  0.1099476E+03  0.7561462E-02  0.1260667E+00
          4   -1    0    0  501    0  0.00000000000E+00  0.00000000000E+00  0.91259479645E+03  0.91259479645E+03  0.00000000000E+00 0.  1.
         -4   -1    0    0    0  501 -0.00000000000E+00 -0.00000000000E+00 -0.19481537601E+02  0.19481537601E+02  0.00000000000E+00 0. -1.
         25    2    1    2    0    0  0.37335304711E+02 -0.38308914647E+02  0.68985902346E+03  0.70314613852E+03  0.12509005535E+03 0.  0.
          5    1    3    3  502    0  0.48763640226E+02 -0.78038225488E+02  0.53167974897E+03  0.53960048657E+03  0.41800000000E+01 0. -1.
         -5    1    3    3    0  502 -0.11428335516E+02  0.39729310840E+02  0.15817927449E+03  0.16354565194E+03  0.41800000000E+01 0. -1.
        -11    1    1    2    0    0 -0.56376926578E+02  0.20019722971E+02  0.19037532693E+03  0.19955428399E+03  0.00000000000E+00 0.  1.
         11    1    1    2    0    0  0.19041621868E+02  0.18289191676E+02  0.12878908467E+02  0.29375911541E+02  0.00000000000E+00 0. -1.
</event>
<event>
 7    1  0.2490079E-009  0.1113846E+03  0.7561462E-02  0.1258027E+00
          1   -1    0    0  501    0  0.00000000000E+00  0.00000000000E+00  0.73886388589E+03  0.73886388589E+03  0.00000000000E+00 0. -1.
         -1   -1    0    0    0  501 -0.00000000000E+00 -0.00000000000E+00 -0.25338491799E+02  0.25338491799E+02  0.00000000000E+00 0.  1.
         25    2    1    2    0    0 -0.35188270075E+02  0.46229655637E+02  0.22591875557E+03  0.26469153956E+03  0.12508769558E+03 0.  0.
          5    1    3    3  502    0 -0.65981698835E+02  0.68613235409E+01  0.54102010052E+02  0.85703921926E+02  0.41800000000E+01 0.  1.
         -5    1    3    3    0  502  0.30793428760E+02  0.39368332096E+02  0.17181674552E+03  0.17898761764E+03  0.41800000000E+01 0.  1.
        -11    1    1    2    0    0 -0.29312026365E+02 -0.53935554595E+01  0.95531196187E+02  0.10007244763E+03  0.00000000000E+00 0.  1.
         11    1    1    2    0    0  0.64500296440E+02 -0.40836100178E+02  0.39207544234E+03  0.39943839050E+03  0.00000000000E+00 0. -1.
</event>
<event>
 7    1  0.2490079E-009  0.8657606E+02  0.7561462E-02  0.1311362E+00
          1   -1    0    0  501    0  0.00000000000E+00  0.00000000000E+00  0.21462516730E+03  0.21462516730E+03  0.00000000000E+00 0. -1.
         -1   -1    0    0    0  501 -0.00000000000E+00 -0.00000000000E+00 -0.56609983866E+02  0.56609983866E+02  0.00000000000E+00 0.  1.
         25    2    1    2    0    0  0.12616996473E+02 -0.14572977975E+02  0.10405687124E+03  0.16385196246E+03  0.12509225741E+03 0.  0.
          5    1    3    3  502    0 -0.16038212570E+02 -0.46344648498E+02  0.10994749159E+03  0.12046150428E+03  0.41800000000E+01 0. -1.
         -5    1    3    3    0  502  0.28655209043E+02  0.31771670523E+02 -0.58906203495E+01  0.43390458182E+02  0.41800000000E+01 0. -1.
        -11    1    1    2    0    0  0.27570279749E+02 -0.14682456289E+02  0.48070302075E+02  0.57327556983E+02  0.00000000000E+00 0. -1.
         11    1    1    2    0    0 -0.40187276221E+02  0.29255434264E+02  0.58880101242E+01  0.50055631724E+02  0.00000000000E+00 0.  1.
</event>
<event>
 7    1  0.2490079E-009  0.9530880E+02  0.7561462E-02  0.1290482E+00
         -2   -1    0    0    0  501 -0.00000000000E+00  0.00000000000E+00  0.97486486176E+01  0.97486486176E+01  0.00000000000E+00 0.  1.
          2   -1    0    0  501    0  0.00000000000E+00 -0.00000000000E+00 -0.13623713880E+04  0.13623713880E+04  0.00000000000E+00 0. -1.
         25    2    1    2    0    0  0.85731020910E+01  0.28925137519E+02 -0.90006681469E+03  0.90921862585E+03  0.12509227405E+03 0.  0.
          5    1    3    3  502    0 -0.20812823675E+01  0.60217609540E+02 -0.21446258276E+03  0.22280521546E+03  0.41800000000E+01 0. -1.
         -5    1    3    3    0  502  0.10654384459E+02 -0.31292472021E+02 -0.68560423194E+03  0.68641341039E+03  0.41800000000E+01 0. -1.
        -11    1    1    2    0    0 -0.94171999523E+01  0.33331902096E+02 -0.18288843422E+03  0.18613940669E+03  0.00000000000E+00 0. -1.
         11    1    1    2    0    0  0.84409786126E+00 -0.62257039615E+02 -0.26966749050E+03  0.27676200411E+03  0.00000000000E+00 0.  1.
</event>
<event>
 7    1  0.2490079E-009  0.1964354E+03  0.7561462E-02  0.1152782E+00
          1   -1    0    0  501    0  0.00000000000E+00  0.00000000000E+00  0.16968818172E+03  0.16968818172E+03  0.00000000000E+00 0. -1.
         -1   -1    0    0    0  501 -0.00000000000E+00 -0.00000000000E+00 -0.28672140345E+03  0.28672140345E+03  0.00000000000E+00 0.  1.
         25    2    1    2    0    0 -0.11644899577E+03 -0.14437811538E+03 -0.14143479759E+02  0.22417142854E+03  0.12508949811E+03 0.  0.
          5    1    3    3  502    0 -0.63566291872E+01 -0.30351641303E+01 -0.42017366087E+02  0.42808298363E+02  0.41800000000E+01 0.  1.
         -5    1    3    3    0  502 -0.11009236659E+03 -0.14134295124E+03  0.27873886327E+02  0.18136313017E+03  0.41800000000E+01 0.  1.
        -11    1    1    2    0    0  0.11807510247E+03  0.83606380901E+02 -0.54743431427E+02  0.15468871980E+03  0.00000000000E+00 0. -1.
         11    1    1    2    0    0 -0.16261066931E+01  0.60771734474E+02 -0.48146310540E+02  0.77549436830E+02  0.00000000000E+00 0.  1.
</event>
<event>
 7    1  0.2842147E-009  0.1304738E+03  0.7561462E-02  0.1226754E+00
          2   -1    0    0  501    0  0.00000000000E+00  0.00000000000E+00  0.74792690168E+03  0.74792690168E+03  0.00000000000E+00 0. -1.
         -2   -1    0    0    0  501 -0.00000000000E+00 -0.00000000000E+00 -0.23761428873E+02  0.23761428873E+02  0.00000000000E+00 0.  1.
         25    2    1    2    0    0  0.13308134394E+02  0.75258162280E+02  0.37031181982E+03  0.39827150184E+03  0.12509375625E+03 0.  0.
          5    1    3    3  502    0  0.36133012544E+02 -0.21730366261E+02  0.15997345417E+03  0.16548952188E+03  0.41800000000E+01 0.  1.
         -5    1    3    3    0  502 -0.22824878151E+02  0.96988528541E+02  0.21033836565E+03  0.23278197996E+03  0.41800000000E+01 0.  1.
        -11    1    1    2    0    0  0.24941319078E+02 -0.76620225276E+02  0.22466016380E+03  0.23867324424E+03  0.00000000000E+00 0.  1.
         11    1    1    2    0    0 -0.38249453471E+02  0.13620629958E+01  0.12919348919E+03  0.13474358447E+03  0.00000000000E+00 0. -1.
</event>
<event>
 7    1  0.2490079E-009  0.1452430E+03  0.7561462E-02  0.1206443E+00
         -2   -1    0    0    0  501 -0.00000000000E+00  0.00000000000E+00  0.61492949938E+02  0.61492949938E+02  0.00000000000E+00 0.  1.
          2   -1    0    0  501    0  0.00000000000E+00 -0.00000000000E+00 -0.34807541635E+03  0.34807541635E+03  0.00000000000E+00 0. -1.
         25    2    1    2    0    0  0.84568375723E+02  0.45982918636E+02 -0.16363663179E+03  0.22735633759E+03  0.12509083899E+03 0.  0.
          5    1    3    3  502    0  0.11137640536E+03  0.60063745282E+02 -0.12312343334E+03  0.17660466983E+03  0.41800000000E+01 0.  1.
         -5    1    3    3    0  502 -0.26808029633E+02 -0.14080826647E+02 -0.40513198452E+02  0.50751667763E+02  0.41800000000E+01 0.  1.
        -11    1    1    2    0    0 -0.17971174994E+02  0.28312318482E+02 -0.21006277273E+02  0.39570370144E+02  0.00000000000E+00 0.  1.
         11    1    1    2    0    0 -0.66597200729E+02 -0.74295237117E+02 -0.10193955735E+03  0.14264165855E+03  0.00000000000E+00 0. -1.
</event>
<event>
 7    1  0.2490079E-009  0.8071492E+02  0.7561462E-02  0.1327035E+00
          2   -1    0    0  501    0  0.00000000000E+00  0.00000000000E+00  0.96886293115E+02  0.96886293115E+02  0.00000000000E+00 0. -1.
         -2   -1    0    0    0  501 -0.00000000000E+00 -0.00000000000E+00 -0.12557939021E+03  0.12557939021E+03  0.00000000000E+00 0.  1.
         25    2    1    2    0    0  0.59793943192E+01 -0.18771597221E+02 -0.20722373028E+02  0.12831458655E+03  0.12508833023E+03 0.  0.
          5    1    3    3  502    0 -0.46661746122E+02 -0.27735436357E+02 -0.43914776467E+02  0.69946786725E+02  0.41800000000E+01 0.  1.
         -5    1    3    3    0  502  0.52641140441E+02  0.89638391356E+01  0.23192403439E+02  0.58367799824E+02  0.41800000000E+01 0.  1.
        -11    1    1    2    0    0 -0.18813381108E+02 -0.10441458424E+02 -0.42192240485E+02  0.47361931125E+02  0.00000000000E+00 0.  1.
         11    1    1    2    0    0  0.12833986789E+02  0.29213055645E+02  0.34221516414E+02  0.46789165655E+02  0.00000000000E+00 0. -1.
</event>
<event>
 7    1  0.2490079E-009  0.1564849E+03  0.7561462E-02  0.1192723E+00
          1   -1    0    0  501    0  0.00000000000E+00  0.00000000000E+00  0.68536242023E+03  0.68536242023E+03  0.00000000000E+00 0. -1.
         -1   -1    0    0    0  501 -0.00000000000E+00 -0.00000000000E+00 -0.43991604497E+02  0.43991604497E+02  0.00000000000E+00 0.  1.
         25    2    1    2    0    0  0.11445113742E+03 -0.52458832989E+02  0.23600277185E+03  0.29528888742E+03  0.12508887519E+03 0.  0.
          5    1    3    3  502    0  0.64097962387E+02 -0.78640363803E+02  0.20887265146E+03  0.23224580196E+03  0.41800000000E+01 0. -1.
         -5    1    3    3    0  502  0.50353175032E+02  0.26181530814E+02  0.27130120392E+02  0.63043085458E+02  0.41800000000E+01 0. -1.
        -11    1    1    2    0    0 -0.91606076427E+02 -0.59566412353E+01  0.22049363539E+03  0.23884010983E+03  0.00000000000E+00 0.  1.
         11    1    1    2    0    0 -0.22845060992E+02  0.58415474225E+02  0.18487440849E+03  0.19522502748E+03  0.00000000000E+00 0. -1.
</event>
<event>
 7    1  0.2490079E-009  0.9267147E+02  0.7561462E-02  0.1296508E+00
         -3   -1    0    0    0  501 -0.00000000000E+00  0.00000000000E+00  0.29231230091E+03  0.29231230091E+03  0.00000000000E+00 0.  1.
          3   -1    0    0  501    0  0.00000000000E+00 -0.00000000000E+00 -0.59304601556E+02  0.59304601556E+02  0.00000000000E+00 0. -1.
         25    2    1    2    0    0 -0.92081660565E+01  0.69275778852E+02  0.17744438984E+03  0.22806886831E+03  0.12507986788E+03 0.  0.
          5    1    3    3  502    0 -0.43072626360E+02  0.67076883442E+01  0.14175402963E+03  0.14836415181E+03  0.41800000000E+01 0.  1.
         -5    1    3    3    0  502  0.33864460303E+02  0.62568090508E+02  0.35690360211E+02  0.79704716507E+02  0.41800000000E+01 0.  1.
        -11    1    1    2    0    0  0.92329526596E+01 -0.41780400494E+02  0.77397585889E+02  0.88437749755E+02  0.00000000000E+00 0.  1.
         11    1    1    2    0    0 -0.24786603109E-01 -0.27495378358E+02 -0.21834276379E+02  0.35110284397E+02  0.00000000000E+00 0. -1.
</event>
<event>
 7    1  0.2490079E-009  0.9737723E+02  0.7561462E-02  0.1285910E+00
         -1   -1    0    0    0  501 -0.00000000000E+00  0.00000000000E+00  0.13554539759E+02  0.13554539759E+02  0.00000000000E+00 0.  1.
          1   -1    0    0  501    0  0.00000000000E+00 -0.00000000000E+00 -0.10055499268E+04  0.10055499268E+04  0.00000000000E+00 0. -1.
         25    2    1    2    0    0 -0.31879678189E+02  0.20773147434E+02 -0.64434583529E+03  0.65747777655E+03  0.12509050189E+03 0.  0.
          5    1    3    3  502    0 -0.57345175833E+01 -0.34418217261E+02 -0.57082278279E+02  0.67032509015E+02  0.41800000000E+01 0. -1.
         -5    1    3    3    0  502 -0.26145160606E+02  0.55191364695E+02 -0.58726355701E+03  0.59044526753E+03  0.41800000000E+01 0. -1.
        -11    1    1    2    0    0 -0.13254180166E+02  0.28589557528E+02 -0.13861607602E+03  0.14215291986E+03  0.00000000000E+00 0.  1.
         11    1    1    2    0    0  0.45133858356E+02 -0.49362704963E+02 -0.20903347577E+03  0.21947377020E+03  0.00000000000E+00 0. -1.
</event>
<event>
 7    1  0.2490079E-009  0.1268320E+03  0.7561462E-02  0.1232234E+00
         -2   -1    0    0    0  501 -0.00000000000E+00  0.00000000000E+00  0.66099232122E+02  0.66099232122E+02  0.00000000000E+00 0.  1.
          2   -1    0    0  501    0  0.00000000000E+00 -0.00000000000E+00 -0.26756252461E+03  0.26756252461E+03  0.00000000000E+00 0. -1.
         25    2    1    2    0    0 -0.14491575996E+02  0.65152053744E+02 -0.63958916672E+02  0.15554261189E+03  0.12509182711E+03 0.  0.
          5    1    3    3  502    0  0.94665177057E+01 -0.35730955986E+02 -0.24387308312E+02  0.44480662988E+02  0.41800000000E+01 0.  1.
         -5    1    3    3    0  502 -0.23958093702E+02  0.10088300973E+03 -0.39571608360E+02  0.11106194890E+03  0.41800000000E+01 0.  1.
        -11    1    1    2    0    0  0.48717755660E+02 -0.13192299333E+02 -0.70206855010E+02  0.86466519351E+02  0.00000000000E+00 0. -1.
         11    1    1    2    0    0 -0.34226179664E+02 -0.51959754411E+02 -0.67297520809E+02  0.91652625494E+02  0.00000000000E+00 0.  1.
</event>
<event>
 7    1  0.2490079E-009  0.1791329E+03  0.7561462E-02  0.1168645E+00
          3   -1    0    0  501    0  0.00000000000E+00  0.00000000000E+00  0.47543796974E+03  0.47543796974E+03  0.00000000000E+00 0. -1.
         -3   -1    0    0    0  501 -0.00000000000E+00 -0.00000000000E+00 -0.76516909132E+02  0.76516909132E+02  0.00000000000E+00 0.  1.
         25    2    1    2    0    0 -0.14384018802E+03  0.25403776742E+02  0.27379904376E+03  0.33458721134E+03  0.12508930437E+03 0.  0.
          5    1    3    3  502    0 -0.71817100434E+02 -0.50256612317E+02  0.12671745240E+03  0.15413697849E+03  0.41800000000E+01 0. -1.
         -5    1    3    3    0  502 -0.72023087582E+02  0.75660389058E+02  0.14708159136E+03  0.18045023285E+03  0.41800000000E+01 0. -1.
        -11    1    1    2    0    0  0.53273425962E+02 -0.48995948781E+02  0.16965171337E+02  0.74340284834E+02  0.00000000000E+00 0.  1.
         11    1    1    2    0    0  0.90566762054E+02  0.23592172040E+02  0.10815684551E+03  0.14302738270E+03  0.00000000000E+00 0. -1.
</event>
<event>
 7    1  0.2490079E-009  0.1046654E+03  0.7561462E-02  0.1270780E+00
          2   -1    0    0  501    0  0.00000000000E+00  0.00000000000E+00  0.10851143851E+04  0.10851143851E+04  0.00000000000E+00 0. -1.
         -2   -1    0    0    0  501 -0.00000000000E+00 -0.00000000000E+00 -0.14127354128E+02  0.14127354128E+02  0.00000000000E+00 0.  1.
         25    2    1    2    0    0 -0.30610603706E+02  0.11294613990E+01  0.81944633237E+03  0.82950600430E+03  0.12509850033E+03 0.  0.
          5    1    3    3  502    0 -0.64102695096E+02  0.33333822581E+02  0.33007287552E+03  0.33791400504E+03  0.41800000000E+01 0.  1.
         -5    1    3    3    0  502  0.33492091389E+02 -0.32204361182E+02  0.48937345685E+03  0.49159199926E+03  0.41800000000E+01 0.  1.
        -11    1    1    2    0    0 -0.25820258100E+02 -0.17922432936E+02  0.14134632197E+03  0.14479876403E+03  0.00000000000E+00 0. -1.
         11    1    1    2    0    0  0.56430861807E+02  0.16792971537E+02  0.11019437666E+03  0.12493697093E+03  0.00000000000E+00 0.  1.
</event>
<event>
 7    1  0.2490079E-009  0.1710884E+03  0.7561462E-02  0.1176718E+00
         -1   -1    0    0    0  501 -0.00000000000E+00  0.00000000000E+00  0.28190306533E+03  0.28190306533E+03  0.00000000000E+00 0.  1.
          1   -1    0    0  501    0  0.00000000000E+00 -0.00000000000E+00 -0.12051724693E+03  0.12051724693E+03  0.00000000000E+00 0. -1.
         25    2    1    2    0    0 -0.12010174599E+03 -0.76922217919E+02  0.39513744038E+02  0.19377423007E+03  0.12508260979E+03 0.  0.
          5    1    3    3  502    0 -0.12107114879E+03 -0.99812455853E+02  0.11560612894E+02  0.15739081798E+03  0.41800000000E+01 0. -1.
         -5    1    3    3    0  502  0.96940280257E+00  0.22890237935E+02  0.27953131143E+02  0.36383412089E+02  0.41800000000E+01 0. -1.
        -11    1    1    2    0    0  0.32038265219E+02  0.65766045740E+02  0.85997852945E+02  0.11290373741E+03  0.00000000000E+00 0.  1.
         11    1    1    2    0    0  0.88063480770E+02  0.11156172179E+02  0.35874221412E+02  0.95742344785E+02  0.00000000000E+00 0. -1.
</event>
<event>
 7    1  0.2490079E-009  0.1148554E+03  0.7561462E-02  0.1251834E+00
         -1   -1    0    0    0  501 -0.00000000000E+00  0.00000000000E+00  0.20056168652E+03  0.20056168652E+03  0.00000000000E+00 0.  1.
          1   -1    0    0  501    0  0.00000000000E+00 -0.00000000000E+00 -0.73530448457E+02  0.73530448457E+02  0.00000000000E+00 0. -1.
         25    2    1    2    0    0 -0.42104035422E+02  0.13448232421E+02  0.10748775594E+03  0.17074851948E+03  0.12509130455E+03 0.  0.
          5    1    3    3  502    0  0.39808166282E+02 -0.14673077019E+02  0.54274553117E+02  0.69015859105E+02  0.41800000000E+01 0. -1.
         -5    1    3    3    0  502 -0.81912201703E+02  0.28121309440E+02  0.53213202819E+02  0.10173266037E+03  0.41800000000E+01 0. -1.
        -11    1    1    2    0    0 -0.27388917332E+02 -0.14253541923E+02 -0.94035644899E+00  0.30890136294E+02  0.00000000000E+00 0.  1.
         11    1    1    2    0    0  0.69492952754E+02  0.80530950226E+00  0.20483838573E+02  0.72453479203E+02  0.00000000000E+00 0. -1.
</event>
<event>
 7    1  0.2490079E-009  0.1500326E+03  0.7561462E-02  0.1200433E+00
         -2   -1    0    0    0  501 -0.00000000000E+00  0.00000000000E+00  0.10108811895E+03  0.10108811895E+03  0.00000000000E+00 0.  1.
          2   -1    0    0  501    0  0.00000000000E+00 -0.00000000000E+00 -0.29504288882E+03  0.29504288882E+03  0.00000000000E+00 0. -1.
         25    2    1    2    0    0  0.11811748059E+03  0.34948182713E+02 -0.16416647164E+03  0.24035644190E+03  0.12508986391E+03 0.  0.
          5    1    3    3  502    0  0.89500173771E+01 -0.40961837702E+02 -0.46533257102E+02  0.62775722819E+02  0.41800000000E+01 0.  1.
         -5    1    3    3    0  502  0.10916746321E+03  0.75910020415E+02 -0.11763321454E+03  0.17758071908E+03  0.41800000000E+01 0.  1.
        -11    1    1    2    0    0 -0.10410949773E+03 -0.23312548279E+02  0.14707464041E+02  0.10769666626E+03  0.00000000000E+00 0.  1.
         11    1    1    2    0    0 -0.14007982865E+02 -0.11635634433E+02 -0.44495762267E+02  0.48077899625E+02  0.00000000000E+00 0. -1.
</event>
<event>
 7    1  0.2490079E-009  0.9310333E+02  0.7561462E-02  0.1295506E+00
          2   -1    0    0  501    0  0.00000000000E+00  0.00000000000E+00  0.84419907983E+03  0.84419907983E+03  0.00000000000E+00 0. -1.
         -2   -1    0    0    0  501 -0.00000000000E+00 -0.00000000000E+00 -0.16162290367E+02  0.16162290367E+02  0.00000000000E+00 0.  1.
         25    2    1    2    0    0  0.14556574597E+02 -0.99749089060E+01  0.64179904318E+03  0.65411374783E+03  0.12508953035E+03 0.  0.
          5    1    3    3  502    0  0.46359397705E+02  0.34034065146E+02  0.47876339190E+03  0.48222336025E+03  0.41800000000E+01 0. -1.
         -5    1    3    3    0  502 -0.31802823108E+02 -0.44008974051E+02  0.16303565128E+03  0.17189038758E+03  0.41800000000E+01 0. -1.
        -11    1    1    2    0    0 -0.20614452290E+02 -0.28479468881E+02  0.33268863711E+02  0.48403027628E+02  0.00000000000E+00 0.  1.
         11    1    1    2    0    0  0.60578776925E+01  0.38454377787E+02  0.15296888257E+03  0.15784459474E+03  0.00000000000E+00 0. -1.
</event>
<event>
 7    1  0.2490079E-009  0.1128105E+03  0.7561462E-02  0.1255452E+00
         -3   -1    0    0    0  501 -0.00000000000E+00  0.00000000000E+00  0.98740025541E+02  0.98740025541E+02  0.00000000000E+00 0.  1.
          3   -1    0    0  501    0  0.00000000000E+00 -0.00000000000E+00 -0.13044431950E+03  0.13044431950E+03  0.00000000000E+00 0. -1.
         25    2    1    2    0    0 -0.22838398454E+02 -0.26383451754E+02 -0.17075597007E+02  0.13098403944E+03  0.12509022186E+03 0.  0.
          5    1    3    3  502    0 -0.70637292834E+02  0.72839364965E+01 -0.65979871042E+01  0.71440105709E+02  0.41800000000E+01 0.  1.
         -5    1    3    3    0  502  0.47798894380E+02 -0.33667388250E+02 -0.10477609903E+02  0.59543933736E+02  0.41800000000E+01 0.  1.
        -11    1    1    2    0    0 -0.19903918022E+01 -0.32190734314E+02 -0.12363693380E+02  0.34540786749E+02  0.00000000000E+00 0. -1.
         11    1    1    2    0    0  0.24828790257E+02  0.58574186068E+02 -0.22650035765E+01  0.63659518851E+02  0.00000000000E+00 0.  1.
</event>
<event>
 7    1  0.2490079E-009  0.1028264E+03  0.7561462E-02  0.1274462E+00
          1   -1    0    0  501    0  0.00000000000E+00  0.00000000000E+00  0.27391872440E+03  0.27391872440E+03  0.00000000000E+00 0. -1.
         -1   -1    0    0    0  501 -0.00000000000E+00 -0.00000000000E+00 -0.57077803858E+02  0.57077803858E+02  0.00000000000E+00 0.  1.
         25    2    1    2    0    0  0.35319329398E+02 -0.46617103917E+02  0.94729972476E+02  0.16745624825E+03  0.12508884037E+03 0.  0.
          5    1    3    3  502    0  0.12331814405E+02  0.25200792622E+02 -0.16645749090E+02  0.32889313736E+02  0.41800000000E+01 0. -1.
         -5    1    3    3    0  502  0.22987514993E+02 -0.71817896538E+02  0.11137572157E+03  0.13456693451E+03  0.41800000000E+01 0. -1.
        -11    1    1    2    0    0  0.22125805591E+02 -0.69773233676E+01  0.56867262080E+02  0.61417585519E+02  0.00000000000E+00 0.  1.
         11    1    1    2    0    0 -0.57445134989E+02  0.53594427284E+02  0.65243685984E+02  0.10212269449E+03  0.00000000000E+00 0. -1.
</event>
<event>
 7    1  0.2490079E-009  0.1019763E+03  0.7561462E-02  0.1276194E+00
          2   -1    0    0  501    0  0.00000000000E+00  0.00000000000E+00  0.15367989222E+03  0.15367989222E+03  0.00000000000E+00 0. -1.
         -2   -1    0    0    0  501 -0.00000000000E+00 -0.00000000000E+00 -0.80887828128E+02  0.80887828128E+02  0.00000000000E+00 0.  1.
         25    2    1    2    0    0  0.10715414663E+02 -0.14975859849E+01  0.58208931557E+02  0.13839455689E+03  0.12509081017E+03 0.  0.
          5    1    3    3  502    0 -0.55342617267E+02  0.10848478338E+02  0.37864093310E+02  0.68056276202E+02  0.41800000000E+01 0. -1.
         -5    1    3    3    0  502  0.66058031930E+02 -0.12346064323E+02  0.20344838246E+02  0.70338280687E+02  0.41800000000E+01 0. -1.
        -11    1    1    2    0    0  0.14895767452E+02 -0.33523292742E+02 -0.18995814321E+02  0.41310240933E+02  0.00000000000E+00 0.  1.
         11    1    1    2    0    0 -0.25611182115E+02  0.35020878727E+02  0.33578946854E+02  0.54862922525E+02  0.00000000000E+00 0. -1.
</event>
<event>
 7    1  0.2490079E-009  0.1145548E+03  0.7561462E-02  0.1252360E+00
          1   -1    0    0  501    0  0.00000000000E+00  0.00000000000E+00  0.71951026565E+02  0.71951026565E+02  0.00000000000E+00 0. -1.
         -1   -1    0    0    0  501 -0.00000000000E+00 -0.00000000000E+00 -0.24505818084E+03  0.24505818084E+03  0.00000000000E+00 0.  1.
         25    2    1    2    0    0 -0.21735540822E+02 -0.71041499645E+02 -0.68358124539E+02  0.16074625605E+03  0.12508875744E+03 0.  0.
          5    1    3    3  502    0 -0.35763489451E+02  0.64846147731E+01 -0.73061802886E+02  0.81710322772E+02  0.41800000000E+01 0.  1.
         -5    1    3    3    0  502  0.14027948629E+02 -0.77526114418E+02  0.47036783467E+01  0.79035933280E+02  0.41800000000E+01 0.  1.
        -11    1    1    2    0    0 -0.59416034590E+01 -0.18749136783E+02 -0.75315255660E+01  0.21060784865E+02  0.00000000000E+00 0. -1.
         11    1    1    2    0    0  0.27677144281E+02  0.89790636428E+02 -0.97217504166E+02  0.13520216648E+03  0.00000000000E+00 0.  1.
</event>
<event>
 7    1  0.2504763E-009  0.8945279E+02  0.7561462E-02  0.1304182E+00
         -1   -1    0    0    0  501 -0.00000000000E+00  0.00000000000E+00  0.15070113669E+03  0.15070113669E+03  0.00000000000E+00 0.  1.
          1   -1    0    0  501    0  0.00000000000E+00 -0.00000000000E+00 -0.13123723473E+03  0.13123723473E+03  0.00000000000E+00 0. -1.
         25    2    1    2    0    0 -0.40133037892E+02 -0.55628302430E+02  0.67889814417E+02  0.15798932164E+03  0.12508569099E+03 0.  0.
          5    1    3    3  502    0 -0.37450637603E+01  0.19181510842E+02 -0.25794198781E+02  0.32630797592E+02  0.41800000000E+01 0. -1.
         -5    1    3    3    0  502 -0.36387974131E+02 -0.74809813272E+02  0.93684013199E+02  0.12535852405E+03  0.41800000000E+01 0. -1.
        -11    1    1    2    0    0 -0.47052624515E+01  0.12725030037E+02 -0.59398939600E+02  0.60928646052E+02  0.00000000000E+00 0. -1.
         11    1    1    2    0    0  0.44838300343E+02  0.42903272394E+02  0.10973027143E+02  0.63020403715E+02  0.00000000000E+00 0.  1.
</event>
<event>
 7    1  0.2490079E-009  0.2075016E+03  0.7561462E-02  0.1143560E+00
         -1   -1    0    0    0  501 -0.00000000000E+00  0.00000000000E+00  0.32101112930E+03  0.32101112930E+03  0.00000000000E+00 0.  1.
          1   -1    0    0  501    0  0.00000000000E+00 -0.00000000000E+00 -0.13787666428E+03  0.13787666428E+03  0.00000000000E+00 0. -1.
         25    2    1    2    0    0  0.17633879267E+03  0.27056343919E+02  0.69573045600E+02  0.22872615710E+03  0.12509128954E+03 0.  0.
          5    1    3    3  502    0  0.52958982116E+02  0.67349498932E+02  0.11771304839E+02  0.86583167017E+02  0.41800000000E+01 0.  1.
         -5    1    3    3    0  502  0.12337981056E+03 -0.40293155013E+02  0.57801740761E+02  0.14214299008E+03  0.41800000000E+01 0.  1.
        -11    1    1    2    0    0 -0.77745668141E+02  0.32404609473E+02  0.37700678184E+02  0.92281031449E+02  0.00000000000E+00 0. -1.
         11    1    1    2    0    0 -0.98593124532E+02 -0.59460953392E+02  0.75860741237E+02  0.13788060503E+03  0.00000000000E+00 0.  1.
</event>
<event>
 7    1  0.2490079E-009  0.1225248E+03  0.7561462E-02  0.1238989E+00
         -1   -1    0    0    0  501 -0.00000000000E+00  0.00000000000E+00  0.34820953758E+03  0.34820953758E+03  0.00000000000E+00 0.  1.
          1   -1    0    0  501    0  0.00000000000E+00 -0.00000000000E+00 -0.58133600744E+02  0.58133600744E+02  0.00000000000E+00 0. -1.
         25    2    1    2    0    0  0.43507363085E+02 -0.66781421306E+02  0.22256798166E+03  0.26746328194E+03  0.12508977516E+03 0.  0.
          5    1    3    3  502    0  0.40166778100E+02  0.30052979183E+02  0.91264522629E+02  0.10422685408E+03  0.41800000000E+01 0. -1.
         -5    1    3    3    0  502  0.33405849851E+01 -0.96834400489E+02  0.13130345903E+03  0.16323642786E+03  0.41800000000E+01 0. -1.
        -11    1    1    2    0    0  0.30783173540E+01  0.47026674757E+02  0.74135248769E+02  0.87846566731E+02  0.00000000000E+00 0.  1.
         11    1    1    2    0    0 -0.46585680439E+02  0.19754746549E+02 -0.66272935884E+01  0.51033289660E+02  0.00000000000E+00 0. -1.
</event>
<event>
 7    1  0.2490079E-009  0.1765151E+03  0.7561462E-02  0.1171219E+00
         -1   -1    0    0    0  501 -0.00000000000E+00  0.00000000000E+00  0.23818382872E+03  0.23818382872E+03  0.00000000000E+00 0.  1.
          1   -1    0    0  501    0  0.00000000000E+00 -0.00000000000E+00 -0.14705362684E+03  0.14705362684E+03  0.00000000000E+00 0. -1.
         25    2    1    2    0    0  0.81980759793E+02  0.12702564515E+03  0.46726514875E+02  0.20171472159E+03  0.12509637170E+03 0.  0.
          5    1    3    3  502    0  0.92679754415E+02  0.14009449412E+03  0.19160865423E+02  0.16911716449E+03  0.41800000000E+01 0.  1.
         -5    1    3    3    0  502 -0.10698994622E+02 -0.13068848971E+02  0.27565649452E+02  0.32597557103E+02  0.41800000000E+01 0.  1.
        -11    1    1    2    0    0 -0.52805532824E+02 -0.12794433799E+03  0.59500435047E+02  0.15066014633E+03  0.00000000000E+00 0.  1.
         11    1    1    2    0    0 -0.29175226969E+02  0.91869283730E+00 -0.15096748043E+02  0.32862587645E+02  0.00000000000E+00 0. -1.
</event>
<event>
 7    1  0.2490079E-009  0.9561951E+02  0.7561462E-02  0.1289787E+00
         -2   -1    0    0    0  501 -0.00000000000E+00  0.00000000000E+00  0.16952064905E+02  0.16952064905E+02  0.00000000000E+00 0.  1.
          2   -1    0    0  501    0  0.00000000000E+00 -0.00000000000E+00 -0.10017691062E+04  0.10017691062E+04  0.00000000000E+00 0. -1.
         25    2    1    2    0    0 -0.24182622635E+02 -0.49639308704E+02 -0.73251982497E+03  0.74517212149E+03  0.12508931395E+03 0.  0.
          5    1    3    3  502    0  0.35561522543E+02  0.21882356378E+02 -0.28104036285E+03  0.28415597364E+03  0.41800000000E+01 0. -1.
         -5    1    3    3    0  502 -0.59744145177E+02 -0.71521665082E+02 -0.45147946212E+03  0.46101614785E+03  0.41800000000E+01 0. -1.
        -11    1    1    2    0    0  0.16171864293E+02  0.41636149741E+02 -0.25731539236E+03  0.26116337665E+03  0.00000000000E+00 0. -1.
         11    1    1    2    0    0  0.80107583412E+01  0.80031589630E+01  0.50181760759E+01  0.12385672921E+02  0.00000000000E+00 0.  1.
</event>
<event>
 7    1  0.2490079E-009  0.1195795E+03  0.7561462E-02  0.1243792E+00
          1   -1    0    0  501    0  0.00000000000E+00  0.00000000000E+00  0.10069612694E+03  0.10069612694E+03  0.00000000000E+00 0. -1.
         -1   -1    0    0    0  501 -0.00000000000E+00 -0.00000000000E+00 -0.17431363290E+03  0.17431363290E+03  0.00000000000E+00 0.  1.
         25    2    1    2    0    0 -0.69951619559E+02  0.24765055296E+02 -0.27438108498E+02  0.14800915952E+03  0.12508926598E+03 0.  0.
          5    1    3    3  502    0  0.14052979925E+02  0.42529373126E+02 -0.41139157682E+02  0.60960122360E+02  0.41800000000E+01 0. -1.
         -5    1    3    3    0  502 -0.84004599484E+02 -0.17764317831E+02  0.13701049184E+02  0.87049037165E+02  0.41800000000E+01 0. -1.
        -11    1    1    2    0    0  0.40063508928E+01 -0.40267657090E+02 -0.43199206485E+02  0.59192115150E+02  0.00000000000E+00 0.  1.
         11    1    1    2    0    0  0.65945268667E+02  0.15502601794E+02 -0.29801909748E+01  0.67808485163E+02  0.00000000000E+00 0. -1.
</event>
<event>
 7    1  0.2490079E-009  0.1094932E+03  0.7561462E-02  0.1261511E+00
          2   -1    0    0  501    0  0.00000000000E+00  0.00000000000E+00  0.24943003041E+03  0.24943003041E+03  0.00000000000E+00 0. -1.
         -2   -1    0    0    0  501 -0.00000000000E+00 -0.00000000000E+00 -0.75583865234E+02  0.75583865234E+02  0.00000000000E+00 0.  1.
         25    2    1    2    0    0 -0.49816040291E+02  0.32259701716E+02  0.24166658705E+02  0.14054661211E+03  0.12508795529E+03 0.  0.
          5    1    3    3  502    0  0.30241317779E+02  0.11382060852E+02 -0.27737102852E+02  0.42789109419E+02  0.41800000000E+01 0.  1.
         -5    1    3    3    0  502 -0.80057358070E+02  0.20877640864E+02  0.51903761557E+02  0.97757502694E+02  0.41800000000E+01 0.  1.
        -11    1    1    2    0    0 -0.23139903894E+02 -0.17788747747E+02  0.21424961941E+02  0.36206680224E+02  0.00000000000E+00 0.  1.
         11    1    1    2    0    0  0.72955944185E+02 -0.14470953969E+02  0.12825454453E+03  0.14826060331E+03  0.00000000000E+00 0. -1.
</event>
<event>
 7    1  0.2490079E-009  0.1515553E+03  0.7561462E-02  0.1198575E+00
         -2   -1    0    0    0  501 -0.00000000000E+00  0.00000000000E+00  0.45792384522E+02  0.45792384522E+02  0.00000000000E+00 0.  1.
          2   -1    0    0  501    0  0.00000000000E+00 -0.00000000000E+00 -0.54898365136E+03  0.54898365136E+03  0.00000000000E+00 0. -1.
         25    2    1    2    0    0  0.11214203034E+03 -0.64864209839E+01 -0.22198603458E+03  0.27846454499E+03  0.12508714818E+03 0.  0.
          5    1    3    3  502    0  0.13315075085E+03  0.99474434699E+01 -0.21008317309E+03  0.24895880402E+03  0.41800000000E+01 0.  1.
         -5    1    3    3    0  502 -0.21008720514E+02 -0.16433864454E+02 -0.11902861497E+02  0.29505740972E+02  0.41800000000E+01 0.  1.
        -11    1    1    2    0    0 -0.10310366918E+03 -0.28029133441E+02 -0.23308186438E+03  0.25640427926E+03  0.00000000000E+00 0. -1.
         11    1    1    2    0    0 -0.90383611549E+01  0.34515554425E+02 -0.48123367875E+02  0.59907211630E+02  0.00000000000E+00 0.  1.
</event>
<event>
 7    1  0.2490079E-009  0.1355786E+03  0.7561462E-02  0.1219405E+00
          2   -1    0    0  501    0  0.00000000000E+00  0.00000000000E+00  0.10565958063E+04  0.10565958063E+04  0.00000000000E+00 0. -1.
         -2   -1    0    0    0  501 -0.00000000000E+00 -0.00000000000E+00 -0.23678358413E+02  0.23678358413E+02  0.00000000000E+00 0.  1.
         25    2    1    2    0    0  0.10780844784E+03  0.19044159976E+02  0.43531193467E+03  0.46597212461E+03  0.12509276153E+03 0.  0.
          5    1    3    3  502    0  0.28694361043E+02 -0.25958568462E+02  0.30200461581E+03  0.30450200985E+03  0.41800000000E+01 0.  1.
         -5    1    3    3    0  502  0.79114086802E+02  0.45002728438E+02  0.13330731886E+03  0.16147011475E+03  0.41800000000E+01 0.  1.
        -11    1    1    2    0    0 -0.48697300874E+02  0.35838242530E+02  0.21856201044E+03  0.22677116031E+03  0.00000000000E+00 0.  1.
         11    1    1    2    0    0 -0.59111146971E+02 -0.54882402506E+02  0.37904350282E+03  0.38753087985E+03  0.00000000000E+00 0. -1.
</event>
<event>
 7    1  0.2490079E-009  0.1001934E+03  0.7561462E-02  0.1279890E+00
         -1   -1    0    0    0  501 -0.00000000000E+00  0.00000000000E+00  0.32185401684E+03  0.32185401684E+03  0.00000000000E+00 0.  1.
          1   -1    0    0  501    0  0.00000000000E+00 -0.00000000000E+00 -0.13609218112E+03  0.13609218112E+03  0.00000000000E+00 0. -1.
         25    2    1    2    0    0  0.17463075595E+02 -0.76713674946E+02 -0.78583813557E+02  0.16736988428E+03  0.12508923007E+03 0.  0.
          5    1    3    3  502    0  0.27315224002E+02 -0.95735392339E+02 -0.96814921634E+02  0.13893159561E+03  0.41800000000E+01 0.  1.
         -5    1    3    3    0  502 -0.98521484077E+01  0.19021717393E+02  0.18231108077E+02  0.28438288671E+02  0.41800000000E+01 0.  1.
        -11    1    1    2    0    0 -0.85565834353E+01  0.24538922643E+02  0.57461303830E+01  0.26615631853E+02  0.00000000000E+00 0. -1.
         11    1    1    2    0    0 -0.89064921594E+01  0.52174752303E+02  0.25859951889E+03  0.26396068183E+03  0.00000000000E+00 0.  1.
</event>
<event>
 7    1  0.2490079E-009  0.9531166E+02  0.7561462E-02  0.1290476E+00
          1   -1    0    0  501    0  0.00000000000E+00  0.00000000000E+00  0.90073795234E+02  0.90073795234E+02  0.00000000000E+00 0. -1.
         -1   -1    0    0    0  501 -0.00000000000E+00 -0.00000000000E+00 -0.14736310408E+03  0.14736310408E+03  0.00000000000E+00 0.  1.
         25    2    1    2    0    0  0.17656812614E+02  0.29563883674E+02 -0.38143538189E+02  0.13522240944E+03  0.12507751301E+03 0.  0.
          5    1    3    3  502    0  0.28957365003E+01 -0.30229843254E+02 -0.61903019095E+02  0.69077383318E+02  0.41800000000E+01 0. -1.
         -5    1    3    3    0  502  0.14761076113E+02  0.59793726928E+02  0.23759480906E+02  0.66145026123E+02  0.41800000000E+01 0. -1.
        -11    1    1    2    0    0  0.16938546605E+02  0.27035398135E+02  0.35595727421E+01  0.32101365571E+02  0.00000000000E+00 0. -1.
         11    1    1    2    0    0 -0.34595359218E+02 -0.56599281809E+02 -0.22705343403E+02  0.70113124305E+02  0.00000000000E+00 0.  1.
</event>
<event>
 7    1  0.2490079E-009  0.9271178E+02  0.7561462E-02  0.1296415E+00
          1   -1    0    0  501    0  0.00000000000E+00  0.00000000000E+00  0.29019079586E+02  0.29019079586E+02  0.00000000000E+00 0. -1.
         -1   -1    0    0    0  501 -0.00000000000E+00 -0.00000000000E+00 -0.54533382141E+03  0.54533382141E+03  0.00000000000E+00 0.  1.
         25    2    1    2    0    0 -0.30049086529E+02 -0.22328079851E+02 -0.39351972859E+03  0.41461471412E+03  0.12508434605E+03 0.  0.
          5    1    3    3  502    0  0.37407845407E+02  0.17897970437E+02 -0.68242856584E+02  0.79964017648E+02  0.41800000000E+01 0.  1.
         -5    1    3    3    0  502 -0.67456931936E+02 -0.40226050288E+02 -0.32527687201E+03  0.33465069647E+03  0.41800000000E+01 0.  1.
        -11    1    1    2    0    0  0.36048975100E+02 -0.56408919450E+01 -0.12579137416E+03  0.13097640277E+03  0.00000000000E+00 0.  1.
         11    1    1    2    0    0 -0.59998885706E+01  0.27968971796E+02  0.29963609314E+01  0.28761784107E+02  0.00000000000E+00 0. -1.
</event>
<event>
 7    1  0.2490079E-009  0.6652215E+02  0.7561462E-02  0.1372336E+00
         -2   -1    0    0    0  501 -0.00000000000E+00  0.00000000000E+00  0.14871992349E+03  0.14871992349E+03  0.00000000000E+00 0.  1.
          2   -1    0    0  501    0  0.00000000000E+00 -0.00000000000E+00 -0.88880672736E+02  0.88880672736E+02  0.00000000000E+00 0. -1.
         25    2    1    2    0    0  0.27664566673E+02 -0.98105782448E+01  0.59592918170E+02  0.14163891656E+03  0.12509472848E+03 0.  0.
          5    1    3    3  502    0  0.43402842151E+02  0.24023701157E+02 -0.19986372389E+02  0.53645805105E+02  0.41800000000E+01 0. -1.
         -5    1    3    3    0  502 -0.15738275478E+02 -0.33834279402E+02  0.79579290558E+02  0.87993111454E+02  0.41800000000E+01 0. -1.
        -11    1    1    2    0    0 -0.14813050102E+02  0.22960787187E+02 -0.41875318415E+02  0.50001664911E+02  0.00000000000E+00 0. -1.
         11    1    1    2    0    0 -0.12851516572E+02 -0.13150208942E+02  0.42121650995E+02  0.45960014752E+02  0.00000000000E+00 0.  1.
</event>
<event>
 7    1  0.2490079E-009  0.1236205E+03  0.7561462E-02  0.1237241E+00
         -2   -1    0    0    0  501 -0.00000000000E+00  0.00000000000E+00  0.16489196858E+02  0.16489196858E+02  0.00000000000E+00 0. -1.
          2   -1    0    0  501    0  0.00000000000E+00 -0.00000000000E+00 -0.96068844539E+03  0.96068844539E+03  0.00000000000E+00 0.  1.
         25    2    1    2    0    0  0.19132296709E+02  0.58708190013E+02 -0.57786339179E+03  0.59446295581E+03  0.12508960750E+03 0.  0.
          5    1    3    3  502    0  0.69601430785E+02  0.54360162794E+02 -0.38404176080E+03  0.39408746859E+03  0.41800000000E+01 0. -1.
         -5    1    3    3    0  502 -0.50469134076E+02  0.43480272186E+01 -0.19382163100E+03  0.20037548722E+03  0.41800000000E+01 0. -1.
        -11    1    1    2    0    0 -0.16406861755E+02  0.21889656838E+02 -0.13448651648E+03  0.13724053812E+03  0.00000000000E+00 0.  1.
         11    1    1    2    0    0 -0.27254349540E+01 -0.80597846851E+02 -0.23184934025E+03  0.24547414831E+03  0.00000000000E+00 0. -1.
</event>
<event>
 7    1  0.2490079E-009  0.1133126E+03  0.7561462E-02  0.1254556E+00
          1   -1    0    0  501    0  0.00000000000E+00  0.00000000000E+00  0.17521304624E+03  0.17521304624E+03  0.00000000000E+00 0. -1.
         -1   -1    0    0    0  501 -0.00000000000E+00 -0.00000000000E+00 -0.87929002935E+02  0.87929002935E+02  0.00000000000E+00 0.  1.
         25    2    1    2    0    0 -0.34909965618E+01  0.60015562424E+02  0.52826516518E+02  0.14849691915E+03  0.12508652749E+03 0.  0.
          5    1    3    3  502    0  0.37333080987E+02 -0.24175975646E+02  0.11536446686E+02  0.46138906972E+02  0.41800000000E+01 0. -1.
         -5    1    3    3    0  502 -0.40824077549E+02  0.84191538070E+02  0.41290069833E+02  0.10235801218E+03  0.41800000000E+01 0. -1.
        -11    1    1    2    0    0  0.32674783628E+02 -0.18512395537E+02  0.49120824877E+02  0.61832076710E+02  0.00000000000E+00 0. -1.
         11    1    1    2    0    0 -0.29183787066E+02 -0.41503166887E+02 -0.14663298093E+02  0.52813053312E+02  0.00000000000E+00 0.  1.
</event>
<event>
 7    1  0.2490079E-009  0.1097617E+03  0.7561462E-02  0.1261012E+00
         -2   -1    0    0    0  501 -0.00000000000E+00  0.00000000000E+00  0.32576907479E+03  0.32576907479E+03  0.00000000000E+00 0.  1.
          2   -1    0    0  501    0  0.00000000000E+00 -0.00000000000E+00 -0.51966257033E+02  0.51966257033E+02  0.00000000000E+00 0. -1.
         25    2    1    2    0    0  0.11777646658E+02 -0.68101572422E+02  0.18034393012E+03  0.23011259891E+03  0.12510530732E+03 0.  0.
          5    1    3    3  502    0  0.38981744495E+02  0.15575425139E+02  0.18953829939E+02  0.46248138789E+02  0.41800000000E+01 0.  1.
         -5    1    3    3    0  502 -0.27204097837E+02 -0.83676997561E+02  0.16139010018E+03  0.18386446012E+03  0.41800000000E+01 0.  1.
        -11    1    1    2    0    0 -0.71954885813E+01 -0.92746024492E+01  0.63414677585E+02  0.64491973451E+02  0.00000000000E+00 0.  1.
         11    1    1    2    0    0 -0.45821580764E+01  0.77376174871E+02  0.30044210052E+02  0.83130759458E+02  0.00000000000E+00 0. -1.
</event>
<event>
 7    1  0.2490079E-009  0.1041056E+03  0.7561462E-02  0.1271892E+00
          2   -1    0    0  501    0  0.00000000000E+00  0.00000000000E+00  0.14221418168E+03  0.14221418168E+03  0.00000000000E+00 0. -1.
         -2   -1    0    0    0  501 -0.00000000000E+00 -0.00000000000E+00 -0.85896535493E+02  0.85896535493E+02  0.00000000000E+00 0.  1.
         25    2    1    2    0    0  0.17758388297E+02 -0.12067448721E+02  0.49372176943E+02  0.13618110232E+03  0.12508675829E+03 0.  0.
          5    1    3    3  502    0  0.60310106739E+02 -0.40507388420E+02  0.14756573346E+02  0.74252180765E+02  0.41800000000E+01 0.  1.
         -5    1    3    3    0  502 -0.42551718442E+02  0.28439939698E+02  0.34615603597E+02  0.61928921554E+02  0.41800000000E+01 0.  1.
        -11    1    1    2    0    0 -0.12280490560E+02 -0.34799504943E+02 -0.15068955377E+02  0.39860875665E+02  0.00000000000E+00 0.  1.
         11    1    1    2    0    0 -0.54778977375E+01  0.46866953664E+02  0.22014424624E+02  0.52068739191E+02  0.00000000000E+00 0. -1.
</event>
<event>
 7    1  0.2490079E-009  0.1139767E+03  0.7561462E-02  0.1253378E+00
          1   -1    0    0  501    0  0.00000000000E+00  0.00000000000E+00  0.12019697981E+04  0.12019697981E+04  0.00000000000E+00 0. -1.
         -1   -1    0    0    0  501 -0.00000000000E+00 -0.00000000000E+00 -0.16011887555E+02  0.16011887555E+02  0.00000000000E+00 0.  1.
         25    2    1    2    0    0 -0.71708071447E+02  0.44125779083E+02  0.76712693073E+03  0.78180581605E+03  0.12508986473E+03 0.  0.
          5    1    3    3  502    0 -0.66790922144E+01  0.56851804021E+02  0.14196728329E+03  0.15313040136E+03  0.41800000000E+01 0.  1.
         -5    1    3    3    0  502 -0.65028979233E+02 -0.12726024938E+02  0.62515964744E+03  0.62867541469E+03  0.41800000000E+01 0.  1.
        -11    1    1    2    0    0  0.48252089942E+02  0.61917988645E+01  0.86513909688E+02  0.99253509391E+02  0.00000000000E+00 0.  1.
         11    1    1    2    0    0  0.23455981505E+02 -0.50317577948E+02  0.33231707013E+03  0.33692236022E+03  0.00000000000E+00 0. -1.
</event>
<event>
 7    1  0.2490079E-009  0.1191719E+03  0.7561462E-02  0.1244469E+00
          2   -1    0    0  501    0  0.00000000000E+00  0.00000000000E+00  0.17700595966E+04  0.17700595966E+04  0.00000000000E+00 0. -1.
         -2   -1    0    0    0  501 -0.00000000000E+00 -0.00000000000E+00 -0.13762322066E+02  0.13762322066E+02  0.00000000000E+00 0.  1.
         25    2    1    2    0    0  0.21778472227E+02 -0.58897712557E+02  0.14649135692E+04  0.14715851206E+04  0.12509100606E+03 0.  0.
          5    1    3    3  502    0  0.47812447772E+02 -0.80726719781E+02  0.12861036141E+04  0.12895281355E+04  0.41800000000E+01 0.  1.
         -5    1    3    3    0  502 -0.26033975545E+02  0.21829007224E+02  0.17880995502E+03  0.18205698518E+03  0.41800000000E+01 0.  1.
        -11    1    1    2    0    0 -0.54723327873E+02  0.54015999126E+02  0.17426578857E+03  0.19047555182E+03  0.00000000000E+00 0. -1.
         11    1    1    2    0    0  0.32944855646E+02  0.48817134312E+01  0.11711791677E+03  0.12176124617E+03  0.00000000000E+00 0.  1.
</event>
<event>
 7    1  0.2490079E-009  0.9720697E+02  0.7561462E-02  0.1286281E+00
          2   -1    0    0  501    0  0.00000000000E+00  0.00000000000E+00  0.44029010493E+02  0.44029010493E+02  0.00000000000E+00 0. -1.
         -2   -1    0    0    0  501 -0.00000000000E+00 -0.00000000000E+00 -0.51623823813E+03  0.51623823813E+03  0.00000000000E+00 0.  1.
         25    2    1    2    0    0 -0.47869950436E+02 -0.15310307945E+01 -0.89574999532E+02  0.16113652175E+03  0.12508965541E+03 0.  0.
          5    1    3    3  502    0 -0.74250862909E+02  0.97013190623E+01 -0.90325223440E+01  0.75540486458E+02  0.41800000000E+01 0. -1.
         -5    1    3    3    0  502  0.26380912473E+02 -0.11232349857E+02 -0.80542477188E+02  0.85596035292E+02  0.41800000000E+01 0. -1.
        -11    1    1    2    0    0 -0.20863813003E+02 -0.48194252928E+01 -0.17862362692E+02  0.27885292793E+02  0.00000000000E+00 0. -1.
         11    1    1    2    0    0  0.68733763439E+02  0.63504560873E+01 -0.36477186542E+03  0.37124543408E+03  0.00000000000E+00 0.  1.
</event>
<event>
 7    1  0.2490079E-009  0.6251911E+02  0.7561462E-02  0.1387554E+00
          1   -1    0    0  501    0  0.00000000000E+00  0.00000000000E+00  0.58055838589E+02  0.58055838589E+02  0.00000000000E+00 0. -1.
         -1   -1    0    0    0  501 -0.00000000000E+00 -0.00000000000E+00 -0.24951716117E+03  0.24951716117E+03  0.00000000000E+00 0.  1.
         25    2    1    2    0    0  0.99957303422E+01  0.25705940136E+02 -0.16785163112E+03  0.21115434216E+03  0.12510506049E+03 0.  0.
          5    1    3    3  502    0  0.33963506489E+02  0.23548512058E+02 -0.17939319457E+03  0.18413973730E+03  0.41800000000E+01 0. -1.
         -5    1    3    3    0  502 -0.23967776147E+02  0.21574280775E+01  0.11541563447E+02  0.27014604868E+02  0.41800000000E+01 0. -1.
        -11    1    1    2    0    0 -0.25338542996E+02  0.39878104218E+01 -0.48419152944E+02  0.54793783999E+02  0.00000000000E+00 0.  1.
         11    1    1    2    0    0  0.15342812654E+02 -0.29693750558E+02  0.24809461489E+02  0.41624873594E+02  0.00000000000E+00 0. -1.
</event>
<event>
 7    1  0.2490079E-009  0.1236368E+03  0.7561462E-02  0.1237215E+00
         -4   -1    0    0    0  501 -0.00000000000E+00  0.00000000000E+00  0.89425264679E+02  0.89425264679E+02  0.00000000000E+00 0.  1.
          4   -1    0    0  501    0  0.00000000000E+00 -0.00000000000E+00 -0.20995318836E+03  0.20995318836E+03  0.00000000000E+00 0. -1.
         25    2    1    2    0    0 -0.50488968865E+02  0.59882690032E+02 -0.99010885753E+02  0.17772407001E+03  0.12509043538E+03 0.  0.
          5    1    3    3  502    0  0.34740055703E+02  0.22362646144E+02  0.28842357676E+00  0.41527280202E+02  0.41800000000E+01 0.  1.
         -5    1    3    3    0  502 -0.85229024567E+02  0.37520043888E+02 -0.99299309329E+02  0.13619678981E+03  0.41800000000E+01 0.  1.
        -11    1    1    2    0    0  0.72879567780E+02 -0.45313611917E+02  0.23237907131E+01  0.85849605870E+02  0.00000000000E+00 0.  1.
         11    1    1    2    0    0 -0.22390598915E+02 -0.14569078115E+02 -0.23840828647E+02  0.35804777160E+02  0.00000000000E+00 0. -1.
</event>
<event>
 7    1  0.2490079E-009  0.9213672E+02  0.7561462E-02  0.1297758E+00
          2   -1    0    0  501    0  0.00000000000E+00  0.00000000000E+00  0.46400772457E+03  0.46400772457E+03  0.00000000000E+00 0. -1.
         -2   -1    0    0    0  501 -0.00000000000E+00 -0.00000000000E+00 -0.35477891557E+02  0.35477891557E+02  0.00000000000E+00 0.  1.
         25    2    1    2    0    0  0.60823269067E+01  0.57289256748E+02  0.15397641674E+03  0.20658402828E+03  0.12509664339E+03 0.  0.
          5    1    3    3  502    0  0.13613184243E+02  0.78815166282E+02  0.38612085647E+02  0.88912961818E+02  0.41800000000E+01 0. -1.
         -5    1    3    3    0  502 -0.75308573365E+01 -0.21525909534E+02  0.11536433109E+03  0.11767106646E+03  0.41800000000E+01 0. -1.
        -11    1    1    2    0    0  0.19786534640E+02 -0.50520742116E+02  0.25243328454E+03  0.25819840332E+03  0.00000000000E+00 0. -1.
         11    1    1    2    0    0 -0.25868861547E+02 -0.67685146320E+01  0.22120131735E+02  0.34703184523E+02  0.00000000000E+00 0.  1.
</event>
<event>
 7    1  0.2490079E-009  0.7887823E+02  0.7561462E-02  0.1332265E+00
          1   -1    0    0  501    0  0.00000000000E+00  0.00000000000E+00  0.72938819121E+02  0.72938819121E+02  0.00000000000E+00 0. -1.
         -1   -1    0    0    0  501 -0.00000000000E+00 -0.00000000000E+00 -0.19702626192E+03  0.19702626192E+03  0.00000000000E+00 0.  1.
         25    2    1    2    0    0  0.10767112515E+02 -0.53176174266E+02 -0.68205972198E+02  0.15247233410E+03  0.12510844016E+03 0.  0.
          5    1    3    3  502    0  0.12983239092E+02 -0.15717708857E+02  0.36030482230E+02  0.41608639953E+02  0.41800000000E+01 0.  1.
         -5    1    3    3    0  502 -0.22161265767E+01 -0.37458465410E+02 -0.10423645443E+03  0.11086369414E+03  0.41800000000E+01 0.  1.
        -11    1    1    2    0    0 -0.34324316102E+02  0.64490726410E+02 -0.54821237241E+02  0.91337727809E+02  0.00000000000E+00 0.  1.
         11    1    1    2    0    0  0.23557203587E+02 -0.11314552143E+02 -0.10602333578E+01  0.26155019132E+02  0.00000000000E+00 0. -1.
</event>
<event>
 7    1  0.2490079E-009  0.1626302E+03  0.7561462E-02  0.1185759E+00
          2   -1    0    0  501    0  0.00000000000E+00  0.00000000000E+00  0.30701580636E+03  0.30701580636E+03  0.00000000000E+00 0.  1.
         -2   -1    0    0    0  501 -0.00000000000E+00 -0.00000000000E+00 -0.15740222764E+03  0.15740222764E+03  0.00000000000E+00 0. -1.
         25    2    1    2    0    0  0.61642680190E+02 -0.12241368714E+03 -0.61809085458E+02  0.19558446582E+03  0.12509192381E+03 0.  0.
          5    1    3    3  502    0 -0.28690231550E+02 -0.76753212886E+02 -0.42705534995E+02  0.92495514453E+02  0.41800000000E+01 0. -1.
         -5    1    3    3    0  502  0.90332911740E+02 -0.45660474258E+02 -0.19103550463E+02  0.10308895136E+03  0.41800000000E+01 0. -1.
        -11    1    1    2    0    0 -0.33244559059E+02  0.10103698055E+03  0.20737102267E+03  0.23305881917E+03  0.00000000000E+00 0.  1.
         11    1    1    2    0    0 -0.28398121131E+02  0.21376706590E+02  0.40516414977E+01  0.35774749017E+02  0.00000000000E+00 0. -1.
</event>
<event>
 7    1  0.2490079E-009  0.1041790E+03  0.7561462E-02  0.1271746E+00
         -2   -1    0    0    0  501 -0.00000000000E+00  0.00000000000E+00  0.23534585086E+02  0.23534585086E+02  0.00000000000E+00 0.  1.
          2   -1    0    0  501    0  0.00000000000E+00 -0.00000000000E+00 -0.57035298708E+03  0.57035298708E+03  0.00000000000E+00 0. -1.
         25    2    1    2    0    0  0.10952318734E+02 -0.10198687461E+02 -0.22776562102E+03  0.26028425509E+03  0.12508696501E+03 0.  0.
          5    1    3    3  502    0  0.46167071950E+02 -0.45110757870E+02 -0.72120292443E+02  0.96877179924E+02  0.41800000000E+01 0. -1.
         -5    1    3    3    0  502 -0.35214753216E+02  0.34912070408E+02 -0.15564532858E+03  0.16340707516E+03  0.41800000000E+01 0. -1.
        -11    1    1    2    0    0  0.86454445011E+01 -0.39528106358E+02 -0.94897597180E+02  0.10316379623E+03  0.00000000000E+00 0.  1.
         11    1    1    2    0    0 -0.19597763235E+02  0.49726793819E+02 -0.22415518380E+03  0.23043952085E+03  0.00000000000E+00 0. -1.
</event>
<event>
 7    1  0.2592087E-009  0.9581613E+02  0.7561462E-02  0.1289348E+00
          3   -1    0    0  501    0  0.00000000000E+00  0.00000000000E+00  0.24967497202E+02  0.24967497202E+02  0.00000000000E+00 0. -1.
         -3   -1    0    0    0  501 -0.00000000000E+00 -0.00000000000E+00 -0.58872922708E+03  0.58872922708E+03  0.00000000000E+00 0.  1.
         25    2    1    2    0    0 -0.64155313824E+01  0.26590368373E+02 -0.43370671649E+03  0.45221513630E+03  0.12509519111E+03 0.  0.
          5    1    3    3  502    0 -0.64527175321E+02  0.12834740812E+02 -0.18465870070E+03  0.19607344306E+03  0.41800000000E+01 0. -1.
         -5    1    3    3    0  502  0.58111643939E+02  0.13755627560E+02 -0.24904801579E+03  0.25614169325E+03  0.41800000000E+01 0. -1.
        -11    1    1    2    0    0 -0.20636084616E+02 -0.32173702109E+02 -0.12822328442E+03  0.13379912467E+03  0.00000000000E+00 0.  1.
         11    1    1    2    0    0  0.27051615999E+02  0.55833337363E+01 -0.18317289681E+01  0.27682463308E+02  0.00000000000E+00 0. -1.
</event>
<event>
 7    1  0.2490079E-009  0.9375035E+02  0.7561462E-02  0.1294016E+00
         -2   -1    0    0    0  501 -0.00000000000E+00  0.00000000000E+00  0.32002209226E+02  0.32002209226E+02  0.00000000000E+00 0.  1.
          2   -1    0    0  501    0  0.00000000000E+00 -0.00000000000E+00 -0.57520886274E+03  0.57520886274E+03  0.00000000000E+00 0. -1.
         25    2    1    2    0    0 -0.70189578754E+01 -0.49336899548E+02 -0.14903591088E+03  0.20085508360E+03  0.12509063293E+03 0.  0.
          5    1    3    3  502    0  0.33883272107E+02 -0.10175104568E+02  0.56568403494E+01  0.36070502136E+02  0.41800000000E+01 0.  1.
         -5    1    3    3    0  502 -0.40902229982E+02 -0.39161794980E+02 -0.15469275123E+03  0.16478458146E+03  0.41800000000E+01 0.  1.
        -11    1    1    2    0    0  0.27940488099E+02 -0.11910468562E+02 -0.18253723989E+03  0.18504695103E+03  0.00000000000E+00 0. -1.
         11    1    1    2    0    0 -0.20921530223E+02  0.61247368110E+02 -0.21163350274E+03  0.22130903734E+03  0.00000000000E+00 0.  1.
</event>
<event>
 7    1  0.2490079E-009  0.1266185E+03  0.7561462E-02  0.1232561E+00
         -1   -1    0    0    0  501 -0.00000000000E+00  0.00000000000E+00  0.21536202823E+02  0.21536202823E+02  0.00000000000E+00 0.  1.
          1   -1    0    0  501    0  0.00000000000E+00 -0.00000000000E+00 -0.95765014663E+03  0.95765014663E+03  0.00000000000E+00 0. -1.
         25    2    1    2    0    0 -0.56635696750E+02 -0.71240150253E+02 -0.43561168115E+03  0.46226386398E+03  0.12509029552E+03 0.  0.
          5    1    3    3  502    0 -0.11203911022E+02 -0.81307618833E+02 -0.13503067550E+03  0.15807343935E+03  0.41800000000E+01 0.  1.
         -5    1    3    3    0  502 -0.45431785728E+02  0.10067468579E+02 -0.30058100565E+03  0.30419042463E+03  0.41800000000E+01 0.  1.
        -11    1    1    2    0    0 -0.17795749684E+02  0.39679424358E+02 -0.24828540260E+03  0.25206504432E+03  0.00000000000E+00 0. -1.
         11    1    1    2    0    0  0.74431446434E+02  0.31560725896E+02 -0.25221686005E+03  0.26485744115E+03  0.00000000000E+00 0.  1.
</event>
<event>
 7    1  0.2490079E-009  0.1023821E+03  0.7561462E-02  0.1275365E+00
         -2   -1    0    0    0  501 -0.00000000000E+00  0.00000000000E+00  0.26219089195E+02  0.26219089195E+02  0.00000000000E+00 0.  1.
          2   -1    0    0  501    0  0.00000000000E+00 -0.00000000000E+00 -0.51092018395E+03  0.51092018395E+03  0.00000000000E+00 0. -1.
         25    2    1    2    0    0  0.71193182199E+01  0.20790832497E+02 -0.19076084601E+03  0.22917212384E+03  0.12508884269E+03 0.  0.
          5    1    3    3  502    0 -0.50642505029E+02  0.22644065822E+02 -0.14510434904E+03  0.15540322243E+03  0.41800000000E+01 0.  1.
         -5    1    3    3    0  502  0.57761823249E+02 -0.18532333242E+01 -0.45656496979E+02  0.73768901410E+02  0.41800000000E+01 0.  1.
        -11    1    1    2    0    0  0.40616530176E+02 -0.50678172195E+01 -0.15097237117E+03  0.15642263951E+03  0.00000000000E+00 0.  1.
         11    1    1    2    0    0 -0.47735848396E+02 -0.15723015278E+02 -0.14296787757E+03  0.15154450979E+03  0.00000000000E+00 0. -1.
</event>
<event>
 7    1  0.2490079E-009  0.1436625E+03  0.7561462E-02  0.1208484E+00
         -1   -1    0    0    0  501 -0.00000000000E+00  0.00000000000E+00  0.67563240416E+03  0.67563240416E+03  0.00000000000E+00 0.  1.
          1   -1    0    0  501    0  0.00000000000E+00 -0.00000000000E+00 -0.42787715798E+02  0.42787715798E+02  0.00000000000E+00 0. -1.
         25    2    1    2    0    0  0.12104512402E+03 -0.14053832258E+02  0.23984845856E+03  0.29668958105E+03  0.12509193492E+03 0.  0.
          5    1    3    3  502    0  0.11519442476E+03  0.12349271426E+02  0.96748607673E+02  0.15099677310E+03  0.41800000000E+01 0.  1.
         -5    1    3    3    0  502  0.58506992653E+01 -0.26403103683E+02  0.14309985089E+03  0.14569280795E+03  0.41800000000E+01 0.  1.
        -11    1    1    2    0    0 -0.22756244673E+02  0.36684887016E+02  0.19265907396E+03  0.19743643632E+03  0.00000000000E+00 0.  1.
         11    1    1    2    0    0 -0.98288879350E+02 -0.22631054758E+02  0.20033715584E+03  0.22429410258E+03  0.00000000000E+00 0. -1.
</event>
<event>
 7    1  0.2490079E-009  0.2805599E+03  0.7561462E-02  0.1095384E+00
         -1   -1    0    0    0  501 -0.00000000000E+00  0.00000000000E+00  0.43358881649E+03  0.43358881649E+03  0.00000000000E+00 0.  1.
          1   -1    0    0  501    0  0.00000000000E+00 -0.00000000000E+00 -0.20664985934E+03  0.20664985934E+03  0.00000000000E+00 0. -1.
         25    2    1    2    0    0 -0.15331887440E+03 -0.22805506880E+03  0.16853774880E+03  0.34578596771E+03  0.12508865272E+03 0.  0.
          5    1    3    3  502    0 -0.35645538457E+02 -0.12424540982E+02 -0.13179170385E+02  0.40201201009E+02  0.41800000000E+01 0.  1.
         -5    1    3    3    0  502 -0.11767333594E+03 -0.21563052782E+03  0.18171691919E+03  0.30558476670E+03  0.41800000000E+01 0.  1.
        -11    1    1    2    0    0  0.14573350080E+03  0.19442205103E+03  0.77500466332E+02  0.25503825098E+03  0.00000000000E+00 0. -1.
         11    1    1    2    0    0  0.75853735980E+01  0.33633017766E+02 -0.19099257984E+02  0.39414457147E+02  0.00000000000E+00 0.  1.
</event>
<event>
 7    1  0.2490079E-009  0.9085536E+02  0.7561462E-02  0.1300793E+00
          1   -1    0    0  501    0  0.00000000000E+00  0.00000000000E+00  0.19996245733E+03  0.19996245733E+03  0.00000000000E+00 0. -1.
         -1   -1    0    0    0  501 -0.00000000000E+00 -0.00000000000E+00 -0.76483270105E+02  0.76483270105E+02  0.00000000000E+00 0.  1.
         25    2    1    2    0    0  0.82174898156E+00  0.30822112008E+02  0.15367290955E+02  0.12974902233E+03  0.12509187545E+03 0.  0.
          5    1    3    3  502    0  0.42454843766E+02  0.36125258966E+02  0.50134686255E+02  0.75089328540E+02  0.41800000000E+01 0.  1.
         -5    1    3    3    0  502 -0.41633094785E+02 -0.53031469583E+01 -0.34767395300E+02  0.54659693788E+02  0.41800000000E+01 0.  1.
        -11    1    1    2    0    0  0.13936182927E+02 -0.54212799828E+02  0.29315292939E+02  0.63187271344E+02  0.00000000000E+00 0.  1.
         11    1    1    2    0    0 -0.14757931909E+02  0.23390687820E+02  0.78796603336E+02  0.83509433767E+02  0.00000000000E+00 0. -1.
</event>
<event>
 7    1  0.2490079E-009  0.1537683E+03  0.7561462E-02  0.1195918E+00
          3   -1    0    0  501    0  0.00000000000E+00  0.00000000000E+00  0.11861955323E+04  0.11861955323E+04  0.00000000000E+00 0. -1.
         -3   -1    0    0    0  501 -0.00000000000E+00 -0.00000000000E+00 -0.25856125746E+02  0.25856125746E+02  0.00000000000E+00 0.  1.
         25    2    1    2    0    0  0.85045397295E+02  0.90531249763E+02  0.80865968443E+03  0.82765147332E+03  0.12509136370E+03 0.  0.
          5    1    3    3  502    0  0.34009452377E+01  0.93235312275E+02  0.47677831666E+03  0.48583888844E+03  0.41800000000E+01 0.  1.
         -5    1    3    3    0  502  0.81644452057E+02 -0.27040625126E+01  0.33188136777E+03  0.34181258487E+03  0.41800000000E+01 0.  1.
        -11    1    1    2    0    0 -0.31054764721E+02 -0.66215336115E+02  0.89325051912E+02  0.11544623878E+03  0.00000000000E+00 0.  1.
         11    1    1    2    0    0 -0.53990632574E+02 -0.24315913648E+02  0.26235467022E+03  0.26895394596E+03  0.00000000000E+00 0. -1.
</event>
<event>
 7    1  0.2490079E-009  0.7535316E+02  0.7561462E-02  0.1342781E+00
          1   -1    0    0  501    0  0.00000000000E+00  0.00000000000E+00  0.41244491821E+03  0.41244491821E+03  0.00000000000E+00 0. -1.
         -1   -1    0    0    0  501 -0.00000000000E+00 -0.00000000000E+00 -0.30476666618E+02  0.30476666618E+02  0.00000000000E+00 0.  1.
         25    2    1    2    0    0 -0.27775615379E+02  0.45792967553E+01  0.18008705250E+03  0.22106800476E+03  0.12508901423E+03 0.  0.
          5    1    3    3  502    0  0.36966474266E+02 -0.28687281269E+01  0.96374251856E+01  0.38537023561E+02  0.41800000000E+01 0. -1.
         -5    1    3    3    0  502 -0.64742089644E+02  0.74480248822E+01  0.17044962731E+03  0.18253098120E+03  0.41800000000E+01 0. -1.
        -11    1    1    2    0    0 -0.92370269834E+01  0.40494643969E+01 -0.51767393197E+01  0.11336642333E+02  0.00000000000E+00 0.  1.
         11    1    1    2    0    0  0.37012642362E+02 -0.86287611523E+01  0.20705793842E+03  0.21051693774E+03  0.00000000000E+00 0. -1.
</event>
<event>
 7    1  0.2490079E-009  0.6253870E+02  0.7561462E-02  0.1387477E+00
         -1   -1    0    0    0  501 -0.00000000000E+00  0.00000000000E+00  0.11033559705E+03  0.11033559705E+03  0.00000000000E+00 0.  1.
          1   -1    0    0  501    0  0.00000000000E+00 -0.00000000000E+00 -0.10988621672E+03  0.10988621672E+03  0.00000000000E+00 0. -1.
         25    2    1    2    0    0 -0.20984350998E+00  0.62981360734E+01  0.12265555396E+02  0.12584664150E+03  0.12508885952E+03 0.  0.
          5    1    3    3  502    0  0.32250158021E+02  0.24862403377E+02  0.55223039012E+02  0.68740586495E+02  0.41800000000E+01 0. -1.
         -5    1    3    3    0  502 -0.32460001531E+02 -0.18564267303E+02 -0.42957483616E+02  0.57106055007E+02  0.41800000000E+01 0. -1.
        -11    1    1    2    0    0  0.21389256970E+02  0.57508043866E+01 -0.46779787090E+02  0.51758289626E+02  0.00000000000E+00 0. -1.
         11    1    1    2    0    0 -0.21179413460E+02 -0.12048940460E+02  0.34963612018E+02  0.42616882641E+02  0.00000000000E+00 0.  1.
</event>
<event>
 7    1  0.2490079E-009  0.3015968E+03  0.7561462E-02  0.1084445E+00
         -2   -1    0    0    0  501 -0.00000000000E+00  0.00000000000E+00  0.84463515641E+02  0.84463515641E+02  0.00000000000E+00 0. -1.
          2   -1    0    0  501    0  0.00000000000E+00 -0.00000000000E+00 -0.13037784832E+04  0.13037784832E+04  0.00000000000E+00 0.  1.
         25    2    1    2    0    0  0.27608283204E+03 -0.62373935741E+02 -0.33861801161E+03  0.45871827314E+03  0.12509219928E+03 0.  0.
          5    1    3    3  502    0  0.15006210447E+03  0.27383540204E+02 -0.14157931388E+03  0.20816019790E+03  0.41800000000E+01 0.  1.
         -5    1    3    3    0  502  0.12602072757E+03 -0.89757475945E+02 -0.19703869773E+03  0.25055807524E+03  0.41800000000E+01 0.  1.
        -11    1    1    2    0    0 -0.19309485529E+03  0.83206287320E+02 -0.58210865915E+03  0.61891792707E+03  0.00000000000E+00 0. -1.
         11    1    1    2    0    0 -0.82987976749E+02 -0.20832351579E+02 -0.29858829685E+03  0.31060579868E+03  0.00000000000E+00 0.  1.
</event>
<event>
 7    1  0.2490079E-009  0.1199651E+03  0.7561462E-02  0.1243155E+00
         -2   -1    0    0    0  501 -0.00000000000E+00  0.00000000000E+00  0.11284050318E+03  0.11284050318E+03  0.00000000000E+00 0.  1.
          2   -1    0    0  501    0  0.00000000000E+00 -0.00000000000E+00 -0.16866936251E+03  0.16866936251E+03  0.00000000000E+00 0. -1.
         25    2    1    2    0    0  0.24858101105E+02 -0.75405615750E+02 -0.61303877505E+02  0.16034144243E+03  0.12508909099E+03 0.  0.
          5    1    3    3  502    0  0.69336740170E+02 -0.76572514967E+02 -0.45278419335E+02  0.11286514627E+03  0.41800000000E+01 0.  1.
         -5    1    3    3    0  502 -0.44478639065E+02  0.11668992171E+01 -0.16025458170E+02  0.47476296153E+02  0.41800000000E+01 0.  1.
        -11    1    1    2    0    0  0.91919519633E+01  0.45866057835E+02  0.42218655836E+02  0.63012714136E+02  0.00000000000E+00 0.  1.
         11    1    1    2    0    0 -0.34050053068E+02  0.29539557915E+02 -0.36743637665E+02  0.58155709132E+02  0.00000000000E+00 0. -1.
</event>
<event>
 7    1  0.2490079E-009  0.1081515E+03  0.7561462E-02  0.1264032E+00
         -2   -1    0    0    0  501 -0.00000000000E+00  0.00000000000E+00  0.29549039670E+03  0.29549039670E+03  0.00000000000E+00 0.  1.
          2   -1    0    0  501    0  0.00000000000E+00 -0.00000000000E+00 -0.76101033697E+02  0.76101033697E+02  0.00000000000E+00 0. -1.
         25    2    1    2    0    0 -0.20425294150E+02 -0.28609711871E+02 -0.68972985713E+00  0.12993529523E+03  0.12508795691E+03 0.  0.
          5    1    3    3  502    0 -0.66835596845E+02  0.11544678159E+02  0.51353992105E+01  0.68147790312E+02  0.41800000000E+01 0.  1.
         -5    1    3    3    0  502  0.46410302695E+02 -0.40154390030E+02 -0.58251290676E+01  0.61787504914E+02  0.41800000000E+01 0.  1.
        -11    1    1    2    0    0 -0.28887612834E+02  0.23539359750E+02  0.15735707090E+03  0.16170913207E+03  0.00000000000E+00 0.  1.
         11    1    1    2    0    0  0.49312906984E+02  0.50703521211E+01  0.62722021958E+02  0.79947003098E+02  0.00000000000E+00 0. -1.
</event>
<event>
 7    1  0.2490079E-009  0.6554596E+02  0.7561462E-02  0.1375930E+00
         -1   -1    0    0    0  501 -0.00000000000E+00  0.00000000000E+00  0.18596169157E+03  0.18596169157E+03  0.00000000000E+00 0.  1.
          1   -1    0    0  501    0  0.00000000000E+00 -0.00000000000E+00 -0.65476542543E+02  0.65476542543E+02  0.00000000000E+00 0. -1.
         25    2    1    2    0    0 -0.22783558540E+02  0.65121506801E+01  0.76039848577E+02  0.14829357772E+03  0.12508967974E+03 0.  0.
          5    1    3    3  502    0 -0.65884730374E+01 -0.27154689365E+02 -0.26711443553E+02  0.38881341903E+02  0.41800000000E+01 0.  1.
         -5    1    3    3    0  502 -0.16195085502E+02  0.33666840045E+02  0.10275129213E+03  0.10941223582E+03  0.41800000000E+01 0.  1.
        -11    1    1    2    0    0  0.64022385508E+01  0.27104441236E+02  0.57211479332E+02  0.63630124631E+02  0.00000000000E+00 0.  1.
         11    1    1    2    0    0  0.16381319989E+02 -0.33616591916E+02 -0.12766178883E+02  0.39514531756E+02  0.00000000000E+00 0. -1.
</event>
<event>
 7    1  0.2490079E-009  0.1513022E+03  0.7561462E-02  0.1198882E+00
          1   -1    0    0  501    0  0.00000000000E+00  0.00000000000E+00  0.83534967266E+03  0.83534967266E+03  0.00000000000E+00 0. -1.
         -1   -1    0    0    0  501 -0.00000000000E+00 -0.00000000000E+00 -0.49735306309E+02  0.49735306309E+02  0.00000000000E+00 0.  1.
         25    2    1    2    0    0 -0.91347676780E+02  0.77326997346E+02  0.14287904049E+03  0.22446265951E+03  0.12508078482E+03 0.  0.
          5    1    3    3  502    0 -0.89513810104E+02  0.17689625144E+02  0.13659623014E+03  0.16432178044E+03  0.41800000000E+01 0. -1.
         -5    1    3    3    0  502 -0.18338666757E+01  0.59637372203E+02  0.62828103542E+01  0.60140879077E+02  0.41800000000E+01 0. -1.
        -11    1    1    2    0    0  0.63703963103E+02 -0.98033242003E+02  0.52863813863E+03  0.54141203632E+03  0.00000000000E+00 0. -1.
         11    1    1    2    0    0  0.27643713676E+02  0.20706244657E+02  0.11409718722E+03  0.11921028314E+03  0.00000000000E+00 0.  1.
</event>
<event>
 7    1  0.2490079E-009  0.1015933E+03  0.7561462E-02  0.1276981E+00
          2   -1    0    0  501    0  0.00000000000E+00  0.00000000000E+00  0.21374780754E+03  0.21374780754E+03  0.00000000000E+00 0. -1.
         -2   -1    0    0    0  501 -0.00000000000E+00 -0.00000000000E+00 -0.87320800727E+02  0.87320800727E+02  0.00000000000E+00 0.  1.
         25    2    1    2    0    0 -0.67763819235E+02 -0.28427488877E+02  0.10876741298E+03  0.18132314695E+03  0.12509067181E+03 0.  0.
          5    1    3    3  502    0 -0.53238485299E+01 -0.58629133168E+02  0.92877893016E+02  0.11004314622E+03  0.41800000000E+01 0.  1.
         -5    1    3    3    0  502 -0.62439970705E+02  0.30201644291E+02  0.15889519968E+02  0.71280000732E+02  0.41800000000E+01 0.  1.
        -11    1    1    2    0    0  0.36914784492E+02  0.22610184584E+02 -0.36845412402E+02  0.56846338282E+02  0.00000000000E+00 0.  1.
         11    1    1    2    0    0  0.30849034743E+02  0.58173042933E+01  0.54505006229E+02  0.62899123029E+02  0.00000000000E+00 0. -1.
</event>
<event>
 7    1  0.2490079E-009  0.1238851E+03  0.7561462E-02  0.1236822E+00
          2   -1    0    0  501    0  0.00000000000E+00  0.00000000000E+00  0.23113488141E+03  0.23113488141E+03  0.00000000000E+00 0. -1.
         -2   -1    0    0    0  501 -0.00000000000E+00 -0.00000000000E+00 -0.68705445671E+02  0.68705445671E+02  0.00000000000E+00 0.  1.
         25    2    1    2    0    0  0.15880384991E+01  0.64817444367E+02  0.85882725461E+02  0.16500764814E+03  0.12509140038E+03 0.  0.
          5    1    3    3  502    0  0.46277948583E+02  0.77390911633E+02  0.74458908836E+02  0.11701539742E+03  0.41800000000E+01 0.  1.
         -5    1    3    3    0  502 -0.44689910084E+02 -0.12573467266E+02  0.11423816626E+02  0.47992250715E+02  0.41800000000E+01 0.  1.
        -11    1    1    2    0    0  0.37581376412E+02 -0.60848560888E+02  0.46489083192E+02  0.85300305224E+02  0.00000000000E+00 0.  1.
         11    1    1    2    0    0 -0.39169414911E+02 -0.39688834793E+01  0.30057627085E+02  0.49532373722E+02  0.00000000000E+00 0. -1.
</event>
<event>
 7    1  0.2490079E-009  0.6840161E+02  0.7561462E-02  0.1365614E+00
          1   -1    0    0  501    0  0.00000000000E+00  0.00000000000E+00  0.75990832131E+03  0.75990832131E+03  0.00000000000E+00 0. -1.
         -1   -1    0    0    0  501 -0.00000000000E+00 -0.00000000000E+00 -0.23549910746E+02  0.23549910746E+02  0.00000000000E+00 0.  1.
         25    2    1    2    0    0 -0.34467731361E+02 -0.31778024191E+02  0.58196899053E+03  0.59710323231E+03  0.12508595753E+03 0.  0.
          5    1    3    3  502    0 -0.26452228125E+02 -0.12829563571E+02  0.22540372699E+02  0.37280811091E+02  0.41800000000E+01 0. -1.
         -5    1    3    3    0  502 -0.80155032364E+01 -0.18948460620E+02  0.55942861783E+03  0.55982242122E+03  0.41800000000E+01 0. -1.
        -11    1    1    2    0    0  0.21854533447E+02  0.55278823780E+02  0.47215922026E+02  0.75912530477E+02  0.00000000000E+00 0.  1.
         11    1    1    2    0    0  0.12613197914E+02 -0.23500799588E+02  0.10717349801E+03  0.11044246927E+03  0.00000000000E+00 0. -1.
</event>
<event>
 7    1  0.2490079E-009  0.1072308E+03  0.7561462E-02  0.1265786E+00
         -1   -1    0    0    0  501 -0.00000000000E+00  0.00000000000E+00  0.35139764972E+02  0.35139764972E+02  0.00000000000E+00 0.  1.
          1   -1    0    0  501    0  0.00000000000E+00 -0.00000000000E+00 -0.48111302652E+03  0.48111302652E+03  0.00000000000E+00 0. -1.
         25    2    1    2    0    0  0.41147069251E+02 -0.70946284834E+00 -0.11767208416E+03  0.17660043501E+03  0.12508960632E+03 0.  0.
          5    1    3    3  502    0  0.47129109158E+02 -0.55085070357E+02 -0.44576049558E+02  0.85205718707E+02  0.41800000000E+01 0. -1.
         -5    1    3    3    0  502 -0.59820399066E+01  0.54375607508E+02 -0.73096034603E+02  0.91394716302E+02  0.41800000000E+01 0. -1.
        -11    1    1    2    0    0  0.21112587088E+02 -0.10727467177E+02 -0.82590501878E+02  0.85918629447E+02  0.00000000000E+00 0.  1.
         11    1    1    2    0    0 -0.62259656339E+02  0.11436930025E+02 -0.24571067551E+03  0.25373372704E+03  0.00000000000E+00 0. -1.
</event>
<event>
 7    1  0.2490079E-009  0.2314269E+03  0.7561462E-02  0.1125639E+00
          1   -1    0    0  501    0  0.00000000000E+00  0.00000000000E+00  0.20315020160E+03  0.20315020160E+03  0.00000000000E+00 0. -1.
         -1   -1    0    0    0  501 -0.00000000000E+00 -0.00000000000E+00 -0.39565082933E+03  0.39565082933E+03  0.00000000000E+00 0.  1.
         25    2    1    2    0    0  0.61476152074E+01  0.22273890432E+03  0.45928888580E+02  0.25962903602E+03  0.12508941149E+03 0.  0.
          5    1    3    3  502    0 -0.27646669473E+02  0.14438335283E+03 -0.24267803865E+02  0.14905465310E+03  0.41800000000E+01 0. -1.
         -5    1    3    3    0  502  0.33794284680E+02  0.78355551491E+02  0.70196692445E+02  0.11057438291E+03  0.41800000000E+01 0. -1.
        -11    1    1    2    0    0  0.23061177362E+02 -0.15324251626E+03 -0.10925501059E+03  0.18960945132E+03  0.00000000000E+00 0. -1.
         11    1    1    2    0    0 -0.29208792569E+02 -0.69496388059E+02 -0.12917450573E+03  0.14956254360E+03  0.00000000000E+00 0.  1.
</event>
<event>
 7    1  0.2490079E-009  0.1023103E+03  0.7561462E-02  0.1275511E+00
          2   -1    0    0  501    0  0.00000000000E+00  0.00000000000E+00  0.39791332171E+03  0.39791332171E+03  0.00000000000E+00 0. -1.
         -2   -1    0    0    0  501 -0.00000000000E+00 -0.00000000000E+00 -0.49486444635E+02  0.49486444635E+02  0.00000000000E+00 0.  1.
         25    2    1    2    0    0  0.52066410483E+02  0.68762055687E+02  0.15730575925E+03  0.21870429463E+03  0.12508930886E+03 0.  0.
          5    1    3    3  502    0  0.28814177956E+02  0.18144371113E+02 -0.15094313957E+02  0.37480471824E+02  0.41800000000E+01 0. -1.
         -5    1    3    3    0  502  0.23252232528E+02  0.50617684574E+02  0.17240007321E+03  0.18122382280E+03  0.41800000000E+01 0. -1.
        -11    1    1    2    0    0 -0.26849206513E+02 -0.81780439691E+02  0.17738679930E+03  0.19716743335E+03  0.00000000000E+00 0. -1.
         11    1    1    2    0    0 -0.25217203971E+02  0.13018384004E+02  0.13734318520E+02  0.31528038369E+02  0.00000000000E+00 0.  1.
</event>
<event>
 7    1  0.2490079E-009  0.1156224E+03  0.7561462E-02  0.1250498E+00
          1   -1    0    0  501    0  0.00000000000E+00  0.00000000000E+00  0.11209917975E+03  0.11209917975E+03  0.00000000000E+00 0. -1.
         -1   -1    0    0    0  501 -0.00000000000E+00 -0.00000000000E+00 -0.14105964929E+03  0.14105964929E+03  0.00000000000E+00 0.  1.
         25    2    1    2    0    0 -0.51022681519E+02  0.28501139264E+02 -0.41362695434E+02  0.14413073992E+03  0.12508864316E+03 0.  0.
          5    1    3    3  502    0 -0.83911890614E+02  0.51658273765E+01 -0.55916984069E+02  0.10105480031E+03  0.41800000000E+01 0. -1.
         -5    1    3    3    0  502  0.32889209094E+02  0.23335311887E+02  0.14554288634E+02  0.43075939611E+02  0.41800000000E+01 0. -1.
        -11    1    1    2    0    0  0.70570210241E+02 -0.42595259293E+02  0.11623400727E+01  0.82437016699E+02  0.00000000000E+00 0.  1.
         11    1    1    2    0    0 -0.19547528722E+02  0.14094120029E+02  0.11239885823E+02  0.26591072409E+02  0.00000000000E+00 0. -1.
</event>
<event>
 7    1  0.2490079E-009  0.1017181E+03  0.7561462E-02  0.1276724E+00
          1   -1    0    0  501    0  0.00000000000E+00  0.00000000000E+00  0.23524680898E+03  0.23524680898E+03  0.00000000000E+00 0. -1.
         -1   -1    0    0    0  501 -0.00000000000E+00 -0.00000000000E+00 -0.63691940997E+02  0.63691940997E+02  0.00000000000E+00 0.  1.
         25    2    1    2    0    0 -0.27750371649E+02 -0.29871794812E+02  0.14482051687E+03  0.19566037931E+03  0.12509034604E+03 0.  0.
          5    1    3    3  502    0 -0.53646508719E+02 -0.65425711381E+02  0.75595413621E+02  0.11353682472E+03  0.41800000000E+01 0. -1.
         -5    1    3    3    0  502  0.25896137069E+02  0.35553916569E+02  0.69225103249E+02  0.82123554589E+02  0.41800000000E+01 0. -1.
        -11    1    1    2    0    0  0.47446180584E+02  0.14671708584E+02 -0.17393251875E+02  0.52620569130E+02  0.00000000000E+00 0.  1.
         11    1    1    2    0    0 -0.19695808934E+02  0.15200086228E+02  0.44127602991E+02  0.50657801538E+02  0.00000000000E+00 0. -1.
</event>
<event>
 7    1  0.2490079E-009  0.1294506E+03  0.7561462E-02  0.1228273E+00
         -1   -1    0    0    0  501 -0.00000000000E+00  0.00000000000E+00  0.36294793914E+02  0.36294793914E+02  0.00000000000E+00 0.  1.
          1   -1    0    0  501    0  0.00000000000E+00 -0.00000000000E+00 -0.52097222706E+03  0.52097222706E+03  0.00000000000E+00 0. -1.
         25    2    1    2    0    0  0.74629268865E+02  0.37086242107E+02 -0.30867270473E+03  0.34332432566E+03  0.12509131391E+03 0.  0.
          5    1    3    3  502    0  0.61305648083E+02 -0.35255359470E+02 -0.19871026383E+03  0.21096104903E+03  0.41800000000E+01 0.  1.
         -5    1    3    3    0  502  0.13323620781E+02  0.72341601577E+02 -0.10996244091E+03  0.13236327663E+03  0.41800000000E+01 0.  1.
        -11    1    1    2    0    0 -0.75295740793E+01 -0.46071014884E+02 -0.10953306113E+03  0.11906605049E+03  0.00000000000E+00 0. -1.
         11    1    1    2    0    0 -0.67099694785E+02  0.89847727771E+01 -0.66471667281E+02  0.94876644825E+02  0.00000000000E+00 0.  1.
</event>
<event>
 7    1  0.2490079E-009  0.2459178E+03  0.7561462E-02  0.1115912E+00
          2   -1    0    0  501    0  0.00000000000E+00  0.00000000000E+00  0.46410086864E+03  0.46410086864E+03  0.00000000000E+00 0. -1.
         -2   -1    0    0    0  501 -0.00000000000E+00 -0.00000000000E+00 -0.17139058146E+03  0.17139058146E+03  0.00000000000E+00 0.  1.
         25    2    1    2    0    0 -0.21245287956E+03 -0.10795803576E+03  0.29595110700E+02  0.27076579950E+03  0.12508830515E+03 0.  0.
          5    1    3    3  502    0 -0.24143200805E+02 -0.37611903730E+02  0.51725890011E+02  0.68487878816E+02  0.41800000000E+01 0.  1.
         -5    1    3    3    0  502 -0.18830967875E+03 -0.70346132029E+02 -0.22130779311E+02  0.20227792068E+03  0.41800000000E+01 0.  1.
        -11    1    1    2    0    0  0.17861179188E+03  0.62541735793E+02  0.16330035109E+03  0.24996128816E+03  0.00000000000E+00 0.  1.
         11    1    1    2    0    0  0.33841087682E+02  0.45416299966E+02  0.99814825383E+02  0.11476436243E+03  0.00000000000E+00 0. -1.
</event>
<event>
 7    1  0.2490079E-009  0.1040721E+03  0.7561462E-02  0.1271959E+00
          1   -1    0    0  501    0  0.00000000000E+00  0.00000000000E+00  0.58232825048E+03  0.58232825048E+03  0.00000000000E+00 0. -1.
         -1   -1    0    0    0  501 -0.00000000000E+00 -0.00000000000E+00 -0.23828759470E+02  0.23828759470E+02  0.00000000000E+00 0.  1.
         25    2    1    2    0    0  0.13447946065E+02 -0.39683457244E+02  0.35795906661E+03  0.38149507882E+03  0.12509267668E+03 0.  0.
          5    1    3    3  502    0 -0.43789913197E+02 -0.13253612037E+01  0.53334530886E+02  0.69147361952E+02  0.41800000000E+01 0.  1.
         -5    1    3    3    0  502  0.57237859262E+02 -0.38358096040E+02  0.30462453572E+03  0.31234771686E+03  0.41800000000E+01 0.  1.
        -11    1    1    2    0    0  0.36402022103E+02  0.13732904909E+02  0.46154411531E+02  0.60364969926E+02  0.00000000000E+00 0.  1.
         11    1    1    2    0    0 -0.49849968167E+02  0.25950552335E+02  0.15438601286E+03  0.16429696120E+03  0.00000000000E+00 0. -1.
</event>
<event>
 7    1  0.2490079E-009  0.1022762E+03  0.7561462E-02  0.1275581E+00
          2   -1    0    0  501    0  0.00000000000E+00  0.00000000000E+00  0.23016388423E+02  0.23016388423E+02  0.00000000000E+00 0. -1.
         -2   -1    0    0    0  501 -0.00000000000E+00 -0.00000000000E+00 -0.92791224826E+03  0.92791224826E+03  0.00000000000E+00 0.  1.
         25    2    1    2    0    0 -0.62888879730E+02  0.45740005895E+02 -0.60908947889E+03  0.62664512195E+03  0.12508779413E+03 0.  0.
          5    1    3    3  502    0 -0.24150686755E+02  0.21965838763E+02 -0.26458143233E+02  0.42228657173E+02  0.41800000000E+01 0.  1.
         -5    1    3    3    0  502 -0.38738192975E+02  0.23774167132E+02 -0.58263133565E+03  0.58441646478E+03  0.41800000000E+01 0.  1.
        -11    1    1    2    0    0  0.63993948181E+02  0.14606640250E+02 -0.20496371858E+03  0.21521780893E+03  0.00000000000E+00 0. -1.
         11    1    1    2    0    0 -0.11050684509E+01 -0.60346646145E+02 -0.90842662362E+02  0.10906570580E+03  0.00000000000E+00 0.  1.
</event>
<event>
 7    1  0.2490079E-009  0.7485654E+02  0.7561462E-02  0.1344316E+00
         -1   -1    0    0    0  501 -0.00000000000E+00  0.00000000000E+00  0.51770041076E+02  0.51770041076E+02  0.00000000000E+00 0.  1.
          1   -1    0    0  501    0  0.00000000000E+00 -0.00000000000E+00 -0.23354206103E+03  0.23354206103E+03  0.00000000000E+00 0. -1.
         25    2    1    2    0    0 -0.24230606518E+02 -0.32575688038E+02 -0.12181969147E+03  0.17926874477E+03  0.12509575483E+03 0.  0.
          5    1    3    3  502    0 -0.11680534634E+02  0.12522911974E+02 -0.13032080304E+03  0.13150757513E+03  0.41800000000E+01 0. -1.
         -5    1    3    3    0  502 -0.12550071884E+02 -0.45098600012E+02  0.85011115616E+01  0.47761169637E+02  0.41800000000E+01 0. -1.
        -11    1    1    2    0    0 -0.26959036251E+02  0.15646926548E+02 -0.34261400915E+02  0.46319105547E+02  0.00000000000E+00 0.  1.
         11    1    1    2    0    0  0.51189642769E+02  0.16928761490E+02 -0.25690927562E+02  0.59724251786E+02  0.00000000000E+00 0. -1.
</event>
<event>
 7    1  0.2490079E-009  0.1356633E+03  0.7561462E-02  0.1219286E+00
         -1   -1    0    0    0  501 -0.00000000000E+00  0.00000000000E+00  0.13580191501E+03  0.13580191501E+03  0.00000000000E+00 0.  1.
          1   -1    0    0  501    0  0.00000000000E+00 -0.00000000000E+00 -0.18309454099E+03  0.18309454099E+03  0.00000000000E+00 0. -1.
         25    2    1    2    0    0  0.96405337703E+02 -0.57081638627E+02 -0.87223531836E+01  0.16815477866E+03  0.12509055734E+03 0.  0.
          5    1    3    3  502    0  0.52481112792E+02  0.21146838040E+02 -0.43860148495E+02  0.71712209455E+02  0.41800000000E+01 0.  1.
         -5    1    3    3    0  502  0.43924224911E+02 -0.78228476667E+02  0.35137795312E+02  0.96442569206E+02  0.41800000000E+01 0.  1.
        -11    1    1    2    0    0 -0.10119062643E+03  0.43077876363E+02 -0.59551483341E+02  0.12506648423E+03  0.00000000000E+00 0. -1.
         11    1    1    2    0    0  0.47852887243E+01  0.14003762265E+02  0.20981210543E+02  0.25675193117E+02  0.00000000000E+00 0.  1.
</event>
<event>
 7    1  0.2490079E-009  0.9587770E+02  0.7561462E-02  0.1289211E+00
          4   -1    0    0  501    0  0.00000000000E+00  0.00000000000E+00  0.27935053944E+03  0.27935053944E+03  0.00000000000E+00 0.  1.
         -4   -1    0    0    0  501 -0.00000000000E+00 -0.00000000000E+00 -0.44345890524E+02  0.44345890524E+02  0.00000000000E+00 0. -1.
         25    2    1    2    0    0  0.11813135359E+02 -0.16862497397E+02  0.12567176730E+03  0.17850825830E+03  0.12509161123E+03 0.  0.
          5    1    3    3  502    0 -0.40558107779E+02  0.24998309722E+02  0.91257606584E+02  0.10303057194E+03  0.41800000000E+01 0. -1.
         -5    1    3    3    0  502  0.52371243138E+02 -0.41860807119E+02  0.34414160712E+02  0.75477686358E+02  0.41800000000E+01 0. -1.
        -11    1    1    2    0    0 -0.42837935858E+02  0.35225754112E+01  0.10192033129E+03  0.11061306982E+03  0.00000000000E+00 0.  1.
         11    1    1    2    0    0  0.31024800499E+02  0.13339921986E+02  0.74125503301E+01  0.34575101837E+02  0.00000000000E+00 0. -1.
</event>
<event>
 7    1  0.2490079E-009  0.4240109E+02  0.7561462E-02  0.1491250E+00
         -1   -1    0    0    0  501 -0.00000000000E+00  0.00000000000E+00  0.83828566279E+02  0.83828566279E+02  0.00000000000E+00 0.  1.
          1   -1    0    0  501    0  0.00000000000E+00 -0.00000000000E+00 -0.14050134939E+03  0.14050134939E+03  0.00000000000E+00 0. -1.
         25    2    1    2    0    0  0.36746681958E+01  0.49535464850E+01 -0.21682126824E+02  0.12710715026E+03  0.12509225482E+03 0.  0.
          5    1    3    3  502    0 -0.11239612898E+02 -0.12543220054E+02 -0.70703100605E+02  0.72801525414E+02  0.41800000000E+01 0.  1.
         -5    1    3    3    0  502  0.14914281094E+02  0.17496766539E+02  0.49020973780E+02  0.54305624849E+02  0.41800000000E+01 0.  1.
        -11    1    1    2    0    0  0.11840738670E+02  0.14805958186E+02 -0.59304412717E+02  0.62261005916E+02  0.00000000000E+00 0. -1.
         11    1    1    2    0    0 -0.15515406866E+02 -0.19759504671E+02  0.24313756429E+02  0.34961759491E+02  0.00000000000E+00 0.  1.
</event>
<event>
 7    1  0.2490079E-009  0.8961596E+02  0.7561462E-02  0.1303784E+00
          4   -1    0    0  501    0  0.00000000000E+00  0.00000000000E+00  0.10627783500E+03  0.10627783500E+03  0.00000000000E+00 0. -1.
         -4   -1    0    0    0  501 -0.00000000000E+00 -0.00000000000E+00 -0.17504917279E+03  0.17504917279E+03  0.00000000000E+00 0.  1.
         25    2    1    2    0    0 -0.57614587095E+02 -0.12871747115E-01  0.21736655306E+02  0.13942398517E+03  0.12508846727E+03 0.  0.
          5    1    3    3  502    0 -0.25672437487E+02 -0.19542160491E+02 -0.49270463534E+02  0.59042536023E+02  0.41800000000E+01 0. -1.
         -5    1    3    3    0  502 -0.31942149608E+02  0.19529288744E+02  0.71007118840E+02  0.80381449143E+02  0.41800000000E+01 0. -1.
        -11    1    1    2    0    0 -0.21655202750E+02 -0.17503228441E+02 -0.27538568929E+02  0.39162272542E+02  0.00000000000E+00 0.  1.
         11    1    1    2    0    0  0.79269789844E+02  0.17516100188E+02 -0.62969424165E+02  0.10274075008E+03  0.00000000000E+00 0. -1.
</event>
<event>
 7    1  0.2490079E-009  0.1154822E+03  0.7561462E-02  0.1250742E+00
         -2   -1    0    0    0  501 -0.00000000000E+00  0.00000000000E+00  0.61887007206E+02  0.61887007206E+02  0.00000000000E+00 0.  1.
          2   -1    0    0  501    0  0.00000000000E+00 -0.00000000000E+00 -0.27008359836E+03  0.27008359836E+03  0.00000000000E+00 0. -1.
         25    2    1    2    0    0  0.23689047696E+02  0.49832197995E+02 -0.60129816991E+02  0.14935657523E+03  0.12508945893E+03 0.  0.
          5    1    3    3  502    0  0.48102089612E+02  0.79793323701E+02 -0.24039652856E+02  0.96312838406E+02  0.41800000000E+01 0. -1.
         -5    1    3    3    0  502 -0.24413041915E+02 -0.29961125706E+02 -0.36090164134E+02  0.53043736825E+02  0.41800000000E+01 0. -1.
        -11    1    1    2    0    0  0.26116519764E+02  0.29177059166E+01 -0.13050165801E+02  0.29340968624E+02  0.00000000000E+00 0.  1.
         11    1    1    2    0    0 -0.49805567460E+02 -0.52749903912E+02 -0.13501660837E+03  0.15327306172E+03  0.00000000000E+00 0. -1.
</event>
<event>
 7    1  0.2490079E-009  0.1207426E+03  0.7561462E-02  0.1241877E+00
         -1   -1    0    0    0  501 -0.00000000000E+00  0.00000000000E+00  0.59689733366E+02  0.59689733366E+02  0.00000000000E+00 0.  1.
          1   -1    0    0  501    0  0.00000000000E+00 -0.00000000000E+00 -0.32918800522E+03  0.32918800522E+03  0.00000000000E+00 0. -1.
         25    2    1    2    0    0 -0.70041525784E+02 -0.17077534190E+02 -0.21620457066E+03  0.25997868589E+03  0.12508814186E+03 0.  0.
          5    1    3    3  502    0  0.31494002334E+02 -0.17365599872E+02 -0.95845788758E+02  0.10245644862E+03  0.41800000000E+01 0.  1.
         -5    1    3    3    0  502 -0.10153552812E+03  0.28806568134E+00 -0.12035878190E+03  0.15752223727E+03  0.41800000000E+01 0.  1.
        -11    1    1    2    0    0  0.70866627369E+01  0.36962755556E+02 -0.50285251779E+02  0.62809813194E+02  0.00000000000E+00 0.  1.
         11    1    1    2    0    0  0.62954863047E+02 -0.19885221365E+02 -0.30084494116E+01  0.66089239501E+02  0.00000000000E+00 0. -1.
</event>
<event>
 7    1  0.2490079E-009  0.1123274E+03  0.7561462E-02  0.1256320E+00
         -2   -1    0    0    0  501 -0.00000000000E+00  0.00000000000E+00  0.22006357933E+02  0.22006357933E+02  0.00000000000E+00 0.  1.
          2   -1    0    0  501    0  0.00000000000E+00 -0.00000000000E+00 -0.83345908756E+03  0.83345908756E+03  0.00000000000E+00 0. -1.
         25    2    1    2    0    0  0.27676606437E+02 -0.36846453686E+02 -0.64964928799E+03  0.66318706253E+03  0.12509686979E+03 0.  0.
          5    1    3    3  502    0  0.52900485591E+02 -0.71548248036E+02 -0.47637092573E+03  0.48462804753E+03  0.41800000000E+01 0. -1.
         -5    1    3    3    0  502 -0.25223879154E+02  0.34701794350E+02 -0.17327836226E+03  0.17855901500E+03  0.41800000000E+01 0. -1.
        -11    1    1    2    0    0 -0.35229054466E+02 -0.16281751094E+02 -0.27255763183E+02  0.47424237726E+02  0.00000000000E+00 0.  1.
         11    1    1    2    0    0  0.75524480289E+01  0.53128204780E+02 -0.13454767846E+03  0.14485414524E+03  0.00000000000E+00 0. -1.
</event>
<event>
 7    1  0.2490079E-009  0.1180463E+03  0.7561462E-02  0.1246355E+00
          2   -1    0    0  501    0  0.00000000000E+00  0.00000000000E+00  0.93631459642E+02  0.93631459642E+02  0.00000000000E+00 0.  1.
         -2   -1    0    0    0  501 -0.00000000000E+00 -0.00000000000E+00 -0.19885291304E+03  0.19885291304E+03  0.00000000000E+00 0. -1.
         25    2    1    2    0    0 -0.79125414960E+02  0.22512782059E+02 -0.66891888031E+02  0.16398190710E+03  0.12509150460E+03 0.  0.
          5    1    3    3  502    0 -0.72980974266E+02  0.51460419399E+02 -0.89506238234E+02  0.12650389896E+03  0.41800000000E+01 0.  1.
         -5    1    3    3    0  502 -0.61444406940E+01 -0.28947637340E+02  0.22614350203E+02  0.37478008140E+02  0.41800000000E+01 0.  1.
        -11    1    1    2    0    0  0.62611897585E+02 -0.53068681198E+02 -0.44287282334E+02  0.93262522054E+02  0.00000000000E+00 0. -1.
         11    1    1    2    0    0  0.16513517374E+02  0.30555899139E+02  0.59577169673E+01  0.35239943526E+02  0.00000000000E+00 0.  1.
</event>
<event>
 7    1  0.2490079E-009  0.1057622E+03  0.7561462E-02  0.1268625E+00
          2   -1    0    0  501    0  0.00000000000E+00  0.00000000000E+00  0.65629440469E+02  0.65629440469E+02  0.00000000000E+00 0. -1.
         -2   -1    0    0    0  501 -0.00000000000E+00 -0.00000000000E+00 -0.34470268109E+03  0.34470268109E+03  0.00000000000E+00 0.  1.
         25    2    1    2    0    0  0.51858887402E+02 -0.68739490550E+02 -0.22512072837E+03  0.27155290862E+03  0.12508868086E+03 0.  0.
          5    1    3    3  502    0  0.19882576783E+02 -0.75661224747E+02 -0.22533957613E+03  0.23856935000E+03  0.41800000000E+01 0. -1.
         -5    1    3    3    0  502  0.31976310620E+02  0.69217341977E+01  0.21884776326E+00  0.32983558624E+02  0.41800000000E+01 0. -1.
        -11    1    1    2    0    0 -0.58805433446E+02  0.41210084994E+02 -0.74697990609E+02  0.10361534591E+03  0.00000000000E+00 0.  1.
         11    1    1    2    0    0  0.69465460434E+01  0.27529405556E+02  0.20745478349E+02  0.35163867024E+02  0.00000000000E+00 0. -1.
</event>
<event>
 7    1  0.3030418E-009  0.1153065E+03  0.7561462E-02  0.1251047E+00
         -2   -1    0    0    0  501 -0.00000000000E+00  0.00000000000E+00  0.28907147722E+02  0.28907147722E+02  0.00000000000E+00 0. -1.
          2   -1    0    0  501    0  0.00000000000E+00 -0.00000000000E+00 -0.73237764323E+03  0.73237764323E+03  0.00000000000E+00 0.  1.
         25    2    1    2    0    0  0.40673887213E+02 -0.37088647701E+02 -0.58875165295E+03  0.60440553037E+03  0.12509038092E+03 0.  0.
          5    1    3    3  502    0  0.43693745383E+01 -0.76806276191E+02 -0.25725869791E+03  0.26854758525E+03  0.41800000000E+01 0.  1.
         -5    1    3    3    0  502  0.36304512675E+02  0.39717628490E+02 -0.33149295504E+03  0.33585794511E+03  0.41800000000E+01 0.  1.
        -11    1    1    2    0    0 -0.66202164644E+02  0.21136145298E+02 -0.50343423423E+02  0.85813306216E+02  0.00000000000E+00 0.  1.
         11    1    1    2    0    0  0.25528277431E+02  0.15952502404E+02 -0.64375419133E+02  0.71065954367E+02  0.00000000000E+00 0. -1.
</event>
<event>
 7    1  0.2490079E-009  0.6360945E+02  0.7561462E-02  0.1383280E+00
          2   -1    0    0  501    0  0.00000000000E+00  0.00000000000E+00  0.31611244331E+03  0.31611244331E+03  0.00000000000E+00 0. -1.
         -2   -1    0    0    0  501 -0.00000000000E+00 -0.00000000000E+00 -0.51273167392E+02  0.51273167392E+02  0.00000000000E+00 0.  1.
         25    2    1    2    0    0  0.52346278122E+02  0.22420756299E+02  0.20164837310E+03  0.24403492813E+03  0.12509259222E+03 0.  0.
          5    1    3    3  502    0  0.24422885294E+02 -0.87800777580E+01 -0.10088657287E+02  0.28157068338E+02  0.41800000000E+01 0. -1.
         -5    1    3    3    0  502  0.27923392828E+02  0.31200834057E+02  0.21173703039E+03  0.21587785980E+03  0.41800000000E+01 0. -1.
        -11    1    1    2    0    0 -0.95877232626E+01 -0.11004789746E+02 -0.22550209364E+02  0.26861529686E+02  0.00000000000E+00 0.  1.
         11    1    1    2    0    0 -0.42758554860E+02 -0.11415966553E+02  0.85741112183E+02  0.96489152885E+02  0.00000000000E+00 0. -1.
</event>
<event>
 7    1  0.2490079E-009  0.1049221E+03  0.7561462E-02  0.1270273E+00
          2   -1    0    0  501    0  0.00000000000E+00  0.00000000000E+00  0.33868189740E+02  0.33868189740E+02  0.00000000000E+00 0. -1.
         -2   -1    0    0    0  501 -0.00000000000E+00 -0.00000000000E+00 -0.40223705794E+03  0.40223705794E+03  0.00000000000E+00 0.  1.
         25    2    1    2    0    0  0.39134625658E+02  0.10423714302E+02 -0.23255990330E+03  0.26715553294E+03  0.12509115641E+03 0.  0.
          5    1    3    3  502    0 -0.16077434816E+02  0.56162618038E+02 -0.87524964656E+02  0.10531294039E+03  0.41800000000E+01 0. -1.
         -5    1    3    3    0  502  0.55212060474E+02 -0.45738903735E+02 -0.14503493865E+03  0.16184259256E+03  0.41800000000E+01 0. -1.
        -11    1    1    2    0    0 -0.30787871668E+02  0.27100714353E+02 -0.12098559009E+03  0.12774918697E+03  0.00000000000E+00 0.  1.
         11    1    1    2    0    0 -0.83467539896E+01 -0.37524428655E+02 -0.14823374803E+02  0.41200527771E+02  0.00000000000E+00 0. -1.
</event>
<event>
 7    1  0.2490079E-009  0.6823570E+02  0.7561462E-02  0.1366198E+00
         -2   -1    0    0    0  501 -0.00000000000E+00  0.00000000000E+00  0.14267642937E+02  0.14267642937E+02  0.00000000000E+00 0. -1.
          2   -1    0    0  501    0  0.00000000000E+00 -0.00000000000E+00 -0.99211695584E+03  0.99211695584E+03  0.00000000000E+00 0.  1.
         25    2    1    2    0    0 -0.28388641658E+02 -0.33671351885E+02 -0.65536065647E+03  0.66864388403E+03  0.12508948272E+03 0.  0.
          5    1    3    3  502    0  0.15425045648E+02 -0.10596113718E+02 -0.56655453900E+03  0.56687893568E+03  0.41800000000E+01 0. -1.
         -5    1    3    3    0  502 -0.43813687305E+02 -0.23075238167E+02 -0.88806117472E+02  0.10176494835E+03  0.41800000000E+01 0. -1.
        -11    1    1    2    0    0  0.32026344931E+02  0.45265805035E+02 -0.32069959979E+03  0.32545800525E+03  0.00000000000E+00 0.  1.
         11    1    1    2    0    0 -0.36377032733E+01 -0.11594453150E+02 -0.17890566421E+01  0.12282709498E+02  0.00000000000E+00 0. -1.
</event>
<event>
 7    1  0.2490079E-009  0.1284463E+03  0.7561462E-02  0.1229780E+00
         -2   -1    0    0    0  501 -0.00000000000E+00  0.00000000000E+00  0.69262590645E+02  0.69262590645E+02  0.00000000000E+00 0.  1.
          2   -1    0    0  501    0  0.00000000000E+00 -0.00000000000E+00 -0.28873383831E+03  0.28873383831E+03  0.00000000000E+00 0. -1.
         25    2    1    2    0    0  0.45421797956E+02  0.73636873405E+02 -0.89121703714E+02  0.17628430414E+03  0.12509176216E+03 0.  0.
          5    1    3    3  502    0  0.55417080820E+02  0.93169240323E+02 -0.10332347682E+03  0.14981579840E+03  0.41800000000E+01 0.  1.
         -5    1    3    3    0  502 -0.99952828642E+01 -0.19532366919E+02  0.14201773102E+02  0.26468505742E+02  0.41800000000E+01 0.  1.
        -11    1    1    2    0    0 -0.12535249858E+02  0.21789152734E+02 -0.19658228347E+02  0.31911527817E+02  0.00000000000E+00 0.  1.
         11    1    1    2    0    0 -0.32886548098E+02 -0.95426026139E+02 -0.11069131561E+03  0.14980059700E+03  0.00000000000E+00 0. -1.
</event>
<event>
 7    1  0.2490079E-009  0.1236858E+03  0.7561462E-02  0.1237138E+00
         -3   -1    0    0    0  501 -0.00000000000E+00  0.00000000000E+00  0.85524540350E+02  0.85524540350E+02  0.00000000000E+00 0.  1.
          3   -1    0    0  501    0  0.00000000000E+00 -0.00000000000E+00 -0.21132611117E+03  0.21132611117E+03  0.00000000000E+00 0. -1.
         25    2    1    2    0    0 -0.18938422711E+02  0.78158471101E+02 -0.87682171703E+02  0.17263582054E+03  0.12509017883E+03 0.  0.
          5    1    3    3  502    0 -0.24868721488E+02 -0.27895420743E+02 -0.43546141831E+02  0.57535612235E+02  0.41800000000E+01 0.  1.
         -5    1    3    3    0  502  0.59302987771E+01  0.10605389184E+03 -0.44136029872E+02  0.11510020830E+03  0.41800000000E+01 0.  1.
        -11    1    1    2    0    0 -0.17556399356E+02 -0.60360853179E+02  0.73089138049E+01  0.63285701195E+02  0.00000000000E+00 0.  1.
         11    1    1    2    0    0  0.36494822067E+02 -0.17797617922E+02 -0.45428312923E+02  0.60929129785E+02  0.00000000000E+00 0. -1.
</event>
<event>
 7    1  0.2490079E-009  0.9525542E+02  0.7561462E-02  0.1290602E+00
          2   -1    0    0  501    0  0.00000000000E+00  0.00000000000E+00  0.59989974586E+03  0.59989974586E+03  0.00000000000E+00 0. -1.
         -2   -1    0    0    0  501 -0.00000000000E+00 -0.00000000000E+00 -0.27901074892E+02  0.27901074892E+02  0.00000000000E+00 0.  1.
         25    2    1    2    0    0  0.63420779425E+02 -0.16127578684E+02  0.23322225943E+03  0.27261806770E+03  0.12508275055E+03 0.  0.
          5    1    3    3  502    0  0.22661111610E+02 -0.32697166315E+02  0.51834221278E+01  0.40335727703E+02  0.41800000000E+01 0.  1.
         -5    1    3    3    0  502  0.40759667816E+02  0.16569587631E+02  0.22803883730E+03  0.23228233999E+03  0.41800000000E+01 0.  1.
        -11    1    1    2    0    0 -0.19579642751E+02  0.48178454048E+02  0.15058936611E+03  0.15931629870E+03  0.00000000000E+00 0.  1.
         11    1    1    2    0    0 -0.43841136674E+02 -0.32050875364E+02  0.18818704543E+03  0.19586645436E+03  0.00000000000E+00 0. -1.
</event>
<event>
 7    1  0.2490079E-009  0.1226293E+03  0.7561462E-02  0.1238821E+00
         -4   -1    0    0    0  501 -0.00000000000E+00  0.00000000000E+00  0.98628643414E+02  0.98628643414E+02  0.00000000000E+00 0.  1.
          4   -1    0    0  501    0  0.00000000000E+00 -0.00000000000E+00 -0.19598731117E+03  0.19598731117E+03  0.00000000000E+00 0. -1.
         25    2    1    2    0    0 -0.33231093873E+02 -0.51562099456E+02 -0.10991354369E+03  0.17745957653E+03  0.12509180035E+03 0.  0.
          5    1    3    3  502    0 -0.59828597965E+02 -0.78849676765E+02 -0.65363348520E+02  0.11868686697E+03  0.41800000000E+01 0. -1.
         -5    1    3    3    0  502  0.26597504092E+02  0.27287577309E+02 -0.44550195174E+02  0.58772709563E+02  0.41800000000E+01 0. -1.
        -11    1    1    2    0    0  0.41472098993E+02 -0.12463102139E+02  0.26965918437E+02  0.51013965411E+02  0.00000000000E+00 0.  1.
         11    1    1    2    0    0 -0.82410051203E+01  0.64025201596E+02 -0.14411042503E+02  0.66142412647E+02  0.00000000000E+00 0. -1.
</event>
<event>
 7    1  0.2490079E-009  0.1002806E+03  0.7561462E-02  0.1279707E+00
         -3   -1    0    0    0  501 -0.00000000000E+00  0.00000000000E+00  0.10122203525E+03  0.10122203525E+03  0.00000000000E+00 0.  1.
          3   -1    0    0  501    0  0.00000000000E+00 -0.00000000000E+00 -0.13812176788E+03  0.13812176788E+03  0.00000000000E+00 0. -1.
         25    2    1    2    0    0  0.68970910596E+01 -0.47651550503E+02 -0.35465006200E+02  0.13864438100E+03  0.12508500145E+03 0.  0.
          5    1    3    3  502    0 -0.37459234055E+02 -0.56210808691E+02 -0.56945615978E+02  0.88448430222E+02  0.41800000000E+01 0.  1.
         -5    1    3    3    0  502  0.44356325115E+02  0.85592581874E+01  0.21480609778E+02  0.50195950782E+02  0.41800000000E+01 0.  1.
        -11    1    1    2    0    0  0.33249829823E+02  0.22238825731E+02 -0.25500539095E+02  0.47438318344E+02  0.00000000000E+00 0. -1.
         11    1    1    2    0    0 -0.40146920883E+02  0.25412724773E+02  0.24065812664E+02  0.53261103780E+02  0.00000000000E+00 0.  1.
</event>
<event>
 7    1  0.2490079E-009  0.2933943E+03  0.7561462E-02  0.1088590E+00
         -2   -1    0    0    0  501 -0.00000000000E+00  0.00000000000E+00  0.56257788574E+02  0.56257788574E+02  0.00000000000E+00 0.  1.
          2   -1    0    0  501    0  0.00000000000E+00 -0.00000000000E+00 -0.17380994803E+04  0.17380994803E+04  0.00000000000E+00 0. -1.
         25    2    1    2    0    0  0.28502797006E+03 -0.31682121116E+02 -0.68308163547E+03  0.75132742722E+03  0.12509069376E+03 0.  0.
          5    1    3    3  502    0  0.78500390650E+02  0.17286360431E+01 -0.76652204118E+02  0.10981043808E+03  0.41800000000E+01 0. -1.
         -5    1    3    3    0  502  0.20652757941E+03 -0.33410757159E+02 -0.60642943135E+03  0.64151698914E+03  0.41800000000E+01 0. -1.
        -11    1    1    2    0    0 -0.20996495478E+03 -0.15014275422E+02 -0.64973779720E+03  0.68298602900E+03  0.00000000000E+00 0.  1.
         11    1    1    2    0    0 -0.75063015274E+02  0.46696396537E+02 -0.34902225909E+03  0.36004381268E+03  0.00000000000E+00 0. -1.
</event>
<event>
 7    1  0.2490079E-009  0.8881858E+02  0.7561462E-02  0.1305738E+00
         -1   -1    0    0    0  501 -0.00000000000E+00  0.00000000000E+00  0.57884182480E+02  0.57884182480E+02  0.00000000000E+00 0.  1.
          1   -1    0    0  501    0  0.00000000000E+00 -0.00000000000E+00 -0.23327142378E+03  0.23327142378E+03  0.00000000000E+00 0. -1.
         25    2    1    2    0    0 -0.85088116977E+01 -0.43200930192E+01 -0.44931522136E+02  0.13324878738E+03  0.12508131186E+03 0.  0.
          5    1    3    3  502    0  0.18849420843E+02 -0.59819476230E+02 -0.16274385559E+02  0.64930720217E+02  0.41800000000E+01 0. -1.
         -5    1    3    3    0  502 -0.27358232541E+02  0.55499383211E+02 -0.28657136577E+02  0.68318067167E+02  0.41800000000E+01 0. -1.
        -11    1    1    2    0    0  0.14728533348E+02 -0.21579076165E+02 -0.14353427257E+01  0.26165749205E+02  0.00000000000E+00 0.  1.
         11    1    1    2    0    0 -0.62197216501E+01  0.25899169184E+02 -0.12902037643E+03  0.13174106967E+03  0.00000000000E+00 0. -1.
</event>
<event>
 7    1  0.2490079E-009  0.7872250E+02  0.7561462E-02  0.1332716E+00
          2   -1    0    0  501    0  0.00000000000E+00  0.00000000000E+00  0.32094601514E+03  0.32094601514E+03  0.00000000000E+00 0. -1.
         -2   -1    0    0    0  501 -0.00000000000E+00 -0.00000000000E+00 -0.46441069745E+02  0.46441069745E+02  0.00000000000E+00 0.  1.
         25    2    1    2    0    0  0.20499773730E+02  0.75096525806E+01  0.23046415922E+03  0.26313137571E+03  0.12509099325E+03 0.  0.
          5    1    3    3  502    0  0.24276500198E+02  0.30809992304E+02  0.91131550126E+01  0.40486122091E+02  0.41800000000E+01 0.  1.
         -5    1    3    3    0  502 -0.37767264681E+01 -0.23300339724E+02  0.22135100421E+03  0.22264525362E+03  0.41800000000E+01 0.  1.
        -11    1    1    2    0    0 -0.25678101297E+02 -0.47342610289E+02  0.20052913084E+02  0.57470052708E+02  0.00000000000E+00 0.  1.
         11    1    1    2    0    0  0.51783275671E+01  0.39832957708E+02  0.23987873096E+02  0.46785656476E+02  0.00000000000E+00 0. -1.
</event>
<event>
 7    1  0.2490079E-009  0.2349075E+03  0.7561462E-02  0.1123233E+00
         -2   -1    0    0    0  501 -0.00000000000E+00  0.00000000000E+00  0.36482300454E+03  0.36482300454E+03  0.00000000000E+00 0.  1.
          2   -1    0    0  501    0  0.00000000000E+00 -0.00000000000E+00 -0.17022820168E+03  0.17022820168E+03  0.00000000000E+00 0. -1.
         25    2    1    2    0    0  0.71565253419E+02 -0.20014176590E+03  0.23916171030E+02  0.24778525124E+03  0.12508891053E+03 0.  0.
          5    1    3    3  502    0  0.76290738580E+02 -0.39870498584E+02  0.10752983984E+02  0.86850633360E+02  0.41800000000E+01 0. -1.
         -5    1    3    3    0  502 -0.47254851612E+01 -0.16027126732E+03  0.13163187046E+02  0.16093461788E+03  0.41800000000E+01 0. -1.
        -11    1    1    2    0    0  0.36454387516E+01  0.88791858019E+02  0.32761781173E+02  0.94713344254E+02  0.00000000000E+00 0.  1.
         11    1    1    2    0    0 -0.75210692171E+02  0.11134990788E+03  0.13791685066E+03  0.19255261073E+03  0.00000000000E+00 0. -1.
</event>
<event>
 7    1  0.2490079E-009  0.1724798E+03  0.7561462E-02  0.1175286E+00
          2   -1    0    0  501    0  0.00000000000E+00  0.00000000000E+00  0.12187693466E+03  0.12187693466E+03  0.00000000000E+00 0. -1.
         -2   -1    0    0    0  501 -0.00000000000E+00 -0.00000000000E+00 -0.36942776176E+03  0.36942776176E+03  0.00000000000E+00 0.  1.
         25    2    1    2    0    0 -0.10563698072E+03 -0.12215711779E+03 -0.31915475833E+02  0.20675684926E+03  0.12509302137E+03 0.  0.
          5    1    3    3  502    0 -0.79019688764E+02 -0.37272130015E+02 -0.67872553290E+02  0.11071349863E+03  0.41800000000E+01 0. -1.
         -5    1    3    3    0  502 -0.26617291953E+02 -0.84884987777E+02  0.35957077457E+02  0.96043350629E+02  0.41800000000E+01 0. -1.
        -11    1    1    2    0    0  0.14951492034E+02  0.51046060818E+02 -0.13153325300E+03  0.14188109135E+03  0.00000000000E+00 0. -1.
         11    1    1    2    0    0  0.90685488683E+02  0.71111056974E+02 -0.84102098270E+02  0.14266675582E+03  0.00000000000E+00 0.  1.
</event>
<event>
 7    1  0.2490079E-009  0.2541825E+03  0.7561462E-02  0.1110690E+00
          2   -1    0    0  501    0  0.00000000000E+00  0.00000000000E+00  0.26253307403E+04  0.26253307403E+04  0.00000000000E+00 0. -1.
         -2   -1    0    0    0  501 -0.00000000000E+00 -0.00000000000E+00 -0.29156207364E+02  0.29156207364E+02  0.00000000000E+00 0.  1.
         25    2    1    2    0    0  0.17313084476E+03  0.18110248321E+03  0.14796384703E+04  0.15059047996E+04  0.12508742559E+03 0.  0.
          5    1    3    3  502    0  0.12225531428E+03  0.86444105910E+02  0.11359463457E+04  0.11457794369E+04  0.41800000000E+01 0.  1.
         -5    1    3    3    0  502  0.50875530476E+02  0.94658377304E+02  0.34369212454E+03  0.36012536271E+03  0.41800000000E+01 0.  1.
        -11    1    1    2    0    0 -0.88214167761E+02 -0.10355106072E+03  0.80677269976E+03  0.81816058977E+03  0.00000000000E+00 0. -1.
         11    1    1    2    0    0 -0.84916676998E+02 -0.77551422489E+02  0.30976336293E+03  0.33042155828E+03  0.00000000000E+00 0.  1.
</event>
<event>
 7    1  0.2490079E-009  0.1202095E+03  0.7561462E-02  0.1242752E+00
          1   -1    0    0  501    0  0.00000000000E+00  0.00000000000E+00  0.35219276311E+03  0.35219276311E+03  0.00000000000E+00 0. -1.
         -1   -1    0    0    0  501 -0.00000000000E+00 -0.00000000000E+00 -0.55347557798E+02  0.55347557798E+02  0.00000000000E+00 0.  1.
         25    2    1    2    0    0  0.45671095986E+00  0.85279306968E+02  0.18386350646E+03  0.23816839873E+03  0.12508248624E+03 0.  0.
          5    1    3    3  502    0 -0.54710163383E+02  0.84450664370E+01  0.82744111413E+02  0.99642267628E+02  0.41800000000E+01 0.  1.
         -5    1    3    3    0  502  0.55166874343E+02  0.76834240531E+02  0.10111939505E+03  0.13852613110E+03  0.41800000000E+01 0.  1.
        -11    1    1    2    0    0 -0.14721311745E+02 -0.51313792420E+02  0.12047996713E+03  0.13177725446E+03  0.00000000000E+00 0. -1.
         11    1    1    2    0    0  0.14264600785E+02 -0.33965514547E+02 -0.74982682812E+01  0.37594667723E+02  0.00000000000E+00 0.  1.
</event>
<event>
 7    1  0.2490079E-009  0.7472891E+02  0.7561462E-02  0.1344713E+00
          3   -1    0    0  501    0  0.00000000000E+00  0.00000000000E+00  0.70011917459E+02  0.70011917459E+02  0.00000000000E+00 0. -1.
         -3   -1    0    0    0  501 -0.00000000000E+00 -0.00000000000E+00 -0.20286283051E+03  0.20286283051E+03  0.00000000000E+00 0.  1.
         25    2    1    2    0    0 -0.11587655011E+02 -0.39697500818E+02 -0.42857887399E+02  0.13854327234E+03  0.12508906619E+03 0.  0.
          5    1    3    3  502    0 -0.52553045514E+02 -0.39278187922E+02 -0.64433785348E+02  0.92053157107E+02  0.41800000000E+01 0.  1.
         -5    1    3    3    0  502  0.40965390503E+02 -0.41931289659E+00  0.21575897949E+02  0.46490115236E+02  0.41800000000E+01 0.  1.
        -11    1    1    2    0    0  0.11876197497E+02  0.23457404448E+02 -0.10737172106E+03  0.11054402008E+03  0.00000000000E+00 0.  1.
         11    1    1    2    0    0 -0.28854248547E+00  0.16240096370E+02  0.17378695417E+02  0.23787455544E+02  0.00000000000E+00 0. -1.
</event>
<event>
 7    1  0.2490079E-009  0.1045678E+03  0.7561462E-02  0.1270974E+00
         -1   -1    0    0    0  501 -0.00000000000E+00  0.00000000000E+00  0.56337624034E+02  0.56337624034E+02  0.00000000000E+00 0.  1.
          1   -1    0    0  501    0  0.00000000000E+00 -0.00000000000E+00 -0.40919351591E+03  0.40919351591E+03  0.00000000000E+00 0. -1.
         25    2    1    2    0    0 -0.22489719367E+02  0.12574088829E+02 -0.35038615415E+03  0.37293654028E+03  0.12508921163E+03 0.  0.
          5    1    3    3  502    0 -0.30809096495E+02  0.60393930413E+02 -0.27433348529E+03  0.28261804756E+03  0.41800000000E+01 0. -1.
         -5    1    3    3    0  502  0.83193771281E+01 -0.47819841584E+02 -0.76052668866E+02  0.90318492717E+02  0.41800000000E+01 0. -1.
        -11    1    1    2    0    0  0.15986538606E+02  0.38143343490E+02 -0.29073651275E+01  0.41460063208E+02  0.00000000000E+00 0.  1.
         11    1    1    2    0    0  0.65031807606E+01 -0.50717432319E+02  0.43762740578E+00  0.51134536458E+02  0.00000000000E+00 0. -1.
</event>
<event>
 7    1  0.2490079E-009  0.1397687E+03  0.7561462E-02  0.1213641E+00
         -3   -1    0    0    0  501 -0.00000000000E+00  0.00000000000E+00  0.25229647038E+03  0.25229647038E+03  0.00000000000E+00 0.  1.
          3   -1    0    0  501    0  0.00000000000E+00 -0.00000000000E+00 -0.11885904342E+03  0.11885904342E+03  0.00000000000E+00 0. -1.
         25    2    1    2    0    0 -0.39450075338E+02 -0.11373836060E+03  0.12961609753E+03  0.21665768819E+03  0.12508995961E+03 0.  0.
          5    1    3    3  502    0 -0.44671652405E+02 -0.50069545535E+02  0.13661032540E+03  0.15225757559E+03  0.41800000000E+01 0. -1.
         -5    1    3    3    0  502  0.52215770670E+01 -0.63668815069E+02 -0.69942278705E+01  0.64400112599E+02  0.41800000000E+01 0. -1.
        -11    1    1    2    0    0  0.52091498463E+02  0.12235926961E+03  0.17299940512E+02  0.13410668519E+03  0.00000000000E+00 0.  1.
         11    1    1    2    0    0 -0.12641423125E+02 -0.86209090062E+01 -0.13478611084E+02  0.20391140416E+02  0.00000000000E+00 0. -1.
</event>
<event>
 7    1  0.2490079E-009  0.1936981E+03  0.7561462E-02  0.1155168E+00
         -1   -1    0    0    0  501 -0.00000000000E+00  0.00000000000E+00  0.19172782092E+02  0.19172782092E+02  0.00000000000E+00 0.  1.
          1   -1    0    0  501    0  0.00000000000E+00 -0.00000000000E+00 -0.19804502557E+04  0.19804502557E+04  0.00000000000E+00 0. -1.
         25    2    1    2    0    0 -0.14097625849E+03 -0.78046384880E+02 -0.10923995886E+04  0.11112832720E+04  0.12509238890E+03 0.  0.
          5    1    3    3  502    0 -0.76950828652E+02 -0.10839774702E+03 -0.70563448473E+03  0.71805918978E+03  0.41800000000E+01 0. -1.
         -5    1    3    3    0  502 -0.64025429836E+02  0.30351362141E+02 -0.38676510389E+03  0.39322408221E+03  0.41800000000E+01 0. -1.
        -11    1    1    2    0    0  0.24018576541E+02  0.60574153766E+02 -0.25644785244E+03  0.26459709210E+03  0.00000000000E+00 0.  1.
         11    1    1    2    0    0  0.11695768195E+03  0.17472231114E+02 -0.61243003256E+03  0.62374267371E+03  0.00000000000E+00 0. -1.
</event>
<event>
 7    1  0.2490079E-009  0.9601313E+02  0.7561462E-02  0.1288910E+00
         -2   -1    0    0    0  501 -0.00000000000E+00  0.00000000000E+00  0.21383939162E+02  0.21383939162E+02  0.00000000000E+00 0.  1.
          2   -1    0    0  501    0  0.00000000000E+00 -0.00000000000E+00 -0.69508797961E+03  0.69508797961E+03  0.00000000000E+00 0. -1.
         25    2    1    2    0    0 -0.42563541127E+02 -0.17763547469E+02 -0.44247170348E+03  0.46211891690E+03  0.12508191844E+03 0.  0.
          5    1    3    3  502    0 -0.18560756629E+02 -0.45486870871E+02 -0.59063810162E+02  0.76938697540E+02  0.41800000000E+01 0. -1.
         -5    1    3    3    0  502 -0.24002784498E+02  0.27723323402E+02 -0.38340789332E+03  0.38518021936E+03  0.41800000000E+01 0. -1.
        -11    1    1    2    0    0  0.32592041034E+01 -0.37696756787E+02 -0.76402541645E+02  0.85258525987E+02  0.00000000000E+00 0.  1.
         11    1    1    2    0    0  0.39304337023E+02  0.55460304256E+02 -0.15482979532E+03  0.16909447589E+03  0.00000000000E+00 0. -1.
</event>
<event>
 7    1  0.2490079E-009  0.1470069E+03  0.7561462E-02  0.1204200E+00
          2   -1    0    0  501    0  0.00000000000E+00  0.00000000000E+00  0.14925179646E+03  0.14925179646E+03  0.00000000000E+00 0. -1.
         -2   -1    0    0    0  501 -0.00000000000E+00 -0.00000000000E+00 -0.32061483892E+03  0.32061483892E+03  0.00000000000E+00 0.  1.
         25    2    1    2    0    0 -0.11912429063E+03 -0.18652563953E+02 -0.24939099302E+03  0.30394449286E+03  0.12509145687E+03 0.  0.
          5    1    3    3  502    0 -0.58075424565E+02 -0.70915100857E+02 -0.11274786306E+03  0.14536595025E+03  0.41800000000E+01 0.  1.
         -5    1    3    3    0  502 -0.61048866061E+02  0.52262536903E+02 -0.13664312996E+03  0.15857854261E+03  0.41800000000E+01 0.  1.
        -11    1    1    2    0    0  0.68963979498E+02  0.22117645690E+01 -0.31725923387E+01  0.69072336813E+02  0.00000000000E+00 0. -1.
         11    1    1    2    0    0  0.50160311128E+02  0.16440799385E+02  0.81200542898E+02  0.96849805698E+02  0.00000000000E+00 0.  1.
</event>
<event>
 7    1  0.2490079E-009  0.1047422E+03  0.7561462E-02  0.1270628E+00
         -2   -1    0    0    0  501 -0.00000000000E+00  0.00000000000E+00  0.34401029385E+02  0.34401029385E+02  0.00000000000E+00 0. -1.
          2   -1    0    0  501    0  0.00000000000E+00 -0.00000000000E+00 -0.47750236276E+03  0.47750236276E+03  0.00000000000E+00 0.  1.
         25    2    1    2    0    0  0.62469126957E+02  0.27298224360E+02 -0.26401387698E+03  0.29999749261E+03  0.12509030121E+03 0.  0.
          5    1    3    3  502    0  0.46692742226E+02 -0.22596857333E+02 -0.29793889836E+02  0.59966477381E+02  0.41800000000E+01 0. -1.
         -5    1    3    3    0  502  0.15776384731E+02  0.49895081694E+02 -0.23421998715E+03  0.24003101523E+03  0.41800000000E+01 0. -1.
        -11    1    1    2    0    0 -0.62432730157E+02  0.13724697612E+02 -0.14537280715E+03  0.15880637953E+03  0.00000000000E+00 0.  1.
         11    1    1    2    0    0 -0.36396800323E-01 -0.41022921972E+02 -0.33714649243E+02  0.53099520011E+02  0.00000000000E+00 0. -1.
</event>
<event>
 7    1  0.2490079E-009  0.9429970E+02  0.7561462E-02  0.1292761E+00
         -1   -1    0    0    0  501 -0.00000000000E+00  0.00000000000E+00  0.79521562383E+02  0.79521562383E+02  0.00000000000E+00 0.  1.
          1   -1    0    0  501    0  0.00000000000E+00 -0.00000000000E+00 -0.15917997244E+03  0.15917997244E+03  0.00000000000E+00 0. -1.
         25    2    1    2    0    0 -0.10227824752E+02 -0.35498227293E+02 -0.46817371368E+02  0.13857809539E+03  0.12508912711E+03 0.  0.
          5    1    3    3  502    0  0.41472648469E+02 -0.26244539416E+02  0.20278338852E+02  0.53267624753E+02  0.41800000000E+01 0.  1.
         -5    1    3    3    0  502 -0.51700473222E+02 -0.92536878768E+01 -0.67095710220E+02  0.85310470639E+02  0.41800000000E+01 0.  1.
        -11    1    1    2    0    0  0.88464556158E+01  0.60737026344E+02 -0.40708565025E+02  0.73650752966E+02  0.00000000000E+00 0. -1.
         11    1    1    2    0    0  0.13813691365E+01 -0.25238799051E+02  0.78675263327E+01  0.26472686468E+02  0.00000000000E+00 0.  1.
</event>
<event>
 7    1  0.2490079E-009  0.1711699E+03  0.7561462E-02  0.1176633E+00
         -1   -1    0    0    0  501 -0.00000000000E+00  0.00000000000E+00  0.16956491661E+03  0.16956491661E+03  0.00000000000E+00 0.  1.
          1   -1    0    0  501    0  0.00000000000E+00 -0.00000000000E+00 -0.18615794833E+03  0.18615794833E+03  0.00000000000E+00 0. -1.
         25    2    1    2    0    0 -0.77521726270E+02  0.10460322231E+03 -0.16242069319E+02  0.18127954991E+03  0.12508804195E+03 0.  0.
          5    1    3    3  502    0  0.95075845809E+01  0.81375729996E+02  0.19433438008E+02  0.84306194967E+02  0.41800000000E+01 0.  1.
         -5    1    3    3    0  502 -0.87029310851E+02  0.23227492311E+02 -0.35675507327E+02  0.96973354945E+02  0.41800000000E+01 0.  1.
        -11    1    1    2    0    0 -0.17039028958E+02 -0.65712316740E+02  0.18752703681E+02  0.70427984314E+02  0.00000000000E+00 0.  1.
         11    1    1    2    0    0  0.94560755228E+02 -0.38890905568E+02 -0.19103666088E+02  0.10401533071E+03  0.00000000000E+00 0. -1.
</event>
<event>
 7    1  0.2490079E-009  0.1123229E+03  0.7561462E-02  0.1256328E+00
         -1   -1    0    0    0  501 -0.00000000000E+00  0.00000000000E+00  0.35137077411E+02  0.35137077411E+02  0.00000000000E+00 0.  1.
          1   -1    0    0  501    0  0.00000000000E+00 -0.00000000000E+00 -0.46488394378E+03  0.46488394378E+03  0.00000000000E+00 0. -1.
         25    2    1    2    0    0 -0.29739617586E+02  0.49518532140E+02 -0.17764472459E+03  0.22481086825E+03  0.12508296619E+03 0.  0.
          5    1    3    3  502    0  0.32168804993E+02  0.62459129386E+02 -0.66310965466E+02  0.96698456034E+02  0.41800000000E+01 0.  1.
         -5    1    3    3    0  502 -0.61908422579E+02 -0.12940597246E+02 -0.11133375913E+03  0.12811241222E+03  0.41800000000E+01 0.  1.
        -11    1    1    2    0    0 -0.23232029706E+02 -0.14839918043E+02 -0.18547456904E+02  0.33225871386E+02  0.00000000000E+00 0.  1.
         11    1    1    2    0    0  0.52971647291E+02 -0.34678614097E+02 -0.23355468487E+03  0.24198428155E+03  0.00000000000E+00 0. -1.
</event>
<event>
 7    1  0.2490079E-009  0.1402007E+03  0.7561462E-02  0.1213059E+00
         -2   -1    0    0    0  501 -0.00000000000E+00  0.00000000000E+00  0.84440345481E+03  0.84440345481E+03  0.00000000000E+00 0.  1.
          2   -1    0    0  501    0  0.00000000000E+00 -0.00000000000E+00 -0.26418291419E+02  0.26418291419E+02  0.00000000000E+00 0. -1.
         25    2    1    2    0    0 -0.95432766655E+02  0.32439020629E+01  0.54974977244E+03  0.57183170694E+03  0.12509497554E+03 0.  0.
          5    1    3    3  502    0 -0.24435021021E+02  0.60626296287E+02  0.20751454756E+03  0.21760601532E+03  0.41800000000E+01 0.  1.
         -5    1    3    3    0  502 -0.70997745633E+02 -0.57382394224E+02  0.34223522488E+03  0.35422569162E+03  0.41800000000E+01 0.  1.
        -11    1    1    2    0    0 -0.13202752581E+02 -0.67482437806E+01  0.77354474837E+01  0.16723893614E+02  0.00000000000E+00 0. -1.
         11    1    1    2    0    0  0.10863551924E+03  0.35043417177E+01  0.26049994346E+03  0.28226614568E+03  0.00000000000E+00 0.  1.
</event>
<event>
 7    1  0.2490079E-009  0.1008205E+03  0.7561462E-02  0.1278580E+00
         -2   -1    0    0    0  501 -0.00000000000E+00  0.00000000000E+00  0.20182013195E+03  0.20182013195E+03  0.00000000000E+00 0.  1.
          2   -1    0    0  501    0  0.00000000000E+00 -0.00000000000E+00 -0.74954188879E+02  0.74954188879E+02  0.00000000000E+00 0. -1.
         25    2    1    2    0    0  0.36389071039E+02  0.32317308725E+02  0.10776781306E+03  0.17213294050E+03  0.12508906723E+03 0.  0.
          5    1    3    3  502    0 -0.24444779187E+02  0.35877354173E+02  0.10181399724E+03  0.11076233207E+03  0.41800000000E+01 0.  1.
         -5    1    3    3    0  502  0.60833850226E+02 -0.35600454478E+01  0.59538158228E+01  0.61370608436E+02  0.41800000000E+01 0.  1.
        -11    1    1    2    0    0 -0.50293043496E+02 -0.52328238367E+02 -0.17100649221E+01  0.72598616218E+02  0.00000000000E+00 0. -1.
         11    1    1    2    0    0  0.13903972457E+02  0.20010929642E+02  0.20808194936E+02  0.32042764108E+02  0.00000000000E+00 0.  1.
</event>
<event>
 7    1  0.2738686E-009  0.1775809E+03  0.7561462E-02  0.1170165E+00
         -2   -1    0    0    0  501 -0.00000000000E+00  0.00000000000E+00  0.50751713420E+02  0.50751713420E+02  0.00000000000E+00 0. -1.
          2   -1    0    0  501    0  0.00000000000E+00 -0.00000000000E+00 -0.76592644181E+03  0.76592644181E+03  0.00000000000E+00 0.  1.
         25    2    1    2    0    0  0.15666978544E+03 -0.47613221347E+02 -0.35600537036E+03  0.41133985907E+03  0.12509282721E+03 0.  0.
          5    1    3    3  502    0  0.18844601135E+02 -0.23940727018E+02 -0.19767539512E+03  0.20005327200E+03  0.41800000000E+01 0.  1.
         -5    1    3    3    0  502  0.13782518431E+03 -0.23672494329E+02 -0.15832997524E+03  0.21128658707E+03  0.41800000000E+01 0.  1.
        -11    1    1    2    0    0 -0.56094636027E+02  0.61195124791E+02 -0.12420940161E+03  0.14939687727E+03  0.00000000000E+00 0. -1.
         11    1    1    2    0    0 -0.10057514942E+03 -0.13581903444E+02 -0.23495995643E+03  0.25594141889E+03  0.00000000000E+00 0.  1.
</event>
<event>
 7    1  0.2490079E-009  0.1175644E+03  0.7561462E-02  0.1247170E+00
          3   -1    0    0  501    0  0.00000000000E+00  0.00000000000E+00  0.15088991145E+03  0.15088991145E+03  0.00000000000E+00 0. -1.
         -3   -1    0    0    0  501 -0.00000000000E+00 -0.00000000000E+00 -0.15901496433E+03  0.15901496433E+03  0.00000000000E+00 0.  1.
         25    2    1    2    0    0  0.54615451988E+01  0.61798546255E+02  0.80922688676E+02  0.16138224154E+03  0.12508739963E+03 0.  0.
          5    1    3    3  502    0 -0.48839046113E+02  0.21582743080E+02 -0.28967236404E+01  0.53637026688E+02  0.41800000000E+01 0.  1.
         -5    1    3    3    0  502  0.54300591312E+02  0.40215803175E+02  0.83819412316E+02  0.10774521485E+03  0.41800000000E+01 0.  1.
        -11    1    1    2    0    0  0.45085287726E+02 -0.29925092950E+02 -0.21215958600E+02  0.58123241966E+02  0.00000000000E+00 0. -1.
         11    1    1    2    0    0 -0.50546832924E+02 -0.31873453305E+02 -0.67831782957E+02  0.90399392273E+02  0.00000000000E+00 0.  1.
</event>
<event>
 7    1  0.2490079E-009  0.1188508E+03  0.7561462E-02  0.1245005E+00
          2   -1    0    0  501    0  0.00000000000E+00  0.00000000000E+00  0.24029986114E+03  0.24029986114E+03  0.00000000000E+00 0. -1.
         -2   -1    0    0    0  501 -0.00000000000E+00 -0.00000000000E+00 -0.68977948838E+02  0.68977948838E+02  0.00000000000E+00 0.  1.
         25    2    1    2    0    0 -0.91085487511E+01 -0.56042036632E+02  0.14060848410E+03  0.19657450026E+03  0.12508842000E+03 0.  0.
          5    1    3    3  502    0  0.56432212237E+02 -0.23813351096E+02  0.44661123386E+02  0.75919421826E+02  0.41800000000E+01 0.  1.
         -5    1    3    3    0  502 -0.65540760988E+02 -0.32228685536E+02  0.95947360717E+02  0.12065507843E+03  0.41800000000E+01 0.  1.
        -11    1    1    2    0    0 -0.38317431247E+02  0.32303665161E+02 -0.24080211677E+01  0.50175201905E+02  0.00000000000E+00 0.  1.
         11    1    1    2    0    0  0.47425979998E+02  0.23738371470E+02  0.33121449363E+02  0.62528107814E+02  0.00000000000E+00 0. -1.
</event>
<event>
 7    1  0.2490079E-009  0.1322591E+03  0.7561462E-02  0.1224142E+00
          1   -1    0    0  501    0  0.00000000000E+00  0.00000000000E+00  0.31257102893E+03  0.31257102893E+03  0.00000000000E+00 0. -1.
         -1   -1    0    0    0  501 -0.00000000000E+00 -0.00000000000E+00 -0.61314377575E+02  0.61314377575E+02  0.00000000000E+00 0.  1.
         25    2    1    2    0    0 -0.37965165922E+02 -0.81726079976E+02  0.16083195209E+03  0.22278931268E+03  0.12509058742E+03 0.  0.
          5    1    3    3  502    0 -0.34716254257E+02  0.24379812914E+02  0.21989833991E+02  0.47964766093E+02  0.41800000000E+01 0. -1.
         -5    1    3    3    0  502 -0.32489116648E+01 -0.10610589289E+03  0.13884211810E+03  0.17482454659E+03  0.41800000000E+01 0. -1.
        -11    1    1    2    0    0  0.40747239592E+02  0.75693500894E+01  0.54996547593E+02  0.68864017035E+02  0.00000000000E+00 0. -1.
         11    1    1    2    0    0 -0.27820736699E+01  0.74156729887E+02  0.35428151670E+02  0.82232076784E+02  0.00000000000E+00 0.  1.
</event>
<event>
 7    1  0.2490079E-009  0.2300556E+03  0.7561462E-02  0.1126601E+00
         -1   -1    0    0    0  501 -0.00000000000E+00  0.00000000000E+00  0.59353664724E+02  0.59353664724E+02  0.00000000000E+00 0.  1.
          1   -1    0    0  501    0  0.00000000000E+00 -0.00000000000E+00 -0.12314803734E+04  0.12314803734E+04  0.00000000000E+00 0. -1.
         25    2    1    2    0    0 -0.19404405902E+03  0.89906839859E+02 -0.89615580285E+03  0.92977305854E+03  0.12508549360E+03 0.  0.
          5    1    3    3  502    0 -0.20092306222E+03  0.10614185437E+03 -0.85705288035E+03  0.88667540978E+03  0.41800000000E+01 0. -1.
         -5    1    3    3    0  502  0.68790031939E+01 -0.16235014512E+02 -0.39102922493E+02  0.43097648760E+02  0.41800000000E+01 0. -1.
        -11    1    1    2    0    0  0.71122948828E+02 -0.22906102282E+02 -0.16930403748E+03  0.18505950524E+03  0.00000000000E+00 0.  1.
         11    1    1    2    0    0  0.12292111019E+03 -0.67000737577E+02 -0.10666686833E+03  0.17600147433E+03  0.00000000000E+00 0. -1.
</event>
<event>
 7    1  0.2490079E-009  0.9676519E+02  0.7561462E-02  0.1287249E+00
         -1   -1    0    0    0  501 -0.00000000000E+00  0.00000000000E+00  0.23673072240E+02  0.23673072240E+02  0.00000000000E+00 0.  1.
          1   -1    0    0  501    0  0.00000000000E+00 -0.00000000000E+00 -0.82235709620E+03  0.82235709620E+03  0.00000000000E+00 0. -1.
         25    2    1    2    0    0 -0.68616460846E+02  0.35084009695E+02 -0.55793535161E+03  0.57695576923E+03  0.12508795560E+03 0.  0.
          5    1    3    3  502    0 -0.47024171892E+02  0.29603021833E+02 -0.55018770134E+03  0.55300234244E+03  0.41800000000E+01 0. -1.
         -5    1    3    3    0  502 -0.21592288953E+02  0.54809878615E+01 -0.77476502751E+01  0.23953426790E+02  0.41800000000E+01 0. -1.
        -11    1    1    2    0    0  0.30248778041E+02  0.28056729114E+02 -0.51990977297E+02  0.66371909283E+02  0.00000000000E+00 0. -1.
         11    1    1    2    0    0  0.38367682805E+02 -0.63140738809E+02 -0.18875769505E+03  0.20270248992E+03  0.00000000000E+00 0.  1.
</event>
<event>
 7    1  0.2490079E-009  0.1096617E+03  0.7561462E-02  0.1261198E+00
          2   -1    0    0  501    0  0.00000000000E+00  0.00000000000E+00  0.60730720015E+03  0.60730720015E+03  0.00000000000E+00 0. -1.
         -2   -1    0    0    0  501 -0.00000000000E+00 -0.00000000000E+00 -0.28466175008E+02  0.28466175008E+02  0.00000000000E+00 0.  1.
         25    2    1    2    0    0  0.64285316434E+02  0.38052716266E+02  0.37070797897E+03  0.39831223769E+03  0.12509045484E+03 0.  0.
          5    1    3    3  502    0 -0.28011984715E+02  0.27665079597E+02  0.46677020317E+02  0.61206572706E+02  0.41800000000E+01 0. -1.
         -5    1    3    3    0  502  0.92297301149E+02  0.10387636669E+02  0.32403095866E+03  0.33710566498E+03  0.41800000000E+01 0. -1.
        -11    1    1    2    0    0 -0.89103092466E+01 -0.29387892891E+02  0.11168118764E+02  0.32676730806E+02  0.00000000000E+00 0.  1.
         11    1    1    2    0    0 -0.55375007187E+02 -0.86648233757E+01  0.19696492741E+03  0.20478440667E+03  0.00000000000E+00 0. -1.
</event>
<event>
 7    1  0.2490079E-009  0.1210190E+03  0.7561462E-02  0.1241425E+00
          3   -1    0    0  501    0  0.00000000000E+00  0.00000000000E+00  0.31297442304E+03  0.31297442304E+03  0.00000000000E+00 0. -1.
         -3   -1    0    0    0  501 -0.00000000000E+00 -0.00000000000E+00 -0.69008418679E+02  0.69008418679E+02  0.00000000000E+00 0.  1.
         25    2    1    2    0    0  0.77395068625E+02 -0.55699689511E+02  0.97228026952E+02  0.18491405473E+03  0.12508983314E+03 0.  0.
          5    1    3    3  502    0  0.25447043168E+02  0.16195808378E+02  0.90929575278E+02  0.95893254586E+02  0.41800000000E+01 0.  1.
         -5    1    3    3    0  502  0.51948025457E+02 -0.71895497888E+02  0.62984516738E+01  0.89020800148E+02  0.41800000000E+01 0.  1.
        -11    1    1    2    0    0  0.16122516696E+01  0.42685908766E+02  0.20026596672E+02  0.47177862784E+02  0.00000000000E+00 0. -1.
         11    1    1    2    0    0 -0.79007320294E+02  0.13013780745E+02  0.12671138074E+03  0.14989092420E+03  0.00000000000E+00 0.  1.
</event>
<event>
 7    1  0.2490079E-009  0.1070251E+03  0.7561462E-02  0.1266180E+00
          2   -1    0    0  501    0  0.00000000000E+00  0.00000000000E+00  0.47827422544E+02  0.47827422544E+02  0.00000000000E+00 0. -1.
         -2   -1    0    0    0  501 -0.00000000000E+00 -0.00000000000E+00 -0.40425900742E+03  0.40425900742E+03  0.00000000000E+00 0.  1.
         25    2    1    2    0    0  0.49211077643E+02 -0.37266284852E+02 -0.97044606454E+02  0.16992491579E+03  0.12508523180E+03 0.  0.
          5    1    3    3  502    0  0.89736799132E+02 -0.10028580688E+02 -0.60020512825E+02  0.10850437737E+03  0.41800000000E+01 0. -1.
         -5    1    3    3    0  502 -0.40525721489E+02 -0.27237704164E+02 -0.37024093629E+02  0.61420538417E+02  0.41800000000E+01 0. -1.
        -11    1    1    2    0    0  0.44022074466E+01  0.16630762009E+02 -0.74843150326E+00  0.17219809091E+02  0.00000000000E+00 0. -1.
         11    1    1    2    0    0 -0.53613285089E+02  0.20635522843E+02 -0.25863854692E+03  0.26494170509E+03  0.00000000000E+00 0.  1.
</event>
<event>
 7    1  0.2490079E-009  0.1404128E+03  0.7561462E-02  0.1212775E+00
         -3   -1    0    0    0  501 -0.00000000000E+00  0.00000000000E+00  0.41150286196E+02  0.41150286196E+02  0.00000000000E+00 0.  1.
          3   -1    0    0  501    0  0.00000000000E+00 -0.00000000000E+00 -0.56406983669E+03  0.56406983669E+03  0.00000000000E+00 0. -1.
         25    2    1    2    0    0  0.93131077743E+02 -0.47215767580E+02 -0.23105570903E+03  0.28272986547E+03  0.12508680907E+03 0.  0.
          5    1    3    3  502    0  0.11688300877E+03 -0.12701124172E+02 -0.14337922620E+03  0.18546706231E+03  0.41800000000E+01 0.  1.
         -5    1    3    3    0  502 -0.23751931030E+02 -0.34514643408E+02 -0.87676482831E+02  0.97262803162E+02  0.41800000000E+01 0.  1.
        -11    1    1    2    0    0 -0.10465510000E+02  0.36194847372E+02 -0.31546569073E+02  0.49140410011E+02  0.00000000000E+00 0.  1.
         11    1    1    2    0    0 -0.82665567743E+02  0.11020920208E+02 -0.26031727239E+03  0.27334984741E+03  0.00000000000E+00 0. -1.
</event>
<event>
 7    1  0.2490079E-009  0.1003195E+03  0.7561462E-02  0.1279625E+00
         -2   -1    0    0    0  501 -0.00000000000E+00  0.00000000000E+00  0.31797242894E+02  0.31797242894E+02  0.00000000000E+00 0. -1.
          2   -1    0    0  501    0  0.00000000000E+00 -0.00000000000E+00 -0.42479704278E+03  0.42479704278E+03  0.00000000000E+00 0.  1.
         25    2    1    2    0    0  0.13815795704E+01 -0.40089345188E+02 -0.19901699107E+03  0.23845976044E+03  0.12508489219E+03 0.  0.
          5    1    3    3  502    0  0.54811530294E+02 -0.50268456349E+02 -0.92301697419E+02  0.11860985331E+03  0.41800000000E+01 0. -1.
         -5    1    3    3    0  502 -0.53429950724E+02  0.10179111161E+02 -0.10671529365E+03  0.11984990713E+03  0.41800000000E+01 0. -1.
        -11    1    1    2    0    0 -0.24276969879E+02 -0.12855381809E+01 -0.70486857466E+01  0.25312207444E+02  0.00000000000E+00 0. -1.
         11    1    1    2    0    0  0.22895390309E+02  0.41374883369E+02 -0.18693412307E+03  0.19282231779E+03  0.00000000000E+00 0.  1.
</event>
<event>
 7    1  0.2490079E-009  0.9594599E+02  0.7561462E-02  0.1289060E+00
          1   -1    0    0  501    0  0.00000000000E+00  0.00000000000E+00  0.10072265832E+03  0.10072265832E+03  0.00000000000E+00 0. -1.
         -1   -1    0    0    0  501 -0.00000000000E+00 -0.00000000000E+00 -0.11978148466E+03  0.11978148466E+03  0.00000000000E+00 0.  1.
         25    2    1    2    0    0  0.60961941617E+01  0.12456838501E+02 -0.14849178420E+01  0.12586708407E+03  0.12509189207E+03 0.  0.
          5    1    3    3  502    0  0.61812728869E+02 -0.28725040192E+01  0.18267453674E+02  0.64654752287E+02  0.41800000000E+01 0.  1.
         -5    1    3    3    0  502 -0.55716534707E+02  0.15329342521E+02 -0.19752371516E+02  0.61212331783E+02  0.41800000000E+01 0.  1.
        -11    1    1    2    0    0  0.26697826286E+02  0.13679656271E+02 -0.37653472945E+02  0.48142402816E+02  0.00000000000E+00 0.  1.
         11    1    1    2    0    0 -0.32794020448E+02 -0.26136494772E+02  0.20079564449E+02  0.46494656086E+02  0.00000000000E+00 0. -1.
</event>
<event>
 7    1  0.2490079E-009  0.1568336E+03  0.7561462E-02  0.1192319E+00
          2   -1    0    0  501    0  0.00000000000E+00  0.00000000000E+00  0.64431789125E+03  0.64431789125E+03  0.00000000000E+00 0. -1.
         -2   -1    0    0    0  501 -0.00000000000E+00 -0.00000000000E+00 -0.39645509811E+02  0.39645509811E+02  0.00000000000E+00 0.  1.
         25    2    1    2    0    0 -0.74156594631E+02  0.89705266764E+02  0.33457979935E+03  0.37568275176E+03  0.12509057689E+03 0.  0.
          5    1    3    3  502    0 -0.75082387319E+02 -0.50275355439E+00  0.10649553434E+03  0.13037019936E+03  0.41800000000E+01 0.  1.
         -5    1    3    3    0  502  0.92579268785E+00  0.90208020319E+02  0.22808426501E+03  0.24531255240E+03  0.41800000000E+01 0.  1.
        -11    1    1    2    0    0  0.82815880454E+02 -0.30393868378E+02  0.17255248554E+03  0.19379529807E+03  0.00000000000E+00 0.  1.
         11    1    1    2    0    0 -0.86592858227E+01 -0.59311398387E+02  0.97540096553E+02  0.11448535122E+03  0.00000000000E+00 0. -1.
</event>
<event>
 7    1  0.2490079E-009  0.1604512E+03  0.7561462E-02  0.1188188E+00
         -1   -1    0    0    0  501 -0.00000000000E+00  0.00000000000E+00  0.11580721010E+03  0.11580721010E+03  0.00000000000E+00 0.  1.
          1   -1    0    0  501    0  0.00000000000E+00 -0.00000000000E+00 -0.60498332562E+03  0.60498332562E+03  0.00000000000E+00 0. -1.
         25    2    1    2    0    0 -0.84732491361E+02 -0.11913798457E+03 -0.51236171978E+03  0.54729877781E+03  0.12509182961E+03 0.  0.
          5    1    3    3  502    0 -0.37281954554E+02 -0.89683363381E+02 -0.13818817264E+03  0.16895707520E+03  0.41800000000E+01 0.  1.
         -5    1    3    3    0  502 -0.47450536806E+02 -0.29454621189E+02 -0.37417354714E+03  0.37834170261E+03  0.41800000000E+01 0.  1.
        -11    1    1    2    0    0  0.73550348939E+02  0.32643677872E+02 -0.80091292351E+01  0.80866616630E+02  0.00000000000E+00 0. -1.
         11    1    1    2    0    0  0.11182142422E+02  0.86494306697E+02  0.31194733499E+02  0.92625141286E+02  0.00000000000E+00 0.  1.
</event>
<event>
 7    1  0.2490079E-009  0.8674885E+02  0.7561462E-02  0.1310921E+00
          1   -1    0    0  501    0  0.00000000000E+00  0.00000000000E+00  0.11808412449E+03  0.11808412449E+03  0.00000000000E+00 0.  1.
         -1   -1    0    0    0  501 -0.00000000000E+00 -0.00000000000E+00 -0.14423948798E+03  0.14423948798E+03  0.00000000000E+00 0. -1.
         25    2    1    2    0    0  0.50485713008E+02 -0.34381325069E+02  0.23405392076E+02  0.14115983690E+03  0.12508958568E+03 0.  0.
          5    1    3    3  502    0  0.66195095417E+02 -0.13432336825E+01  0.59853303325E+02  0.89350351163E+02  0.41800000000E+01 0. -1.
         -5    1    3    3    0  502 -0.15709382409E+02 -0.33038091387E+02 -0.36447911250E+02  0.51809485740E+02  0.41800000000E+01 0. -1.
        -11    1    1    2    0    0 -0.22302452574E+02  0.35731745984E+02  0.19608288734E+02  0.46461188630E+02  0.00000000000E+00 0.  1.
         11    1    1    2    0    0 -0.28183260434E+02 -0.13504209144E+01 -0.69169044301E+02  0.74702586935E+02  0.00000000000E+00 0. -1.
</event>
<event>
 7    1  0.2490079E-009  0.6358032E+02  0.7561462E-02  0.1383393E+00
         -1   -1    0    0    0  501 -0.00000000000E+00  0.00000000000E+00  0.13340881649E+03  0.13340881649E+03  0.00000000000E+00 0.  1.
          1   -1    0    0  501    0  0.00000000000E+00 -0.00000000000E+00 -0.94876185989E+02  0.94876185989E+02  0.00000000000E+00 0. -1.
         25    2    1    2    0    0  0.24443917688E+02 -0.10533632322E+02  0.60227238181E+01  0.12803477514E+03  0.12509263735E+03 0.  0.
          5    1    3    3  502    0 -0.11543667621E+02 -0.42919811452E+02  0.46742334730E+02  0.64635011667E+02  0.41800000000E+01 0.  1.
         -5    1    3    3    0  502  0.35987585309E+02  0.32386179130E+02 -0.40719610912E+02  0.63399763468E+02  0.41800000000E+01 0.  1.
        -11    1    1    2    0    0 -0.13801849318E+02  0.16668556164E+02  0.63408329121E+02  0.66999612022E+02  0.00000000000E+00 0.  1.
         11    1    1    2    0    0 -0.10642068370E+02 -0.61349238422E+01 -0.30898422441E+02  0.33250615319E+02  0.00000000000E+00 0. -1.
</event>
<event>
 7    1  0.2490079E-009  0.1137949E+03  0.7561462E-02  0.1253699E+00
         -1   -1    0    0    0  501 -0.00000000000E+00  0.00000000000E+00  0.14444209653E+02  0.14444209653E+02  0.00000000000E+00 0.  1.
          1   -1    0    0  501    0  0.00000000000E+00 -0.00000000000E+00 -0.94862005059E+03  0.94862005059E+03  0.00000000000E+00 0. -1.
         25    2    1    2    0    0  0.21407235131E+02  0.34203290815E+02 -0.50517990292E+03  0.52199733588E+03  0.12508536898E+03 0.  0.
          5    1    3    3  502    0  0.33255745595E+02 -0.42183660406E+02 -0.19552897997E+03  0.20281632141E+03  0.41800000000E+01 0. -1.
         -5    1    3    3    0  502 -0.11848510464E+02  0.76386951220E+02 -0.30965092295E+03  0.31918101447E+03  0.41800000000E+01 0. -1.
        -11    1    1    2    0    0  0.32460069571E+02  0.54501700802E-01 -0.80962771801E+02  0.87227458433E+02  0.00000000000E+00 0.  1.
         11    1    1    2    0    0 -0.53867304702E+02 -0.34257792515E+02 -0.34803316622E+03  0.35383946593E+03  0.00000000000E+00 0. -1.
</event>
<event>
 7    1  0.2490079E-009  0.6845141E+02  0.7561462E-02  0.1365440E+00
         -1   -1    0    0    0  501 -0.00000000000E+00  0.00000000000E+00  0.96098813566E+02  0.96098813566E+02  0.00000000000E+00 0.  1.
          1   -1    0    0  501    0  0.00000000000E+00 -0.00000000000E+00 -0.15750593877E+03  0.15750593877E+03  0.00000000000E+00 0. -1.
         25    2    1    2    0    0 -0.33773206683E+01 -0.39649500190E+02 -0.12558126310E+02  0.13187150460E+03  0.12509555559E+03 0.  0.
          5    1    3    3  502    0 -0.25407416333E+02 -0.10566631706E+02 -0.63349887950E+02  0.69194444962E+02  0.41800000000E+01 0. -1.
         -5    1    3    3    0  502  0.22030095664E+02 -0.29082868483E+02  0.50791761640E+02  0.62677059637E+02  0.41800000000E+01 0. -1.
        -11    1    1    2    0    0  0.21488115942E+02 -0.67617580909E+01  0.24360822072E+02  0.33179966113E+02  0.00000000000E+00 0.  1.
         11    1    1    2    0    0 -0.18110795274E+02  0.46411258280E+02 -0.73209820969E+02  0.88553281627E+02  0.00000000000E+00 0. -1.
</event>
<event>
 7    1  0.3222210E-009  0.1441316E+03  0.7561462E-02  0.1207875E+00
          1   -1    0    0  501    0  0.00000000000E+00  0.00000000000E+00  0.70556154529E+03  0.70556154529E+03  0.00000000000E+00 0. -1.
         -1   -1    0    0    0  501 -0.00000000000E+00 -0.00000000000E+00 -0.46216701064E+02  0.46216701064E+02  0.00000000000E+00 0.  1.
         25    2    1    2    0    0  0.33488646324E+02 -0.13828708108E+03  0.39008111603E+03  0.43365217105E+03  0.12508446002E+03 0.  0.
          5    1    3    3  502    0  0.11182855816E+02 -0.81872226379E+02  0.71598305706E+02  0.10941621222E+03  0.41800000000E+01 0.  1.
         -5    1    3    3    0  502  0.22305790508E+02 -0.56414854702E+02  0.31848281033E+03  0.32423595883E+03  0.41800000000E+01 0.  1.
        -11    1    1    2    0    0 -0.32554592598E+02  0.79297859112E+02  0.23443680144E+03  0.24961683803E+03  0.00000000000E+00 0. -1.
         11    1    1    2    0    0 -0.93405372631E+00  0.58989221970E+02  0.34826926745E+02  0.68509237271E+02  0.00000000000E+00 0.  1.
</event>
<event>
 7    1  0.2490079E-009  0.8805822E+02  0.7561462E-02  0.1307623E+00
         -3   -1    0    0    0  501 -0.00000000000E+00  0.00000000000E+00  0.49523057451E+02  0.49523057451E+02  0.00000000000E+00 0.  1.
          3   -1    0    0  501    0  0.00000000000E+00 -0.00000000000E+00 -0.29215896576E+03  0.29215896576E+03  0.00000000000E+00 0. -1.
         25    2    1    2    0    0  0.23595658108E+02 -0.74932640480E+01 -0.73065000675E+02  0.14696522364E+03  0.12508948216E+03 0.  0.
          5    1    3    3  502    0 -0.86818046411E+01 -0.36000155902E+02 -0.92357321177E+02  0.99592831729E+02  0.41800000000E+01 0.  1.
         -5    1    3    3    0  502  0.32277462749E+02  0.28506891854E+02  0.19292320503E+02  0.47372391908E+02  0.41800000000E+01 0.  1.
        -11    1    1    2    0    0 -0.32510233563E+02  0.45848756706E+02 -0.10460112122E+03  0.11874518238E+03  0.00000000000E+00 0. -1.
         11    1    1    2    0    0  0.89145754550E+01 -0.38355492658E+02 -0.64969786414E+02  0.75971617195E+02  0.00000000000E+00 0.  1.
</event>
<event>
 7    1  0.2490079E-009  0.1574222E+03  0.7561462E-02  0.1191638E+00
         -1   -1    0    0    0  501 -0.00000000000E+00  0.00000000000E+00  0.34306456442E+02  0.34306456442E+02  0.00000000000E+00 0.  1.
          1   -1    0    0  501    0  0.00000000000E+00 -0.00000000000E+00 -0.96687249994E+03  0.96687249994E+03  0.00000000000E+00 0. -1.
         25    2    1    2    0    0 -0.14380268891E+03  0.26237499934E+02 -0.52305915900E+03  0.55732052283E+03  0.12509061364E+03 0.  0.
          5    1    3    3  502    0 -0.68765284836E+02  0.16603384217E+02 -0.76103906054E+02  0.10398852669E+03  0.41800000000E+01 0.  1.
         -5    1    3    3    0  502 -0.75037404076E+02  0.96341157172E+01 -0.44695525294E+03  0.45333199615E+03  0.41800000000E+01 0.  1.
        -11    1    1    2    0    0  0.57553055852E+02 -0.52655520523E+02 -0.23170305297E+03  0.24448162064E+03  0.00000000000E+00 0. -1.
         11    1    1    2    0    0  0.86249633060E+02  0.26418020589E+02 -0.17780383153E+03  0.19937681290E+03  0.00000000000E+00 0.  1.
</event>
<event>
 7    1  0.2490079E-009  0.1683243E+03  0.7561462E-02  0.1179607E+00
         -2   -1    0    0    0  501 -0.00000000000E+00  0.00000000000E+00  0.24156315371E+02  0.24156315371E+02  0.00000000000E+00 0.  1.
          2   -1    0    0  501    0  0.00000000000E+00 -0.00000000000E+00 -0.14928753880E+04  0.14928753880E+04  0.00000000000E+00 0. -1.
         25    2    1    2    0    0  0.10787531674E+03  0.10047250985E+03 -0.94955334522E+03  0.96903516761E+03  0.12508313811E+03 0.  0.
          5    1    3    3  502    0  0.10352637538E+03  0.47232902939E+02 -0.83311319914E+03  0.84085892544E+03  0.41800000000E+01 0.  1.
         -5    1    3    3    0  502  0.43489413633E+01  0.53239606913E+02 -0.11644014608E+03  0.12817624216E+03  0.41800000000E+01 0.  1.
        -11    1    1    2    0    0 -0.90994107572E+02 -0.28617546854E+02 -0.21869290185E+03  0.23859060526E+03  0.00000000000E+00 0.  1.
         11    1    1    2    0    0 -0.16881209166E+02 -0.71854962998E+02 -0.30047282556E+03  0.30940593050E+03  0.00000000000E+00 0. -1.
</event>
<event>
 7    1  0.2490079E-009  0.1485099E+03  0.7561462E-02  0.1202316E+00
         -1   -1    0    0    0  501 -0.00000000000E+00  0.00000000000E+00  0.62988435894E+02  0.62988435894E+02  0.00000000000E+00 0.  1.
          1   -1    0    0  501    0  0.00000000000E+00 -0.00000000000E+00 -0.42261164137E+03  0.42261164137E+03  0.00000000000E+00 0. -1.
         25    2    1    2    0    0  0.89115141286E+02  0.80326642347E+02 -0.17687500835E+03  0.24763567958E+03  0.12507910834E+03 0.  0.
          5    1    3    3  502    0  0.80289193394E+02  0.97291465222E+02 -0.18699257257E+03  0.22560070562E+03  0.41800000000E+01 0.  1.
         -5    1    3    3    0  502  0.88259478918E+01 -0.16964822876E+02  0.10117564222E+02  0.22034973954E+02  0.41800000000E+01 0.  1.
        -11    1    1    2    0    0 -0.10351452486E+03 -0.44600391393E+02 -0.12259431669E+03  0.16653473588E+03  0.00000000000E+00 0. -1.
         11    1    1    2    0    0  0.14399383573E+02 -0.35726250953E+02 -0.60153880439E+02  0.71429661811E+02  0.00000000000E+00 0.  1.
</event>
<event>
 7    1  0.2490079E-009  0.9834899E+02  0.7561462E-02  0.1283807E+00
          2   -1    0    0  501    0  0.00000000000E+00  0.00000000000E+00  0.44317813720E+03  0.44317813720E+03  0.00000000000E+00 0. -1.
         -2   -1    0    0    0  501 -0.00000000000E+00 -0.00000000000E+00 -0.35685309828E+02  0.35685309828E+02  0.00000000000E+00 0.  1.
         25    2    1    2    0    0  0.34604228182E+02 -0.93963065509E+01  0.12758620778E+03  0.18223948060E+03  0.12508894712E+03 0.  0.
          5    1    3    3  502    0  0.66067756656E+02 -0.10873511461E+02  0.13397145626E+03  0.14982992096E+03  0.41800000000E+01 0.  1.
         -5    1    3    3    0  502 -0.31463528474E+02  0.14772049101E+01 -0.63852484837E+01  0.32409559648E+02  0.41800000000E+01 0.  1.
        -11    1    1    2    0    0  0.12030171101E+01 -0.38231323600E+02  0.97658542844E+02  0.10488218316E+03  0.00000000000E+00 0.  1.
         11    1    1    2    0    0 -0.35807245292E+02  0.47627630151E+02  0.18224807675E+03  0.19174178326E+03  0.00000000000E+00 0. -1.
</event>
<event>
 7    1  0.2490079E-009  0.2136102E+03  0.7561462E-02  0.1138739E+00
         -1   -1    0    0    0  501 -0.00000000000E+00  0.00000000000E+00  0.65079068438E+02  0.65079068438E+02  0.00000000000E+00 0.  1.
          1   -1    0    0  501    0  0.00000000000E+00 -0.00000000000E+00 -0.85825798168E+03  0.85825798168E+03  0.00000000000E+00 0. -1.
         25    2    1    2    0    0  0.14463967666E+03  0.14016202089E+03 -0.29422967605E+03  0.37786714782E+03  0.12508577442E+03 0.  0.
          5    1    3    3  502    0  0.12422813504E+03  0.51959141656E+02 -0.23081031060E+03  0.26725129338E+03  0.41800000000E+01 0.  1.
         -5    1    3    3    0  502  0.20411541622E+02  0.88202879238E+02 -0.63419365458E+02  0.11061585443E+03  0.41800000000E+01 0.  1.
        -11    1    1    2    0    0 -0.72274201734E+02 -0.60589550552E+02 -0.34507693699E+03  0.35773278619E+03  0.00000000000E+00 0. -1.
         11    1    1    2    0    0 -0.72365474926E+02 -0.79572470342E+02 -0.15387230020E+03  0.18773711611E+03  0.00000000000E+00 0.  1.
</event>
<event>
 7    1  0.2490079E-009  0.2147153E+03  0.7561462E-02  0.1137885E+00
          2   -1    0    0  501    0  0.00000000000E+00  0.00000000000E+00  0.50010430339E+03  0.50010430339E+03  0.00000000000E+00 0.  1.
         -2   -1    0    0    0  501 -0.00000000000E+00 -0.00000000000E+00 -0.36054093791E+03  0.36054093791E+03  0.00000000000E+00 0. -1.
         25    2    1    2    0    0  0.43099785938E+02  0.19190610824E+03 -0.29439767995E+03  0.37550431762E+03  0.12509177697E+03 0.  0.
          5    1    3    3  502    0 -0.43251902433E+02  0.67479297496E+02 -0.83440574893E+02  0.11577557857E+03  0.41800000000E+01 0. -1.
         -5    1    3    3    0  502  0.86351688371E+02  0.12442681075E+03 -0.21095710505E+03  0.25972873905E+03  0.41800000000E+01 0. -1.
        -11    1    1    2    0    0 -0.21162196401E+02 -0.13538276326E+03  0.38008650017E+03  0.40403227440E+03  0.00000000000E+00 0.  1.
         11    1    1    2    0    0 -0.21937589537E+02 -0.56523344981E+02  0.53874545260E+02  0.81108649289E+02  0.00000000000E+00 0. -1.
</event>
<event>
 7    1  0.2490079E-009  0.1034289E+03  0.7561462E-02  0.1273246E+00
         -2   -1    0    0    0  501 -0.00000000000E+00  0.00000000000E+00  0.30273133669E+02  0.30273133669E+02  0.00000000000E+00 0.  1.
          2   -1    0    0  501    0  0.00000000000E+00 -0.00000000000E+00 -0.44248382453E+03  0.44248382453E+03  0.00000000000E+00 0. -1.
         25    2    1    2    0    0  0.40008590048E+02 -0.87654363411E+00 -0.24611026335E+03  0.27896036943E+03  0.12508865007E+03 0.  0.
          5    1    3    3  502    0  0.73698661013E+02 -0.51516124613E+01 -0.78441344340E+02  0.10783574847E+03  0.41800000000E+01 0.  1.
         -5    1    3    3    0  502 -0.33690070965E+02  0.42750688272E+01 -0.16766891901E+03  0.17112462096E+03  0.41800000000E+01 0.  1.
        -11    1    1    2    0    0  0.33295507089E+01  0.40072640433E+02 -0.53382502696E+02  0.66832581974E+02  0.00000000000E+00 0. -1.
         11    1    1    2    0    0 -0.43338140757E+02 -0.39196096799E+02 -0.11271792481E+03  0.12696400680E+03  0.00000000000E+00 0.  1.
</event>
<event>
 7    1  0.2490079E-009  0.1311675E+03  0.7561462E-02  0.1225734E+00
          2   -1    0    0  501    0  0.00000000000E+00  0.00000000000E+00  0.36674245560E+03  0.36674245560E+03  0.00000000000E+00 0. -1.
         -2   -1    0    0    0  501 -0.00000000000E+00 -0.00000000000E+00 -0.49743217801E+02  0.49743217801E+02  0.00000000000E+00 0.  1.
         25    2    1    2    0    0 -0.77562293685E+02 -0.81356680980E+01  0.20281008962E+03  0.25072419581E+03  0.12509433008E+03 0.  0.
          5    1    3    3  502    0 -0.99800536781E+02  0.27980589523E+02  0.15680598536E+03  0.18801236655E+03  0.41800000000E+01 0.  1.
         -5    1    3    3    0  502  0.22238243096E+02 -0.36116257621E+02  0.46004104265E+02  0.62711829265E+02  0.41800000000E+01 0.  1.
        -11    1    1    2    0    0  0.56954792319E+02  0.45776120293E+02  0.49964488691E+02  0.88519781334E+02  0.00000000000E+00 0.  1.
         11    1    1    2    0    0  0.20607501366E+02 -0.37640452195E+02  0.64224659484E+02  0.77241696252E+02  0.00000000000E+00 0. -1.
</event>
<event>
 7    1  0.2490079E-009  0.3341612E+03  0.7561462E-02  0.1069310E+00
          2   -1    0    0  501    0  0.00000000000E+00  0.00000000000E+00  0.72014964116E+03  0.72014964116E+03  0.00000000000E+00 0.  1.
         -2   -1    0    0    0  501 -0.00000000000E+00 -0.00000000000E+00 -0.25445094836E+03  0.25445094836E+03  0.00000000000E+00 0. -1.
         25    2    1    2    0    0 -0.25192329923E+03 -0.20962655830E+03  0.52601430180E+03  0.63225536848E+03  0.12508861912E+03 0.  0.
          5    1    3    3  502    0 -0.14016269981E+03 -0.63272471787E+02  0.32524700961E+03  0.35979449379E+03  0.41800000000E+01 0.  1.
         -5    1    3    3    0  502 -0.11176059942E+03 -0.14635408651E+03  0.20076729219E+03  0.27246087469E+03  0.41800000000E+01 0.  1.
        -11    1    1    2    0    0  0.14978494534E+03  0.98052503375E+02 -0.66442142615E+02  0.19095649133E+03  0.00000000000E+00 0. -1.
         11    1    1    2    0    0  0.10213835389E+03  0.11157405492E+03  0.61265336178E+01  0.15138872970E+03  0.00000000000E+00 0.  1.
</event>
<event>
 7    1  0.2490079E-009  0.7067017E+02  0.7561462E-02  0.1357829E+00
          2   -1    0    0  501    0  0.00000000000E+00  0.00000000000E+00  0.14361399808E+03  0.14361399808E+03  0.00000000000E+00 0. -1.
         -2   -1    0    0    0  501 -0.00000000000E+00 -0.00000000000E+00 -0.10123399378E+03  0.10123399378E+03  0.00000000000E+00 0.  1.
         25    2    1    2    0    0 -0.12181225227E+02  0.39010502427E+02  0.38880132821E+02  0.13722042816E+03  0.12509028591E+03 0.  0.
          5    1    3    3  502    0 -0.47261787494E+01  0.37114634129E+02  0.83582035957E+02  0.91669307660E+02  0.41800000000E+01 0. -1.
         -5    1    3    3    0  502 -0.74550464781E+01  0.18958682976E+01 -0.44701903136E+02  0.45551120498E+02  0.41800000000E+01 0. -1.
        -11    1    1    2    0    0 -0.19237609425E+02 -0.56005757910E+02  0.26778593910E+02  0.64990950349E+02  0.00000000000E+00 0. -1.
         11    1    1    2    0    0  0.31418834652E+02  0.16995255484E+02 -0.23278722434E+02  0.42636613351E+02  0.00000000000E+00 0.  1.
</event>
<event>
 7    1  0.2490079E-009  0.9503097E+02  0.7561462E-02  0.1291106E+00
         -2   -1    0    0    0  501 -0.00000000000E+00  0.00000000000E+00  0.41042261272E+02  0.41042261272E+02  0.00000000000E+00 0.  1.
          2   -1    0    0  501    0  0.00000000000E+00 -0.00000000000E+00 -0.31348297472E+03  0.31348297472E+03  0.00000000000E+00 0. -1.
         25    2    1    2    0    0  0.37692983162E+01 -0.21754340659E+02 -0.16691065283E+03  0.20974963094E+03  0.12509309615E+03 0.  0.
          5    1    3    3  502    0 -0.48454530949E+01  0.52106645873E+02 -0.66140864444E+02  0.84443278650E+02  0.41800000000E+01 0. -1.
         -5    1    3    3    0  502  0.86147514111E+01 -0.73860986532E+02 -0.10076978839E+03  0.12530635229E+03  0.41800000000E+01 0. -1.
        -11    1    1    2    0    0 -0.28652702251E+02 -0.19485738455E+01 -0.10659228331E+03  0.11039333833E+03  0.00000000000E+00 0. -1.
         11    1    1    2    0    0  0.24883403935E+02  0.23702914505E+02  0.10622226965E+01  0.34382266715E+02  0.00000000000E+00 0.  1.
</event>
<event>
 7    1  0.2490079E-009  0.1246778E+03  0.7561462E-02  0.1235574E+00
          1   -1    0    0  501    0  0.00000000000E+00  0.00000000000E+00  0.15818909511E+04  0.15818909511E+04  0.00000000000E+00 0. -1.
         -1   -1    0    0    0  501 -0.00000000000E+00 -0.00000000000E+00 -0.10443236578E+02  0.10443236578E+02  0.00000000000E+00 0.  1.
         25    2    1    2    0    0 -0.60325257108E+02  0.25986230133E+02  0.10582184455E+04  0.10676084848E+04  0.12508867863E+03 0.  0.
          5    1    3    3  502    0 -0.50596556932E+02  0.75197485052E+02  0.70847709756E+03  0.71426321724E+03  0.41800000000E+01 0.  1.
         -5    1    3    3    0  502 -0.97287001761E+01 -0.49211254919E+02  0.34974134797E+03  0.35334526755E+03  0.41800000000E+01 0.  1.
        -11    1    1    2    0    0  0.31785551283E+02  0.31096600183E+02  0.17756027660E+03  0.18304363316E+03  0.00000000000E+00 0. -1.
         11    1    1    2    0    0  0.28539705825E+02 -0.57082830316E+02  0.33566899243E+03  0.34168206978E+03  0.00000000000E+00 0.  1.
</event>
<event>
 7    1  0.2490079E-009  0.1341022E+03  0.7561462E-02  0.1221493E+00
         -3   -1    0    0    0  501 -0.00000000000E+00  0.00000000000E+00  0.25921940016E+02  0.25921940016E+02  0.00000000000E+00 0.  1.
          3   -1    0    0  501    0  0.00000000000E+00 -0.00000000000E+00 -0.95405725439E+03  0.95405725439E+03  0.00000000000E+00 0. -1.
         25    2    1    2    0    0 -0.85891931393E+02  0.49418660309E+02 -0.69289656084E+03  0.71103408554E+03  0.12507677204E+03 0.  0.
          5    1    3    3  502    0  0.71148514066E+01 -0.20704280449E+02 -0.26985469244E+02  0.34999661280E+02  0.41800000000E+01 0.  1.
         -5    1    3    3    0  502 -0.93006782800E+02  0.70122940758E+02 -0.66591109160E+03  0.67603442426E+03  0.41800000000E+01 0.  1.
        -11    1    1    2    0    0  0.78434247963E+02  0.95387787518E+00 -0.15850827579E+03  0.17685506674E+03  0.00000000000E+00 0. -1.
         11    1    1    2    0    0  0.74576834294E+01 -0.50372538184E+02 -0.76730477738E+02  0.92090042128E+02  0.00000000000E+00 0.  1.
</event>
<event>
 7    1  0.2490079E-009  0.1547608E+03  0.7561462E-02  0.1194742E+00
          2   -1    0    0  501    0  0.00000000000E+00  0.00000000000E+00  0.49896546568E+03  0.49896546568E+03  0.00000000000E+00 0. -1.
         -2   -1    0    0    0  501 -0.00000000000E+00 -0.00000000000E+00 -0.72269557786E+02  0.72269557786E+02  0.00000000000E+00 0.  1.
         25    2    1    2    0    0 -0.48217645395E+01 -0.15391015169E+03  0.25164452379E+03  0.32044443735E+03  0.12509231339E+03 0.  0.
          5    1    3    3  502    0 -0.10164165159E+02 -0.98589866365E+02  0.49708226727E+02  0.11095788484E+03  0.41800000000E+01 0. -1.
         -5    1    3    3    0  502  0.53424006196E+01 -0.55320285325E+02  0.20193629706E+03  0.20948655251E+03  0.41800000000E+01 0. -1.
        -11    1    1    2    0    0 -0.44411484654E+01  0.29557822680E+02  0.10196075499E+03  0.10625151406E+03  0.00000000000E+00 0. -1.
         11    1    1    2    0    0  0.92629130048E+01  0.12435232901E+03  0.73090629120E+02  0.14453907206E+03  0.00000000000E+00 0.  1.
</event>
<event>
 7    1  0.2490079E-009  0.1245905E+03  0.7561462E-02  0.1235711E+00
         -1   -1    0    0    0  501 -0.00000000000E+00  0.00000000000E+00  0.11446399840E+03  0.11446399840E+03  0.00000000000E+00 0.  1.
          1   -1    0    0  501    0  0.00000000000E+00 -0.00000000000E+00 -0.21809609523E+03  0.21809609523E+03  0.00000000000E+00 0. -1.
         25    2    1    2    0    0 -0.62049239512E+02 -0.60406115266E+02 -0.13505137444E+03  0.20343323717E+03  0.12508877393E+03 0.  0.
          5    1    3    3  502    0 -0.24755622396E+01 -0.84129277556E+02 -0.98031092084E+02  0.12927270078E+03  0.41800000000E+01 0. -1.
         -5    1    3    3    0  502 -0.59573677273E+02  0.23723162291E+02 -0.37020282355E+02  0.74160536396E+02  0.41800000000E+01 0. -1.
        -11    1    1    2    0    0  0.12878850148E+02  0.48335260496E+02 -0.22774515220E+02  0.54962175465E+02  0.00000000000E+00 0. -1.
         11    1    1    2    0    0  0.49170389365E+02  0.12070854770E+02  0.54193792833E+02  0.74164680993E+02  0.00000000000E+00 0.  1.
</event>
<event>
 7    1  0.2490079E-009  0.3118251E+03  0.7561462E-02  0.1079474E+00
          2   -1    0    0  501    0  0.00000000000E+00  0.00000000000E+00  0.54234339504E+03  0.54234339504E+03  0.00000000000E+00 0. -1.
         -2   -1    0    0    0  501 -0.00000000000E+00 -0.00000000000E+00 -0.23784918675E+03  0.23784918675E+03  0.00000000000E+00 0.  1.
         25    2    1    2    0    0 -0.16219416986E+03  0.25659848404E+03  0.32641284581E+03  0.46297335819E+03  0.12509697731E+03 0.  0.
          5    1    3    3  502    0 -0.18851970410E+02  0.45947291142E+01 -0.70668694459E+01  0.21069441562E+02  0.41800000000E+01 0.  1.
         -5    1    3    3    0  502 -0.14334219945E+03  0.25200375493E+03  0.33347971525E+03  0.44190391662E+03  0.41800000000E+01 0.  1.
        -11    1    1    2    0    0  0.50637609525E+02 -0.15464794147E+03 -0.31668033452E+02  0.16578002787E+03  0.00000000000E+00 0.  1.
         11    1    1    2    0    0  0.11155656033E+03 -0.10195054257E+03  0.97493959346E+01  0.15143919574E+03  0.00000000000E+00 0. -1.
</event>
<event>
 7    1  0.2490079E-009  0.1737329E+03  0.7561462E-02  0.1174010E+00
          2   -1    0    0  501    0  0.00000000000E+00  0.00000000000E+00  0.21432068938E+03  0.21432068938E+03  0.00000000000E+00 0. -1.
         -2   -1    0    0    0  501 -0.00000000000E+00 -0.00000000000E+00 -0.17072552816E+03  0.17072552816E+03  0.00000000000E+00 0.  1.
         25    2    1    2    0    0  0.14397705104E+03  0.65599413580E+02  0.13486274400E+02  0.20214274108E+03  0.12508850421E+03 0.  0.
          5    1    3    3  502    0 -0.31391218846E+01  0.37026905772E+02 -0.27849568357E+02  0.46625279570E+02  0.41800000000E+01 0. -1.
         -5    1    3    3    0  502  0.14711617292E+03  0.28572507808E+02  0.41335842757E+02  0.15551746151E+03  0.41800000000E+01 0. -1.
        -11    1    1    2    0    0 -0.39491823182E+02 -0.30591322985E+02 -0.29097633568E+02  0.57810945499E+02  0.00000000000E+00 0.  1.
         11    1    1    2    0    0 -0.10448522785E+03 -0.35008090595E+02  0.59206520389E+02  0.12509253097E+03  0.00000000000E+00 0. -1.
</event>
<event>
 7    1  0.2490079E-009  0.8962466E+02  0.7561462E-02  0.1303763E+00
         -3   -1    0    0    0  501 -0.00000000000E+00  0.00000000000E+00  0.72430722161E+02  0.72430722161E+02  0.00000000000E+00 0.  1.
          3   -1    0    0  501    0  0.00000000000E+00 -0.00000000000E+00 -0.17858849147E+03  0.17858849147E+03  0.00000000000E+00 0. -1.
         25    2    1    2    0    0 -0.19665571114E+02  0.18034455524E+02 -0.84531444809E+02  0.15331843186E+03  0.12509596361E+03 0.  0.
          5    1    3    3  502    0  0.30923645155E+02 -0.83854195232E+01 -0.90200084172E+02  0.95812914969E+02  0.41800000000E+01 0. -1.
         -5    1    3    3    0  502 -0.50589216269E+02  0.26419875047E+02  0.56686393624E+01  0.57505516887E+02  0.41800000000E+01 0. -1.
        -11    1    1    2    0    0 -0.27802306370E+02 -0.29853695399E+02  0.64460033317E+01  0.41300875625E+02  0.00000000000E+00 0.  1.
         11    1    1    2    0    0  0.47467877484E+02  0.11819239875E+02 -0.28072327834E+02  0.56399906153E+02  0.00000000000E+00 0. -1.
</event>
<event>
 7    1  0.2490079E-009  0.1710606E+03  0.7561462E-02  0.1176746E+00
         -1   -1    0    0    0  501 -0.00000000000E+00  0.00000000000E+00  0.78280721222E+02  0.78280721222E+02  0.00000000000E+00 0.  1.
          1   -1    0    0  501    0  0.00000000000E+00 -0.00000000000E+00 -0.47983359038E+03  0.47983359038E+03  0.00000000000E+00 0. -1.
         25    2    1    2    0    0  0.59658640619E+01  0.15235513994E+03 -0.28168652487E+03  0.34386396155E+03  0.12508975002E+03 0.  0.
          5    1    3    3  502    0  0.51945446559E+02  0.57382232009E+02 -0.18541832081E+03  0.20096884351E+03  0.41800000000E+01 0. -1.
         -5    1    3    3    0  502 -0.45979582497E+02  0.94972907928E+02 -0.96268204058E+02  0.14289511804E+03  0.41800000000E+01 0. -1.
        -11    1    1    2    0    0  0.19604711169E+02 -0.56769551986E+02 -0.16398653015E+01  0.60081743408E+02  0.00000000000E+00 0.  1.
         11    1    1    2    0    0 -0.25570575230E+02 -0.95585587951E+02 -0.11822647898E+03  0.15416860664E+03  0.00000000000E+00 0. -1.
</event>
<event>
 7    1  0.2490079E-009  0.7550821E+02  0.7561462E-02  0.1342304E+00
         -4   -1    0    0    0  501 -0.00000000000E+00  0.00000000000E+00  0.91022555228E+02  0.91022555228E+02  0.00000000000E+00 0.  1.
          4   -1    0    0  501    0  0.00000000000E+00 -0.00000000000E+00 -0.14230438377E+03  0.14230438377E+03  0.00000000000E+00 0. -1.
         25    2    1    2    0    0  0.72921733841E+01  0.17381901650E+02 -0.73556382937E+02  0.14633539506E+03  0.12509276589E+03 0.  0.
          5    1    3    3  502    0  0.10682856162E+02 -0.23619907609E+02 -0.95831713593E+02  0.99364043705E+02  0.41800000000E+01 0. -1.
         -5    1    3    3    0  502 -0.33906827776E+01  0.41001809259E+02  0.22275330656E+02  0.46971351354E+02  0.41800000000E+01 0. -1.
        -11    1    1    2    0    0  0.28508773094E+02 -0.33631179194E+02  0.62252584186E+01  0.44525949733E+02  0.00000000000E+00 0. -1.
         11    1    1    2    0    0 -0.35800946478E+02  0.16249277543E+02  0.16049295980E+02  0.42465594201E+02  0.00000000000E+00 0.  1.
</event>
<event>
 7    1  0.2490079E-009  0.6210034E+02  0.7561462E-02  0.1389223E+00
         -3   -1    0    0    0  501 -0.00000000000E+00  0.00000000000E+00  0.55542111293E+03  0.55542111293E+03  0.00000000000E+00 0.  1.
          3   -1    0    0  501    0  0.00000000000E+00 -0.00000000000E+00 -0.27733148872E+02  0.27733148872E+02  0.00000000000E+00 0. -1.
         25    2    1    2    0    0 -0.43712055482E+01 -0.60458653930E+02  0.27886376831E+03  0.31157987383E+03  0.12507062095E+03 0.  0.
          5    1    3    3  502    0 -0.19609869457E+00 -0.52997142447E+02  0.29119221360E+03  0.29600525877E+03  0.41800000000E+01 0.  1.
         -5    1    3    3    0  502 -0.41751068536E+01 -0.74615114824E+01 -0.12328445287E+02  0.15574615052E+02  0.41800000000E+01 0.  1.
        -11    1    1    2    0    0  0.78102926268E+01  0.46073005647E+02  0.25212539103E+03  0.25641945192E+03  0.00000000000E+00 0.  1.
         11    1    1    2    0    0 -0.34390870786E+01  0.14385648283E+02 -0.33011952859E+01  0.15154936053E+02  0.00000000000E+00 0. -1.
</event>
<event>
 7    1  0.2490079E-009  0.1915949E+03  0.7561462E-02  0.1157031E+00
          3   -1    0    0  501    0  0.00000000000E+00  0.00000000000E+00  0.26512992551E+03  0.26512992551E+03  0.00000000000E+00 0. -1.
         -3   -1    0    0    0  501 -0.00000000000E+00 -0.00000000000E+00 -0.20301246640E+03  0.20301246640E+03  0.00000000000E+00 0.  1.
         25    2    1    2    0    0 -0.29575830064E+02  0.18480538455E+03 -0.52239264730E+02  0.23109294091E+03  0.12508895505E+03 0.  0.
          5    1    3    3  502    0 -0.34209533689E+01  0.15845223365E+03  0.96085147791E+01  0.15883516369E+03  0.41800000000E+01 0. -1.
         -5    1    3    3    0  502 -0.26154876695E+02  0.26353150905E+02 -0.61847779509E+02  0.72257777213E+02  0.41800000000E+01 0. -1.
        -11    1    1    2    0    0  0.16066839692E+02 -0.78970633339E+02 -0.83357946706E-01  0.80588530302E+02  0.00000000000E+00 0.  1.
         11    1    1    2    0    0  0.13508990372E+02 -0.10583475121E+03  0.11444008179E+03  0.15646092070E+03  0.00000000000E+00 0. -1.
</event>
<event>
 7    1  0.2490079E-009  0.1298736E+03  0.7561462E-02  0.1227643E+00
          1   -1    0    0  501    0  0.00000000000E+00  0.00000000000E+00  0.37407352997E+03  0.37407352997E+03  0.00000000000E+00 0. -1.
         -1   -1    0    0    0  501 -0.00000000000E+00 -0.00000000000E+00 -0.77166081067E+02  0.77166081067E+02  0.00000000000E+00 0.  1.
         25    2    1    2    0    0 -0.86241286619E+02  0.13463761814E+02  0.27715161605E+03  0.31635423547E+03  0.12509257221E+03 0.  0.
          5    1    3    3  502    0 -0.10994185151E+03  0.23451357120E+02  0.15538556310E+03  0.19183149502E+03  0.41800000000E+01 0. -1.
         -5    1    3    3    0  502  0.23700564892E+02 -0.99875953060E+01  0.12176605296E+03  0.12452274045E+03  0.41800000000E+01 0. -1.
        -11    1    1    2    0    0  0.66330297739E+02  0.30446400240E+02 -0.16175793018E+02  0.74755253765E+02  0.00000000000E+00 0.  1.
         11    1    1    2    0    0  0.19910988880E+02 -0.43910162055E+02  0.35931625865E+02  0.60130121796E+02  0.00000000000E+00 0. -1.
</event>
<event>
 7    1  0.2490079E-009  0.3199536E+03  0.7561462E-02  0.1075671E+00
          1   -1    0    0  501    0  0.00000000000E+00  0.00000000000E+00  0.91145812351E+03  0.91145812351E+03  0.00000000000E+00 0. -1.
         -1   -1    0    0    0  501 -0.00000000000E+00 -0.00000000000E+00 -0.12600008521E+03  0.12600008521E+03  0.00000000000E+00 0.  1.
         25    2    1    2    0    0  0.31074647752E+03 -0.47026281766E+02  0.49732181277E+03  0.60145835933E+03  0.12509327752E+03 0.  0.
          5    1    3    3  502    0  0.25978157429E+03 -0.32731083651E+02  0.30526201714E+03  0.40219418406E+03  0.41800000000E+01 0. -1.
         -5    1    3    3    0  502  0.50964903227E+02 -0.14295198115E+02  0.19205979563E+03  0.19926417527E+03  0.41800000000E+01 0. -1.
        -11    1    1    2    0    0 -0.10927333259E+03  0.56952300060E+02  0.13468365167E+03  0.18254838187E+03  0.00000000000E+00 0.  1.
         11    1    1    2    0    0 -0.20147314493E+03 -0.99260182942E+01  0.15345257386E+03  0.25345146753E+03  0.00000000000E+00 0. -1.
</event>
<event>
 7    1  0.2490079E-009  0.1179469E+03  0.7561462E-02  0.1246523E+00
         -2   -1    0    0    0  501 -0.00000000000E+00  0.00000000000E+00  0.33346422708E+02  0.33346422708E+02  0.00000000000E+00 0. -1.
          2   -1    0    0  501    0  0.00000000000E+00 -0.00000000000E+00 -0.65773895927E+03  0.65773895927E+03  0.00000000000E+00 0.  1.
         25    2    1    2    0    0 -0.10067116744E+03  0.10909533271E+02 -0.32392084231E+03  0.36169660544E+03  0.12508405349E+03 0.  0.
          5    1    3    3  502    0 -0.71037009846E+02 -0.35300374368E+02 -0.28064288873E+03  0.29166809321E+03  0.41800000000E+01 0. -1.
         -5    1    3    3    0  502 -0.29634157592E+02  0.46209907639E+02 -0.43277953577E+02  0.70028512236E+02  0.41800000000E+01 0. -1.
        -11    1    1    2    0    0  0.51156889246E+02 -0.28265521797E+01 -0.25980072982E+03  0.26480452399E+03  0.00000000000E+00 0.  1.
         11    1    1    2    0    0  0.49514278192E+02 -0.80829810917E+01 -0.40670964435E+02  0.64584252540E+02  0.00000000000E+00 0. -1.
</event>
<event>
 7    1  0.2490079E-009  0.1062631E+03  0.7561462E-02  0.1267651E+00
         -2   -1    0    0    0  501 -0.00000000000E+00  0.00000000000E+00  0.47317798816E+02  0.47317798816E+02  0.00000000000E+00 0.  1.
          2   -1    0    0  501    0  0.00000000000E+00 -0.00000000000E+00 -0.29752300587E+03  0.29752300587E+03  0.00000000000E+00 0. -1.
         25    2    1    2    0    0  0.24306968772E+02 -0.11681360261E+02 -0.77496041739E+02  0.14960053291E+03  0.12508956812E+03 0.  0.
          5    1    3    3  502    0 -0.41581084963E+02 -0.31736990701E+02 -0.10678886083E+02  0.53551229803E+02  0.41800000000E+01 0.  1.
         -5    1    3    3    0  502  0.65888053735E+02  0.20055630440E+02 -0.66817155656E+02  0.96049303106E+02  0.41800000000E+01 0.  1.
        -11    1    1    2    0    0  0.32732542222E+02 -0.44990593412E+00 -0.61897641757E+02  0.70020995356E+02  0.00000000000E+00 0.  1.
         11    1    1    2    0    0 -0.57039510993E+02  0.12131266195E+02 -0.11081152356E+03  0.12521927642E+03  0.00000000000E+00 0. -1.
</event>
<event>
 7    1  0.2490079E-009  0.2778159E+03  0.7561462E-02  0.1096888E+00
         -1   -1    0    0    0  501 -0.00000000000E+00  0.00000000000E+00  0.16137931989E+03  0.16137931989E+03  0.00000000000E+00 0.  1.
          1   -1    0    0  501    0  0.00000000000E+00 -0.00000000000E+00 -0.51589689674E+03  0.51589689674E+03  0.00000000000E+00 0. -1.
         25    2    1    2    0    0 -0.26574690579E+03  0.28435745082E+02 -0.17590061056E+03  0.34353770203E+03  0.12508844223E+03 0.  0.
          5    1    3    3  502    0 -0.76549313170E+02 -0.18959806939E+02 -0.11434962053E+03  0.13896970800E+03  0.41800000000E+01 0.  1.
         -5    1    3    3    0  502 -0.18919759262E+03  0.47395552022E+02 -0.61550990028E+02  0.20456799403E+03  0.41800000000E+01 0.  1.
        -11    1    1    2    0    0 -0.28749750139E+01 -0.12116607153E+02 -0.46753072485E+01  0.13301734778E+02  0.00000000000E+00 0.  1.
         11    1    1    2    0    0  0.26862188081E+03 -0.16319137929E+02 -0.17394165904E+03  0.32043677982E+03  0.00000000000E+00 0. -1.
</event>
<event>
 7    1  0.2490079E-009  0.1032657E+03  0.7561462E-02  0.1273575E+00
         -2   -1    0    0    0  501 -0.00000000000E+00  0.00000000000E+00  0.61816172746E+02  0.61816172746E+02  0.00000000000E+00 0.  1.
          2   -1    0    0  501    0  0.00000000000E+00 -0.00000000000E+00 -0.22119555821E+03  0.22119555821E+03  0.00000000000E+00 0. -1.
         25    2    1    2    0    0 -0.22459474508E+02 -0.11116702572E+02 -0.13387793141E+03  0.18492812302E+03  0.12508837314E+03 0.  0.
          5    1    3    3  502    0 -0.68200454032E+02 -0.15525729850E+02 -0.40908678133E+02  0.81137799848E+02  0.41800000000E+01 0. -1.
         -5    1    3    3    0  502  0.45740979524E+02  0.44090272779E+01 -0.92969253272E+02  0.10379032317E+03  0.41800000000E+01 0. -1.
        -11    1    1    2    0    0  0.51322086041E+02 -0.12731929061E+02 -0.16894866667E+00  0.52878039646E+02  0.00000000000E+00 0. -1.
         11    1    1    2    0    0 -0.28862611532E+02  0.23848631634E+02 -0.25332505391E+02  0.45205568292E+02  0.00000000000E+00 0.  1.
</event>
<event>
 7    1  0.2490079E-009  0.2314986E+03  0.7561462E-02  0.1125589E+00
          1   -1    0    0  501    0  0.00000000000E+00  0.00000000000E+00  0.16496474482E+03  0.16496474482E+03  0.00000000000E+00 0. -1.
         -1   -1    0    0    0  501 -0.00000000000E+00 -0.00000000000E+00 -0.35441011210E+03  0.35441011210E+03  0.00000000000E+00 0.  1.
         25    2    1    2    0    0  0.21464781713E+03  0.72523593375E+01 -0.11949706309E+03  0.27577544916E+03  0.12508504369E+03 0.  0.
          5    1    3    3  502    0  0.10560146253E+02 -0.34702498681E+02 -0.20721970831E+01  0.36572482884E+02  0.41800000000E+01 0. -1.
         -5    1    3    3    0  502  0.20408767088E+03  0.41954858018E+02 -0.11742486601E+03  0.23920296627E+03  0.41800000000E+01 0. -1.
        -11    1    1    2    0    0 -0.11187926475E+03 -0.22711598860E+02 -0.79682740827E+02  0.13921970331E+03  0.00000000000E+00 0.  1.
         11    1    1    2    0    0 -0.10276855238E+03  0.15459239523E+02  0.97344366297E+01  0.10437970446E+03  0.00000000000E+00 0. -1.
</event>
<event>
 7    1  0.3025132E-009  0.1338456E+03  0.7561462E-02  0.1221859E+00
         -1   -1    0    0    0  501 -0.00000000000E+00  0.00000000000E+00  0.34612360100E+02  0.34612360100E+02  0.00000000000E+00 0.  1.
          1   -1    0    0  501    0  0.00000000000E+00 -0.00000000000E+00 -0.77074373579E+03  0.77074373579E+03  0.00000000000E+00 0. -1.
         25    2    1    2    0    0  0.78817539312E+02 -0.91195672250E+02 -0.41881636799E+03  0.45341300723E+03  0.12508936761E+03 0.  0.
          5    1    3    3  502    0 -0.50726973767E+01  0.42403699204E+01 -0.20141586112E+03  0.20156769212E+03  0.41800000000E+01 0.  1.
         -5    1    3    3    0  502  0.83890236689E+02 -0.95436042170E+02 -0.21740050688E+03  0.25184531512E+03  0.41800000000E+01 0.  1.
        -11    1    1    2    0    0 -0.60454162031E+02  0.27445086604E+02 -0.72537005277E+02  0.98333898632E+02  0.00000000000E+00 0.  1.
         11    1    1    2    0    0 -0.18363377281E+02  0.63750585646E+02 -0.24477800242E+03  0.25360919002E+03  0.00000000000E+00 0. -1.
</event>
<event>
 7    1  0.2490079E-009  0.1557998E+03  0.7561462E-02  0.1193522E+00
         -2   -1    0    0    0  501 -0.00000000000E+00  0.00000000000E+00  0.27605972244E+02  0.27605972244E+02  0.00000000000E+00 0.  1.
          2   -1    0    0  501    0  0.00000000000E+00 -0.00000000000E+00 -0.93281503921E+03  0.93281503921E+03  0.00000000000E+00 0. -1.
         25    2    1    2    0    0  0.11641403786E+03  0.13096226582E+02 -0.46668095144E+03  0.49715392507E+03  0.12508867021E+03 0.  0.
          5    1    3    3  502    0  0.84379625193E+02 -0.51307450599E+02 -0.28816741981E+03  0.30464784567E+03  0.41800000000E+01 0. -1.
         -5    1    3    3    0  502  0.32034412670E+02  0.64403677180E+02 -0.17851353163E+03  0.19250607940E+03  0.41800000000E+01 0. -1.
        -11    1    1    2    0    0 -0.49863451332E+02  0.32959710641E+02 -0.26693685506E+03  0.27354705426E+03  0.00000000000E+00 0. -1.
         11    1    1    2    0    0 -0.66550586531E+02 -0.46055937223E+02 -0.17159126046E+03  0.18972003212E+03  0.00000000000E+00 0.  1.
</event>
<event>
 7    1  0.2490079E-009  0.1187415E+03  0.7561462E-02  0.1245188E+00
          2   -1    0    0  501    0  0.00000000000E+00  0.00000000000E+00  0.46446354334E+03  0.46446354334E+03  0.00000000000E+00 0. -1.
         -2   -1    0    0    0  501 -0.00000000000E+00 -0.00000000000E+00 -0.33491577564E+02  0.33491577564E+02  0.00000000000E+00 0.  1.
         25    2    1    2    0    0 -0.71828463630E+02  0.12895509734E+02  0.26143564876E+03  0.29886733557E+03  0.12508982160E+03 0.  0.
          5    1    3    3  502    0  0.52830780829E+01 -0.45638114697E+02  0.63541063042E+02  0.78521891977E+02  0.41800000000E+01 0. -1.
         -5    1    3    3    0  502 -0.77111541713E+02  0.58533624431E+02  0.19789458572E+03  0.22034544359E+03  0.41800000000E+01 0. -1.
        -11    1    1    2    0    0  0.10897697409E+02  0.21771549498E+02  0.13065642437E+02  0.27630982405E+02  0.00000000000E+00 0.  1.
         11    1    1    2    0    0  0.60930766221E+02 -0.34667059233E+02  0.15647067458E+03  0.17145680293E+03  0.00000000000E+00 0. -1.
</event>
<event>
 7    1  0.3274641E-009  0.1246354E+03  0.7561462E-02  0.1235640E+00
         -3   -1    0    0    0  501 -0.00000000000E+00  0.00000000000E+00  0.18123228732E+02  0.18123228732E+02  0.00000000000E+00 0.  1.
          3   -1    0    0  501    0  0.00000000000E+00 -0.00000000000E+00 -0.11388354569E+04  0.11388354569E+04  0.00000000000E+00 0. -1.
         25    2    1    2    0    0 -0.72060256583E+01 -0.92959572361E+02 -0.62786297938E+03  0.64695659503E+03  0.12508999189E+03 0.  0.
          5    1    3    3  502    0 -0.43387376835E+02 -0.58194980441E+02 -0.15262810400E+03  0.16906191395E+03  0.41800000000E+01 0. -1.
         -5    1    3    3    0  502  0.36181351177E+02 -0.34764591920E+02 -0.47523487538E+03  0.47789468108E+03  0.41800000000E+01 0. -1.
        -11    1    1    2    0    0 -0.35321894386E+02  0.68706178101E+02 -0.22986632467E+03  0.24250093267E+03  0.00000000000E+00 0.  1.
         11    1    1    2    0    0  0.42527920044E+02  0.24253394260E+02 -0.26298292416E+03  0.26750115797E+03  0.00000000000E+00 0. -1.
</event>
<event>
 7    1  0.2490079E-009  0.2026972E+03  0.7561462E-02  0.1147483E+00
          2   -1    0    0  501    0  0.00000000000E+00  0.00000000000E+00  0.51028901434E+03  0.51028901434E+03  0.00000000000E+00 0. -1.
         -2   -1    0    0    0  501 -0.00000000000E+00 -0.00000000000E+00 -0.88750394488E+02  0.88750394488E+02  0.00000000000E+00 0.  1.
         25    2    1    2    0    0  0.16973537777E+03 -0.45856447462E+02  0.15127086696E+03  0.26352413632E+03  0.12509669456E+03 0.  0.
          5    1    3    3  502    0  0.17751773518E+03 -0.12908161725E+02  0.14317699078E+03  0.22846507399E+03  0.41800000000E+01 0.  1.
         -5    1    3    3    0  502 -0.77823574059E+01 -0.32948285737E+02  0.80938761759E+01  0.35059062328E+02  0.41800000000E+01 0.  1.
        -11    1    1    2    0    0 -0.44582517606E+02  0.51312936973E+02  0.59539898560E+02  0.90363808560E+02  0.00000000000E+00 0.  1.
         11    1    1    2    0    0 -0.12515286017E+03 -0.54564895110E+01  0.21072785434E+03  0.24515146395E+03  0.00000000000E+00 0. -1.
</event>
<event>
 7    1  0.2490079E-009  0.8639218E+02  0.7561462E-02  0.1311831E+00
          2   -1    0    0  501    0  0.00000000000E+00  0.00000000000E+00  0.21904612005E+03  0.21904612005E+03  0.00000000000E+00 0. -1.
         -2   -1    0    0    0  501 -0.00000000000E+00 -0.00000000000E+00 -0.63619116637E+02  0.63619116637E+02  0.00000000000E+00 0.  1.
         25    2    1    2    0    0  0.25669730126E+01  0.14967371718E+02  0.14223714456E+03  0.19002301362E+03  0.12508688519E+03 0.  0.
          5    1    3    3  502    0 -0.23389238907E+02  0.45858049850E+02  0.11196216230E+02  0.52847373544E+02  0.41800000000E+01 0.  1.
         -5    1    3    3    0  502  0.25956211919E+02 -0.30890678132E+02  0.13104092833E+03  0.13717564008E+03  0.41800000000E+01 0.  1.
        -11    1    1    2    0    0  0.14700030345E+02 -0.44222623296E+02 -0.14511134158E+02  0.48808854913E+02  0.00000000000E+00 0.  1.
         11    1    1    2    0    0 -0.17267003358E+02  0.29255251579E+02  0.27700993010E+02  0.43833368153E+02  0.00000000000E+00 0. -1.
</event>
<event>
 7    1  0.2490079E-009  0.1141371E+03  0.7561462E-02  0.1253095E+00
         -1   -1    0    0    0  501 -0.00000000000E+00  0.00000000000E+00  0.89081445782E+02  0.89081445782E+02  0.00000000000E+00 0.  1.
          1   -1    0    0  501    0  0.00000000000E+00 -0.00000000000E+00 -0.17406738520E+03  0.17406738520E+03  0.00000000000E+00 0. -1.
         25    2    1    2    0    0 -0.95867096033E+00 -0.78452685434E+02 -0.41604706881E+01  0.14771048572E+03  0.12508131424E+03 0.  0.
          5    1    3    3  502    0 -0.62691161268E+02 -0.43856452505E+02  0.10520500682E+01  0.76629950651E+02  0.41800000000E+01 0. -1.
         -5    1    3    3    0  502  0.61732490307E+02 -0.34596232929E+02 -0.52125207563E+01  0.71080535065E+02  0.41800000000E+01 0. -1.
        -11    1    1    2    0    0  0.69201132839E+01  0.10667846105E+02 -0.22369001324E+02  0.25730587413E+02  0.00000000000E+00 0. -1.
         11    1    1    2    0    0 -0.59614423236E+01  0.67784839330E+02 -0.58456467404E+02  0.89707757852E+02  0.00000000000E+00 0.  1.
</event>
<event>
 7    1  0.2490079E-009  0.1147196E+03  0.7561462E-02  0.1252071E+00
          2   -1    0    0  501    0  0.00000000000E+00  0.00000000000E+00  0.20916396386E+03  0.20916396386E+03  0.00000000000E+00 0. -1.
         -2   -1    0    0    0  501 -0.00000000000E+00 -0.00000000000E+00 -0.73450852585E+02  0.73450852585E+02  0.00000000000E+00 0.  1.
         25    2    1    2    0    0  0.26983813642E+02 -0.50733588314E+02  0.57902721814E+02  0.14934142364E+03  0.12509241560E+03 0.  0.
          5    1    3    3  502    0  0.72149687064E+02 -0.49183818884E+02  0.18762482228E+02  0.89409890520E+02  0.41800000000E+01 0.  1.
         -5    1    3    3    0  502 -0.45165873422E+02 -0.15497694302E+01  0.39140239586E+02  0.59931533120E+02  0.41800000000E+01 0.  1.
        -11    1    1    2    0    0 -0.14614328519E+02  0.71219801748E+02  0.27809793791E+02  0.77841013546E+02  0.00000000000E+00 0.  1.
         11    1    1    2    0    0 -0.12369485123E+02 -0.20486213434E+02  0.50000595664E+02  0.55432379255E+02  0.00000000000E+00 0. -1.
</event>
<event>
 7    1  0.2490079E-009  0.1402983E+03  0.7561462E-02  0.1212928E+00
          1   -1    0    0  501    0  0.00000000000E+00  0.00000000000E+00  0.20626721917E+03  0.20626721917E+03  0.00000000000E+00 0. -1.
         -1   -1    0    0    0  501 -0.00000000000E+00 -0.00000000000E+00 -0.11009314367E+03  0.11009314367E+03  0.00000000000E+00 0.  1.
         25    2    1    2    0    0  0.52619706546E+02  0.83524663796E+02  0.58524115197E+02  0.16975843729E+03  0.12509057515E+03 0.  0.
          5    1    3    3  502    0  0.80272152766E+02  0.75235828867E+02  0.77785250056E+02  0.13480380551E+03  0.41800000000E+01 0. -1.
         -5    1    3    3    0  502 -0.27652446220E+02  0.82888349299E+01 -0.19261134859E+02  0.34954631775E+02  0.41800000000E+01 0. -1.
        -11    1    1    2    0    0 -0.61546176657E+02 -0.44001141950E+01  0.11304587578E+02  0.62730268343E+02  0.00000000000E+00 0. -1.
         11    1    1    2    0    0  0.89264701111E+01 -0.79124549601E+02  0.26345372723E+02  0.83871657204E+02  0.00000000000E+00 0.  1.
</event>
<event>
 7    1  0.2844837E-009  0.5557798E+02  0.7561462E-02  0.1417385E+00
          2   -1    0    0  501    0  0.00000000000E+00  0.00000000000E+00  0.14080734389E+04  0.14080734389E+04  0.00000000000E+00 0.  1.
         -2   -1    0    0    0  501 -0.00000000000E+00 -0.00000000000E+00 -0.12995134041E+02  0.12995134041E+02  0.00000000000E+00 0. -1.
         25    2    1    2    0    0  0.10129419643E+02  0.25737219560E+02  0.11642940398E+04  0.11713226139E+04  0.12510413697E+03 0.  0.
          5    1    3    3  502    0 -0.65831589809E+01  0.89624474722E+01  0.70206903274E+01  0.13799490553E+02  0.41800000000E+01 0.  1.
         -5    1    3    3    0  502  0.16712578624E+02  0.16774772088E+02  0.11572733495E+04  0.11575231233E+04  0.41800000000E+01 0.  1.
        -11    1    1    2    0    0 -0.33072110014E+02  0.83794835602E+01  0.18538081999E+03  0.18849410767E+03  0.00000000000E+00 0.  1.
         11    1    1    2    0    0  0.22942690372E+02 -0.34116703120E+02  0.45403445066E+02  0.61251851377E+02  0.00000000000E+00 0. -1.
</event>
<event>
 7    1  0.2490079E-009  0.9612549E+02  0.7561462E-02  0.1288661E+00
         -3   -1    0    0    0  501 -0.00000000000E+00  0.00000000000E+00  0.18907002846E+03  0.18907002846E+03  0.00000000000E+00 0.  1.
          3   -1    0    0  501    0  0.00000000000E+00 -0.00000000000E+00 -0.70286613163E+02  0.70286613163E+02  0.00000000000E+00 0. -1.
         25    2    1    2    0    0 -0.42844468479E+02  0.50176639775E+01  0.80953980267E+02  0.15511958909E+03  0.12509082527E+03 0.  0.
          5    1    3    3  502    0  0.24327130287E+02 -0.10626241463E+02 -0.19495320843E+02  0.33200394732E+02  0.41800000000E+01 0. -1.
         -5    1    3    3    0  502 -0.67171598765E+02  0.15643905441E+02  0.10044930111E+03  0.12191919435E+03  0.41800000000E+01 0. -1.
        -11    1    1    2    0    0 -0.12140313239E+02 -0.32584933782E+02  0.20363777525E+02  0.40297004234E+02  0.00000000000E+00 0.  1.
         11    1    1    2    0    0  0.54984781718E+02  0.27567269805E+02  0.17465657506E+02  0.63940048305E+02  0.00000000000E+00 0. -1.
</event>
<event>
 7    1  0.2490079E-009  0.8483139E+02  0.7561462E-02  0.1315874E+00
         -1   -1    0    0    0  501 -0.00000000000E+00  0.00000000000E+00  0.24041446744E+03  0.24041446744E+03  0.00000000000E+00 0.  1.
          1   -1    0    0  501    0  0.00000000000E+00 -0.00000000000E+00 -0.51686783730E+02  0.51686783730E+02  0.00000000000E+00 0. -1.
         25    2    1    2    0    0  0.17507455079E+02  0.36913611997E+01  0.12568655818E+03  0.17822835339E+03  0.12509235754E+03 0.  0.
          5    1    3    3  502    0  0.14168066641E+02 -0.38616479010E+02 -0.41639753214E+01  0.41554514243E+02  0.41800000000E+01 0. -1.
         -5    1    3    3    0  502  0.33393884386E+01  0.42307840210E+02  0.12985053350E+03  0.13667383915E+03  0.41800000000E+01 0. -1.
        -11    1    1    2    0    0 -0.51119211192E+02  0.37168845149E+01  0.12552945643E+02  0.52768981681E+02  0.00000000000E+00 0. -1.
         11    1    1    2    0    0  0.33611756113E+02 -0.74082457146E+01  0.50488179888E+02  0.61103916093E+02  0.00000000000E+00 0.  1.
</event>
<event>
 7    1  0.2490079E-009  0.1201454E+03  0.7561462E-02  0.1242857E+00
          1   -1    0    0  501    0  0.00000000000E+00  0.00000000000E+00  0.18337040874E+03  0.18337040874E+03  0.00000000000E+00 0. -1.
         -1   -1    0    0    0  501 -0.00000000000E+00 -0.00000000000E+00 -0.12209827738E+03  0.12209827738E+03  0.00000000000E+00 0.  1.
         25    2    1    2    0    0 -0.95239915663E+02 -0.16480807381E+02  0.87649384395E+00  0.15807440837E+03  0.12507794287E+03 0.  0.
          5    1    3    3  502    0 -0.10101535078E+03 -0.46309604442E+02  0.30629880439E+02  0.11534445168E+03  0.41800000000E+01 0. -1.
         -5    1    3    3    0  502  0.57754351161E+01  0.29828797061E+02 -0.29753386595E+02  0.42729956690E+02  0.41800000000E+01 0. -1.
        -11    1    1    2    0    0  0.59909344084E+02  0.19388555632E+02  0.83869597885E+02  0.10487685659E+03  0.00000000000E+00 0. -1.
         11    1    1    2    0    0  0.35330571579E+02 -0.29077482511E+01 -0.23473960366E+02  0.42517421174E+02  0.00000000000E+00 0.  1.
</event>
<event>
 7    1  0.2490079E-009  0.1303030E+03  0.7561462E-02  0.1227007E+00
         -2   -1    0    0    0  501 -0.00000000000E+00  0.00000000000E+00  0.22986687518E+03  0.22986687518E+03  0.00000000000E+00 0.  1.
          2   -1    0    0  501    0  0.00000000000E+00 -0.00000000000E+00 -0.10506092618E+03  0.10506092618E+03  0.00000000000E+00 0. -1.
         25    2    1    2    0    0  0.10326121078E+03 -0.10375081808E+02  0.90372461537E+02  0.18596781071E+03  0.12508527029E+03 0.  0.
          5    1    3    3  502    0  0.46881578546E+02 -0.37183038976E+02  0.10571420997E+03  0.12154598876E+03  0.41800000000E+01 0.  1.
         -5    1    3    3    0  502  0.56379632238E+02  0.26807957168E+02 -0.15341748433E+02  0.64421821953E+02  0.41800000000E+01 0.  1.
        -11    1    1    2    0    0 -0.25144916839E+02 -0.38444955000E+02 -0.94886518901E+01  0.46907525223E+02  0.00000000000E+00 0.  1.
         11    1    1    2    0    0 -0.78116293944E+02  0.48820036808E+02  0.43922139357E+02  0.10205246542E+03  0.00000000000E+00 0. -1.
</event>
<event>
 7    1  0.2490079E-009  0.1065487E+03  0.7561462E-02  0.1267098E+00
         -3   -1    0    0    0  501 -0.00000000000E+00  0.00000000000E+00  0.60648284496E+02  0.60648284496E+02  0.00000000000E+00 0.  1.
          3   -1    0    0  501    0  0.00000000000E+00 -0.00000000000E+00 -0.29150616915E+03  0.29150616915E+03  0.00000000000E+00 0. -1.
         25    2    1    2    0    0 -0.41378209176E+02  0.42877128634E+02 -0.19431512156E+03  0.23865346072E+03  0.12508598439E+03 0.  0.
          5    1    3    3  502    0 -0.61077632892E+02  0.30645649109E+01 -0.29726579089E+02  0.68124963869E+02  0.41800000000E+01 0. -1.
         -5    1    3    3    0  502  0.19699423716E+02  0.39812563723E+02 -0.16458854247E+03  0.17052849685E+03  0.41800000000E+01 0. -1.
        -11    1    1    2    0    0  0.50222369019E+01  0.27508768725E+02 -0.60236019993E+01  0.28604877230E+02  0.00000000000E+00 0. -1.
         11    1    1    2    0    0  0.36355972275E+02 -0.70385897359E+02 -0.30519161098E+02  0.84896115702E+02  0.00000000000E+00 0.  1.
</event>
<event>
 7    1  0.2490079E-009  0.1002867E+03  0.7561462E-02  0.1279694E+00
          2   -1    0    0  501    0  0.00000000000E+00  0.00000000000E+00  0.39176782215E+03  0.39176782215E+03  0.00000000000E+00 0. -1.
         -2   -1    0    0    0  501 -0.00000000000E+00 -0.00000000000E+00 -0.49736249299E+02  0.49736249299E+02  0.00000000000E+00 0.  1.
         25    2    1    2    0    0 -0.41645709202E+02 -0.74928428004E+02  0.16777169530E+03  0.22614969634E+03  0.12509080298E+03 0.  0.
          5    1    3    3  502    0 -0.36660412232E+02 -0.82484430087E+02  0.18520133179E+03  0.20606958225E+03  0.41800000000E+01 0. -1.
         -5    1    3    3    0  502 -0.49852969699E+01  0.75560020832E+01 -0.17429636492E+02  0.20080114084E+02  0.41800000000E+01 0. -1.
        -11    1    1    2    0    0 -0.12079533054E+02  0.20292651366E+02  0.11787934328E+03  0.12022165524E+03  0.00000000000E+00 0. -1.
         11    1    1    2    0    0  0.53725242256E+02  0.54635776638E+02  0.56380534271E+02  0.95132719866E+02  0.00000000000E+00 0.  1.
</event>
<event>
 7    1  0.2490079E-009  0.1266732E+03  0.7561462E-02  0.1232477E+00
          1   -1    0    0  501    0  0.00000000000E+00  0.00000000000E+00  0.79444920769E+02  0.79444920769E+02  0.00000000000E+00 0. -1.
         -1   -1    0    0    0  501 -0.00000000000E+00 -0.00000000000E+00 -0.48668010928E+03  0.48668010928E+03  0.00000000000E+00 0.  1.
         25    2    1    2    0    0 -0.49744904625E+02 -0.80518216668E+02 -0.40538372427E+03  0.43467404360E+03  0.12509125279E+03 0.  0.
          5    1    3    3  502    0  0.39587369313E+01 -0.95765975347E+02 -0.30502574261E+03  0.31975767338E+03  0.41800000000E+01 0. -1.
         -5    1    3    3    0  502 -0.53703641556E+02  0.15247758680E+02 -0.10035798167E+03  0.11491637022E+03  0.41800000000E+01 0. -1.
        -11    1    1    2    0    0  0.29354014698E+02  0.74638441255E+02 -0.38604973600E+02  0.89010668341E+02  0.00000000000E+00 0.  1.
         11    1    1    2    0    0  0.20390889927E+02  0.58797754129E+01  0.36753509359E+02  0.42440318108E+02  0.00000000000E+00 0. -1.
</event>
<event>
 7    1  0.2490079E-009  0.1149242E+03  0.7561462E-02  0.1251713E+00
          2   -1    0    0  501    0  0.00000000000E+00  0.00000000000E+00  0.37630624968E+03  0.37630624968E+03  0.00000000000E+00 0. -1.
         -2   -1    0    0    0  501 -0.00000000000E+00 -0.00000000000E+00 -0.60068893940E+02  0.60068893940E+02  0.00000000000E+00 0.  1.
         25    2    1    2    0    0 -0.89230542237E+02 -0.27290403728E+02  0.10461344371E+03  0.18788205903E+03  0.12509532243E+03 0.  0.
          5    1    3    3  502    0 -0.33638973222E+01  0.10495785575E+02  0.92441964792E+02  0.93190485429E+02  0.41800000000E+01 0. -1.
         -5    1    3    3    0  502 -0.85866644915E+02 -0.37786189303E+02  0.12171478920E+02  0.94691573596E+02  0.41800000000E+01 0. -1.
        -11    1    1    2    0    0 -0.65455581954E+01 -0.17307694219E+02  0.10416562055E+02  0.21234532637E+02  0.00000000000E+00 0.  1.
         11    1    1    2    0    0  0.95776100432E+02  0.44598097947E+02  0.20120734997E+03  0.22725855195E+03  0.00000000000E+00 0. -1.
</event>
<event>
 7    1  0.2490079E-009  0.1048029E+03  0.7561462E-02  0.1270508E+00
         -1   -1    0    0    0  501 -0.00000000000E+00  0.00000000000E+00  0.73141583995E+02  0.73141583995E+02  0.00000000000E+00 0.  1.
          1   -1    0    0  501    0  0.00000000000E+00 -0.00000000000E+00 -0.21797537915E+03  0.21797537915E+03  0.00000000000E+00 0. -1.
         25    2    1    2    0    0 -0.53448106479E+02  0.26092032374E+02 -0.55571744045E+02  0.14924089661E+03  0.12508849766E+03 0.  0.
          5    1    3    3  502    0 -0.33655887541E+02  0.54927904500E+02  0.18557363769E+02  0.67168754708E+02  0.41800000000E+01 0.  1.
         -5    1    3    3    0  502 -0.19792218938E+02 -0.28835872127E+02 -0.74129107813E+02  0.82072141906E+02  0.41800000000E+01 0.  1.
        -11    1    1    2    0    0 -0.26375526417E+00  0.31254419784E+02 -0.19778320448E+02  0.36987704479E+02  0.00000000000E+00 0.  1.
         11    1    1    2    0    0  0.53711861743E+02 -0.57346452158E+02 -0.69483730661E+02  0.10488836205E+03  0.00000000000E+00 0. -1.
</event>
<event>
 7    1  0.2490079E-009  0.1268481E+03  0.7561462E-02  0.1232209E+00
         -1   -1    0    0    0  501 -0.00000000000E+00  0.00000000000E+00  0.38144678241E+02  0.38144678241E+02  0.00000000000E+00 0.  1.
          1   -1    0    0  501    0  0.00000000000E+00 -0.00000000000E+00 -0.42634042992E+03  0.42634042992E+03  0.00000000000E+00 0. -1.
         25    2    1    2    0    0 -0.70741439107E+02  0.54447834617E+01 -0.24092424100E+03  0.28058159560E+03  0.12509014753E+03 0.  0.
          5    1    3    3  502    0 -0.12770493633E+02 -0.56859049163E+02 -0.10496547517E+03  0.12013018088E+03  0.41800000000E+01 0.  1.
         -5    1    3    3    0  502 -0.57970945474E+02  0.62303832625E+02 -0.13595876583E+03  0.16045141472E+03  0.41800000000E+01 0.  1.
        -11    1    1    2    0    0  0.86496886499E+02  0.11115740113E+02 -0.11942408483E+03  0.14787624248E+03  0.00000000000E+00 0.  1.
         11    1    1    2    0    0 -0.15755447392E+02 -0.16560523574E+02 -0.27847425844E+02  0.36027270084E+02  0.00000000000E+00 0. -1.
</event>
<event>
 7    1  0.2490079E-009  0.8981400E+02  0.7561462E-02  0.1303303E+00
          2   -1    0    0  501    0  0.00000000000E+00  0.00000000000E+00  0.30124933097E+03  0.30124933097E+03  0.00000000000E+00 0. -1.
         -2   -1    0    0    0  501 -0.00000000000E+00 -0.00000000000E+00 -0.40727323530E+02  0.40727323530E+02  0.00000000000E+00 0.  1.
         25    2    1    2    0    0  0.11033121102E+02  0.13189467057E+02  0.11921270129E+03  0.17365602003E+03  0.12509617636E+03 0.  0.
          5    1    3    3  502    0  0.12805578100E+02  0.59743807003E+02  0.11012073124E+03  0.12600536955E+03  0.41800000000E+01 0.  1.
         -5    1    3    3    0  502 -0.17724569981E+01 -0.46554339946E+02  0.90919700541E+01  0.47650650479E+02  0.41800000000E+01 0.  1.
        -11    1    1    2    0    0 -0.18535279015E+02 -0.39830475576E+02  0.28974437657E+02  0.52626432430E+02  0.00000000000E+00 0.  1.
         11    1    1    2    0    0  0.75021579131E+01  0.26641008519E+02  0.11233486849E+03  0.11569420205E+03  0.00000000000E+00 0. -1.
</event>
<event>
 7    1  0.2490079E-009  0.1078154E+03  0.7561462E-02  0.1264670E+00
          3   -1    0    0  501    0  0.00000000000E+00  0.00000000000E+00  0.21175473366E+03  0.21175473366E+03  0.00000000000E+00 0. -1.
         -3   -1    0    0    0  501 -0.00000000000E+00 -0.00000000000E+00 -0.11060831574E+03  0.11060831574E+03  0.00000000000E+00 0.  1.
         25    2    1    2    0    0 -0.51073142281E+02  0.94372646582E+02  0.60414535872E+02  0.17553316955E+03  0.12508922888E+03 0.  0.
          5    1    3    3  502    0 -0.36205127428E+02  0.68604044799E+02  0.99501112398E+02  0.12623497924E+03  0.41800000000E+01 0.  1.
         -5    1    3    3    0  502 -0.14868014853E+02  0.25768601784E+02 -0.39086576525E+02  0.49298190312E+02  0.41800000000E+01 0.  1.
        -11    1    1    2    0    0  0.35494193551E+02 -0.75538178446E+02  0.69834749823E+02  0.10882438358E+03  0.00000000000E+00 0. -1.
         11    1    1    2    0    0  0.15578948731E+02 -0.18834468137E+02 -0.29102867774E+02  0.38005496263E+02  0.00000000000E+00 0.  1.
</event>
<event>
 7    1  0.2490079E-009  0.1049026E+03  0.7561462E-02  0.1270312E+00
          2   -1    0    0  501    0  0.00000000000E+00  0.00000000000E+00  0.55237087604E+03  0.55237087604E+03  0.00000000000E+00 0. -1.
         -2   -1    0    0    0  501 -0.00000000000E+00 -0.00000000000E+00 -0.24424357039E+02  0.24424357039E+02  0.00000000000E+00 0.  1.
         25    2    1    2    0    0  0.14870778830E+02  0.38434460205E+02  0.33133324811E+03  0.35654904848E+03  0.12508858810E+03 0.  0.
          5    1    3    3  502    0  0.11855063907E+02  0.76151464446E+02  0.29111092691E+03  0.30116877701E+03  0.41800000000E+01 0.  1.
         -5    1    3    3    0  502  0.30157149233E+01 -0.37717004240E+02  0.40222321194E+02  0.55380271466E+02  0.41800000000E+01 0.  1.
        -11    1    1    2    0    0  0.21157037435E+02 -0.51936742190E+02  0.14787238294E+03  0.15814957180E+03  0.00000000000E+00 0.  1.
         11    1    1    2    0    0 -0.36027816265E+02  0.13502281985E+02  0.48740887946E+02  0.62096612801E+02  0.00000000000E+00 0. -1.
</event>
<event>
 7    1  0.2490079E-009  0.1095828E+03  0.7561462E-02  0.1261344E+00
          1   -1    0    0  501    0  0.00000000000E+00  0.00000000000E+00  0.77174351521E+03  0.77174351521E+03  0.00000000000E+00 0. -1.
         -1   -1    0    0    0  501 -0.00000000000E+00 -0.00000000000E+00 -0.26873079819E+02  0.26873079819E+02  0.00000000000E+00 0.  1.
         25    2    1    2    0    0  0.83451676430E+02  0.33692685779E+02  0.51145513946E+03  0.53416619065E+03  0.12509108757E+03 0.  0.
          5    1    3    3  502    0  0.99132005495E+02  0.22659004263E+02  0.50230911111E+03  0.51251585389E+03  0.41800000000E+01 0.  1.
         -5    1    3    3    0  502 -0.15680329065E+02  0.11033681516E+02  0.91460283455E+01  0.21650336761E+02  0.41800000000E+01 0.  1.
        -11    1    1    2    0    0 -0.33412716232E+02  0.59373873381E+01  0.17389146483E+03  0.17717196086E+03  0.00000000000E+00 0. -1.
         11    1    1    2    0    0 -0.50038960198E+02 -0.39630073117E+02  0.59523831107E+02  0.87278443516E+02  0.00000000000E+00 0.  1.
</event>
<event>
 7    1  0.2490079E-009  0.1323266E+03  0.7561462E-02  0.1224044E+00
         -1   -1    0    0    0  501 -0.00000000000E+00  0.00000000000E+00  0.41009490812E+03  0.41009490812E+03  0.00000000000E+00 0.  1.
          1   -1    0    0  501    0  0.00000000000E+00 -0.00000000000E+00 -0.75810540396E+02  0.75810540396E+02  0.00000000000E+00 0. -1.
         25    2    1    2    0    0 -0.37167274874E+02  0.12438253624E+03  0.11249874011E+03  0.21250076301E+03  0.12509271006E+03 0.  0.
          5    1    3    3  502    0 -0.25879115448E+02  0.11550951248E+03  0.21624833679E+02  0.12040465905E+03  0.41800000000E+01 0. -1.
         -5    1    3    3    0  502 -0.11288159426E+02  0.88730237592E+01  0.90873906431E+02  0.92096103956E+02  0.41800000000E+01 0. -1.
        -11    1    1    2    0    0  0.17945158798E+02 -0.30210109183E+02  0.14832964743E+03  0.15243478517E+03  0.00000000000E+00 0.  1.
         11    1    1    2    0    0  0.19222116077E+02 -0.94172427056E+02  0.73455980181E+02  0.12096990034E+03  0.00000000000E+00 0. -1.
</event>
<event>
 7    1  0.2490079E-009  0.1925167E+03  0.7561462E-02  0.1156211E+00
         -1   -1    0    0    0  501 -0.00000000000E+00  0.00000000000E+00  0.32504701754E+03  0.32504701754E+03  0.00000000000E+00 0.  1.
          1   -1    0    0  501    0  0.00000000000E+00 -0.00000000000E+00 -0.12658714052E+03  0.12658714052E+03  0.00000000000E+00 0. -1.
         25    2    1    2    0    0 -0.61556357122E+02 -0.16254143764E+03  0.85915808083E+02  0.23073311018E+03  0.12508932010E+03 0.  0.
          5    1    3    3  502    0 -0.22948171670E+02  0.54921410058E+01 -0.17470418889E+02  0.29655861680E+02  0.41800000000E+01 0. -1.
         -5    1    3    3    0  502 -0.38608185451E+02 -0.16803357865E+03  0.10338622697E+03  0.20107724850E+03  0.41800000000E+01 0. -1.
        -11    1    1    2    0    0  0.78304598282E+02  0.14141692878E+03  0.86147411806E+02  0.18317132531E+03  0.00000000000E+00 0.  1.
         11    1    1    2    0    0 -0.16748241161E+02  0.21124508866E+02  0.26396657128E+02  0.37729722559E+02  0.00000000000E+00 0. -1.
</event>
<event>
 7    1  0.2490079E-009  0.1943684E+03  0.7561462E-02  0.1154579E+00
         -2   -1    0    0    0  501 -0.00000000000E+00  0.00000000000E+00  0.78168129448E+02  0.78168129448E+02  0.00000000000E+00 0.  1.
          2   -1    0    0  501    0  0.00000000000E+00 -0.00000000000E+00 -0.56980942202E+03  0.56980942202E+03  0.00000000000E+00 0. -1.
         25    2    1    2    0    0  0.16733016148E+03 -0.65257100125E+02 -0.24148212083E+03  0.32591313461E+03  0.12509150480E+03 0.  0.
          5    1    3    3  502    0  0.13962370258E+03 -0.94484144573E+02 -0.14930853977E+03  0.22523886064E+03  0.41800000000E+01 0. -1.
         -5    1    3    3    0  502  0.27706458901E+02  0.29227044448E+02 -0.92173581068E+02  0.10067427397E+03  0.41800000000E+01 0. -1.
        -11    1    1    2    0    0 -0.66918758801E+02  0.26651899341E+02 -0.17935208479E+03  0.19327600559E+03  0.00000000000E+00 0. -1.
         11    1    1    2    0    0 -0.10041140268E+03  0.38605200783E+02 -0.70807086948E+02  0.12878841127E+03  0.00000000000E+00 0.  1.
</event>
<event>
 7    1  0.2490079E-009  0.1032621E+03  0.7561462E-02  0.1273582E+00
         -3   -1    0    0    0  501 -0.00000000000E+00  0.00000000000E+00  0.15235386240E+03  0.15235386240E+03  0.00000000000E+00 0.  1.
          3   -1    0    0  501    0  0.00000000000E+00 -0.00000000000E+00 -0.83883180761E+02  0.83883180761E+02  0.00000000000E+00 0. -1.
         25    2    1    2    0    0  0.73646521409E+01  0.10386031873E+02  0.12971455617E+02  0.12640499691E+03  0.12509139388E+03 0.  0.
          5    1    3    3  502    0 -0.13986333797E+02 -0.47636384232E+02 -0.22867777718E+02  0.54820163202E+02  0.41800000000E+01 0.  1.
         -5    1    3    3    0  502  0.21350985938E+02  0.58022416104E+02  0.35839233335E+02  0.71584833709E+02  0.41800000000E+01 0.  1.
        -11    1    1    2    0    0 -0.11067595311E+02 -0.51894114160E+02  0.29419187485E+02  0.60671075008E+02  0.00000000000E+00 0.  1.
         11    1    1    2    0    0  0.37029431700E+01  0.41508082287E+02  0.26080038535E+02  0.49160971240E+02  0.00000000000E+00 0. -1.
</event>
<event>
 7    1  0.2490079E-009  0.1132918E+03  0.7561462E-02  0.1254593E+00
         -1   -1    0    0    0  501 -0.00000000000E+00  0.00000000000E+00  0.82390826728E+03  0.82390826728E+03  0.00000000000E+00 0.  1.
          1   -1    0    0  501    0  0.00000000000E+00 -0.00000000000E+00 -0.21490883513E+02  0.21490883513E+02  0.00000000000E+00 0. -1.
         25    2    1    2    0    0  0.31050232446E+02 -0.63068653268E+02  0.54225032019E+03  0.56091409178E+03  0.12508971444E+03 0.  0.
          5    1    3    3  502    0  0.19218498538E+02  0.26628023326E+02  0.47228365528E+02  0.57674892481E+02  0.41800000000E+01 0.  1.
         -5    1    3    3    0  502  0.11831733908E+02 -0.89696676594E+02  0.49502195466E+03  0.50323919930E+03  0.41800000000E+01 0.  1.
        -11    1    1    2    0    0  0.24850984102E+02  0.13974152616E+02  0.25305216249E+02  0.38120890881E+02  0.00000000000E+00 0.  1.
         11    1    1    2    0    0 -0.55901216548E+02  0.49094500652E+02  0.23486184733E+03  0.24636416812E+03  0.00000000000E+00 0. -1.
</event>
<event>
 7    1  0.2490079E-009  0.1011760E+03  0.7561462E-02  0.1277842E+00
          2   -1    0    0  501    0  0.00000000000E+00  0.00000000000E+00  0.63742637478E+02  0.63742637478E+02  0.00000000000E+00 0. -1.
         -2   -1    0    0    0  501 -0.00000000000E+00 -0.00000000000E+00 -0.21246621453E+03  0.21246621453E+03  0.00000000000E+00 0.  1.
         25    2    1    2    0    0  0.30714886394E+02 -0.19437358436E+02 -0.47199086715E+02  0.13855292158E+03  0.12509173890E+03 0.  0.
          5    1    3    3  502    0  0.76709272227E+01 -0.68768705328E+02 -0.49294162342E+01  0.69496399197E+02  0.41800000000E+01 0. -1.
         -5    1    3    3    0  502  0.23043959171E+02  0.49331346892E+02 -0.42269670480E+02  0.69056522378E+02  0.41800000000E+01 0. -1.
        -11    1    1    2    0    0  0.44537114131E+01 -0.22930942540E+02 -0.70901887143E+02  0.74650795518E+02  0.00000000000E+00 0. -1.
         11    1    1    2    0    0 -0.35168597807E+02  0.42368300976E+02 -0.30622603196E+02  0.63005134917E+02  0.00000000000E+00 0.  1.
</event>
<event>
 7    1  0.2490079E-009  0.1070776E+03  0.7561462E-02  0.1266079E+00
          1   -1    0    0  501    0  0.00000000000E+00  0.00000000000E+00  0.47692832136E+03  0.47692832136E+03  0.00000000000E+00 0. -1.
         -1   -1    0    0    0  501 -0.00000000000E+00 -0.00000000000E+00 -0.27540599732E+02  0.27540599732E+02  0.00000000000E+00 0.  1.
         25    2    1    2    0    0 -0.10606997885E+02  0.25521446157E+02  0.21662146605E+03  0.25166407036E+03  0.12508434010E+03 0.  0.
          5    1    3    3  502    0  0.11673269772E+02 -0.47371714784E+02  0.60127402532E+02  0.77544319741E+02  0.41800000000E+01 0.  1.
         -5    1    3    3    0  502 -0.22280267657E+02  0.72893160941E+02  0.15649406352E+03  0.17411975062E+03  0.41800000000E+01 0.  1.
        -11    1    1    2    0    0 -0.11883248374E+01 -0.56081261186E+02  0.19452809565E+03  0.20245419227E+03  0.00000000000E+00 0. -1.
         11    1    1    2    0    0  0.11795322722E+02  0.30559815029E+02  0.38238159929E+02  0.50350658461E+02  0.00000000000E+00 0.  1.
</event>
<event>
 7    1  0.2490079E-009  0.2811711E+03  0.7561462E-02  0.1095051E+00
         -2   -1    0    0    0  501 -0.00000000000E+00  0.00000000000E+00  0.16941280688E+03  0.16941280688E+03  0.00000000000E+00 0.  1.
          2   -1    0    0  501    0  0.00000000000E+00 -0.00000000000E+00 -0.59165412067E+03  0.59165412067E+03  0.00000000000E+00 0. -1.
         25    2    1    2    0    0  0.14046996415E+02  0.27092886082E+03 -0.68587865931E+02  0.30651867141E+03  0.12509850055E+03 0.  0.
          5    1    3    3  502    0 -0.20571790778E+02  0.31084508741E+02 -0.51282215590E+02  0.63535685212E+02  0.41800000000E+01 0.  1.
         -5    1    3    3    0  502  0.34618787193E+02  0.23984435208E+03 -0.17305650340E+02  0.24298298620E+03  0.41800000000E+01 0.  1.
        -11    1    1    2    0    0  0.30183403614E+02 -0.16395521540E+03 -0.24084919088E+03  0.29291753661E+03  0.00000000000E+00 0.  1.
         11    1    1    2    0    0 -0.44230400029E+02 -0.10697364542E+03 -0.11280425698E+03  0.16163071952E+03  0.00000000000E+00 0. -1.
</event>
<event>
 7    1  0.2490079E-009  0.1385396E+03  0.7561462E-02  0.1215308E+00
         -2   -1    0    0    0  501 -0.00000000000E+00  0.00000000000E+00  0.70938785950E+02  0.70938785950E+02  0.00000000000E+00 0. -1.
          2   -1    0    0  501    0  0.00000000000E+00 -0.00000000000E+00 -0.44690422835E+03  0.44690422835E+03  0.00000000000E+00 0.  1.
         25    2    1    2    0    0 -0.83220252004E+02 -0.51659410980E+02 -0.51777413545E+02  0.16710004634E+03  0.12508884782E+03 0.  0.
          5    1    3    3  502    0 -0.56613037840E+02 -0.87733627638E+02 -0.61207363353E+02  0.12110342357E+03  0.41800000000E+01 0.  1.
         -5    1    3    3    0  502 -0.26607214165E+02  0.36074216657E+02  0.94299498078E+01  0.45996622772E+02  0.41800000000E+01 0.  1.
        -11    1    1    2    0    0 -0.15688028586E+01  0.42220304156E+02 -0.16280480002E+03  0.16819755686E+03  0.00000000000E+00 0.  1.
         11    1    1    2    0    0  0.84789054863E+02  0.94391068247E+01 -0.16138322884E+03  0.18254541110E+03  0.00000000000E+00 0. -1.
</event>
<event>
 7    1  0.2490079E-009  0.1356180E+03  0.7561462E-02  0.1219350E+00
         -2   -1    0    0    0  501 -0.00000000000E+00  0.00000000000E+00  0.61314892319E+02  0.61314892319E+02  0.00000000000E+00 0.  1.
          2   -1    0    0  501    0  0.00000000000E+00 -0.00000000000E+00 -0.30917014337E+03  0.30917014337E+03  0.00000000000E+00 0. -1.
         25    2    1    2    0    0  0.74001564494E+02  0.37384838549E+02 -0.15662567926E+03  0.21690553775E+03  0.12507018509E+03 0.  0.
          5    1    3    3  502    0  0.59190752506E+02 -0.38236936450E+02 -0.93795533063E+02  0.11739115347E+03  0.41800000000E+01 0. -1.
         -5    1    3    3    0  502  0.14810811988E+02  0.75621774999E+02 -0.62830146200E+02  0.99514384273E+02  0.41800000000E+01 0. -1.
        -11    1    1    2    0    0 -0.93903639853E+02 -0.42272345132E+02 -0.78024669903E+02  0.12920020841E+03  0.00000000000E+00 0. -1.
         11    1    1    2    0    0  0.19902075359E+02  0.48875065827E+01 -0.13204901888E+02  0.24379289532E+02  0.00000000000E+00 0.  1.
</event>
<event>
 7    1  0.2490079E-009  0.1565142E+03  0.7561462E-02  0.1192689E+00
         -4   -1    0    0    0  501 -0.00000000000E+00  0.00000000000E+00  0.37856524569E+02  0.37856524569E+02  0.00000000000E+00 0.  1.
          4   -1    0    0  501    0  0.00000000000E+00 -0.00000000000E+00 -0.81925881690E+03  0.81925881690E+03  0.00000000000E+00 0. -1.
         25    2    1    2    0    0 -0.13557856441E+03 -0.12070193004E+02 -0.34091744862E+03  0.38781874954E+03  0.12510571143E+03 0.  0.
          5    1    3    3  502    0 -0.14664705312E+03 -0.62602383354E+01 -0.34421871264E+03  0.37423060177E+03  0.41800000000E+01 0.  1.
         -5    1    3    3    0  502  0.11068488705E+02 -0.58099546688E+01  0.33012640238E+01  0.13588147763E+02  0.41800000000E+01 0.  1.
        -11    1    1    2    0    0  0.36685096115E+02  0.35851653747E+02 -0.82532469642E+02  0.97173792242E+02  0.00000000000E+00 0.  1.
         11    1    1    2    0    0  0.98893468296E+02 -0.23781460743E+02 -0.35795237407E+03  0.37212279969E+03  0.00000000000E+00 0. -1.
</event>
<event>
 7    1  0.2490079E-009  0.1007318E+03  0.7561462E-02  0.1278765E+00
          2   -1    0    0  501    0  0.00000000000E+00  0.00000000000E+00  0.60921163079E+03  0.60921163079E+03  0.00000000000E+00 0. -1.
         -2   -1    0    0    0  501 -0.00000000000E+00 -0.00000000000E+00 -0.25080494955E+02  0.25080494955E+02  0.00000000000E+00 0.  1.
         25    2    1    2    0    0  0.13404301436E+02 -0.54387105068E+02  0.46481363992E+03  0.48460288553E+03  0.12510237533E+03 0.  0.
          5    1    3    3  502    0 -0.59394116863E+01 -0.83058916074E+02  0.18868468586E+03  0.20628485943E+03  0.41800000000E+01 0. -1.
         -5    1    3    3    0  502  0.19343713123E+02  0.28671811006E+02  0.27612895406E+03  0.27831802610E+03  0.41800000000E+01 0. -1.
        -11    1    1    2    0    0 -0.37210783428E+02  0.42982693511E+02  0.50721336206E+02  0.76189292498E+02  0.00000000000E+00 0.  1.
         11    1    1    2    0    0  0.23806481991E+02  0.11404411556E+02  0.68596159705E+02  0.73499947714E+02  0.00000000000E+00 0. -1.
</event>
<event>
 7    1  0.2490079E-009  0.7752706E+02  0.7561462E-02  0.1336219E+00
         -1   -1    0    0    0  501 -0.00000000000E+00  0.00000000000E+00  0.15018919113E+03  0.15018919113E+03  0.00000000000E+00 0.  1.
          1   -1    0    0  501    0  0.00000000000E+00 -0.00000000000E+00 -0.10622770357E+03  0.10622770357E+03  0.00000000000E+00 0. -1.
         25    2    1    2    0    0 -0.43573339762E+02  0.29343828955E+02 -0.11537200822E+02  0.13616257141E+03  0.12508973824E+03 0.  0.
          5    1    3    3  502    0 -0.67970688129E+02  0.24295984088E+02  0.37166806037E+02  0.81296698325E+02  0.41800000000E+01 0.  1.
         -5    1    3    3    0  502  0.24397348367E+02  0.50478448675E+01 -0.48704006859E+02  0.54865873084E+02  0.41800000000E+01 0.  1.
        -11    1    1    2    0    0  0.39703496996E+01 -0.14761346541E+02  0.72987986848E+02  0.74571490883E+02  0.00000000000E+00 0.  1.
         11    1    1    2    0    0  0.39602990063E+02 -0.14582482414E+02 -0.17489298467E+02  0.45682832401E+02  0.00000000000E+00 0. -1.
</event>
<event>
 7    1  0.2490079E-009  0.9572790E+02  0.7561462E-02  0.1289545E+00
         -1   -1    0    0    0  501 -0.00000000000E+00  0.00000000000E+00  0.43664015935E+03  0.43664015935E+03  0.00000000000E+00 0.  1.
          1   -1    0    0  501    0  0.00000000000E+00 -0.00000000000E+00 -0.34578509108E+02  0.34578509108E+02  0.00000000000E+00 0. -1.
         25    2    1    2    0    0 -0.43004399584E+02  0.35402340984E+02  0.24576415040E+03  0.28133671125E+03  0.12509046065E+03 0.  0.
          5    1    3    3  502    0  0.16191390105E+02  0.44654510527E+02  0.20060213832E+03  0.20619135948E+03  0.41800000000E+01 0.  1.
         -5    1    3    3    0  502 -0.59195789689E+02 -0.92521695426E+01  0.45162012073E+02  0.75145351770E+02  0.41800000000E+01 0.  1.
        -11    1    1    2    0    0  0.34367878156E+02  0.11331396223E+02  0.13127604829E+03  0.13617250986E+03  0.00000000000E+00 0.  1.
         11    1    1    2    0    0  0.86365214275E+01 -0.46733737208E+02  0.25021451560E+02  0.53709447343E+02  0.00000000000E+00 0. -1.
</event>
<event>
 7    1  0.2490079E-009  0.1299906E+03  0.7561462E-02  0.1227470E+00
         -2   -1    0    0    0  501 -0.00000000000E+00  0.00000000000E+00  0.26717024326E+02  0.26717024326E+02  0.00000000000E+00 0.  1.
          2   -1    0    0  501    0  0.00000000000E+00 -0.00000000000E+00 -0.65259920912E+03  0.65259920912E+03  0.00000000000E+00 0. -1.
         25    2    1    2    0    0  0.41773935443E+02  0.58407959126E+02 -0.39561940414E+03  0.42109375389E+03  0.12509470517E+03 0.  0.
          5    1    3    3  502    0  0.52871686812E+02  0.93155415491E+02 -0.28183272022E+03  0.30153026596E+03  0.41800000000E+01 0. -1.
         -5    1    3    3    0  502 -0.11097751368E+02 -0.34747456365E+02 -0.11378668392E+03  0.11956348793E+03  0.41800000000E+01 0. -1.
        -11    1    1    2    0    0 -0.66562042699E+02 -0.18490250138E+02 -0.12197275190E+03  0.14017755557E+03  0.00000000000E+00 0.  1.
         11    1    1    2    0    0  0.24788107256E+02 -0.39917708988E+02 -0.10829002876E+03  0.11804492399E+03  0.00000000000E+00 0. -1.
</event>
<event>
 7    1  0.2490079E-009  0.1198419E+03  0.7561462E-02  0.1243358E+00
         -2   -1    0    0    0  501 -0.00000000000E+00  0.00000000000E+00  0.32267864874E+03  0.32267864874E+03  0.00000000000E+00 0.  1.
          2   -1    0    0  501    0  0.00000000000E+00 -0.00000000000E+00 -0.44700461297E+02  0.44700461297E+02  0.00000000000E+00 0. -1.
         25    2    1    2    0    0 -0.53644930780E+02  0.12567174973E+02  0.16315732123E+03  0.21284590780E+03  0.12508939409E+03 0.  0.
          5    1    3    3  502    0  0.16679598249E+01 -0.51616540208E+02  0.59340405354E+02  0.78776934573E+02  0.41800000000E+01 0.  1.
         -5    1    3    3    0  502 -0.55312890605E+02  0.64183715181E+02  0.10381691587E+03  0.13406897323E+03  0.41800000000E+01 0.  1.
        -11    1    1    2    0    0 -0.18926282319E+02  0.16260251158E+02  0.33744745683E+02  0.41967937659E+02  0.00000000000E+00 0.  1.
         11    1    1    2    0    0  0.72571213099E+02 -0.28827426131E+02  0.81076120531E+02  0.11256526457E+03  0.00000000000E+00 0. -1.
</event>
<event>
 7    1  0.2490079E-009  0.1437019E+03  0.7561462E-02  0.1208433E+00
         -1   -1    0    0    0  501 -0.00000000000E+00  0.00000000000E+00  0.34442167231E+03  0.34442167231E+03  0.00000000000E+00 0.  1.
          1   -1    0    0  501    0  0.00000000000E+00 -0.00000000000E+00 -0.78561313589E+02  0.78561313589E+02  0.00000000000E+00 0. -1.
         25    2    1    2    0    0 -0.59039399513E+02 -0.78459139507E+02  0.21832290929E+03  0.27009968761E+03  0.12508981277E+03 0.  0.
          5    1    3    3  502    0  0.17845281743E+02 -0.75168005349E+02  0.77163120078E+02  0.10927169171E+03  0.41800000000E+01 0. -1.
         -5    1    3    3    0  502 -0.76884681256E+02 -0.32911341587E+01  0.14115978921E+03  0.16082799591E+03  0.41800000000E+01 0. -1.
        -11    1    1    2    0    0  0.82085803864E+02  0.71585495678E+02  0.61495113689E+02  0.12507682197E+03  0.00000000000E+00 0.  1.
         11    1    1    2    0    0 -0.23046404351E+02  0.68736438293E+01 -0.13957664263E+02  0.27806476308E+02  0.00000000000E+00 0. -1.
</event>
<event>
 7    1  0.2490079E-009  0.1000687E+03  0.7561462E-02  0.1280152E+00
          1   -1    0    0  501    0  0.00000000000E+00  0.00000000000E+00  0.96096106034E+02  0.96096106034E+02  0.00000000000E+00 0. -1.
         -1   -1    0    0    0  501 -0.00000000000E+00 -0.00000000000E+00 -0.24755502794E+03  0.24755502794E+03  0.00000000000E+00 0.  1.
         25    2    1    2    0    0  0.85581500897E+01  0.74142791653E+02 -0.17033611881E+03  0.22412636405E+03  0.12509131946E+03 0.  0.
          5    1    3    3  502    0  0.51670293251E+02  0.33614005881E+02 -0.24100326540E+02  0.66317559781E+02  0.41800000000E+01 0.  1.
         -5    1    3    3    0  502 -0.43112143161E+02  0.40528785771E+02 -0.14623579227E+03  0.15780880427E+03  0.41800000000E+01 0.  1.
        -11    1    1    2    0    0 -0.17182622157E+02 -0.35474121191E+02 -0.34956310684E+02  0.52683958043E+02  0.00000000000E+00 0.  1.
         11    1    1    2    0    0  0.86244720676E+01 -0.38668670462E+02  0.53833507587E+02  0.66840811881E+02  0.00000000000E+00 0. -1.
</event>
<event>
 7    1  0.2490079E-009  0.1280623E+03  0.7561462E-02  0.1230360E+00
          1   -1    0    0  501    0  0.00000000000E+00  0.00000000000E+00  0.15358394180E+03  0.15358394180E+03  0.00000000000E+00 0. -1.
         -1   -1    0    0    0  501 -0.00000000000E+00 -0.00000000000E+00 -0.14543302815E+03  0.14543302815E+03  0.00000000000E+00 0.  1.
         25    2    1    2    0    0  0.82293741133E+01 -0.87969472276E+02  0.48059973024E+02  0.16051404754E+03  0.12509455543E+03 0.  0.
          5    1    3    3  502    0  0.16412259211E+02 -0.10468952411E+03  0.73268922686E+02  0.12889944197E+03  0.41800000000E+01 0.  1.
         -5    1    3    3    0  502 -0.81828850981E+01  0.16720051830E+02 -0.25208949662E+02  0.31614605561E+02  0.41800000000E+01 0.  1.
        -11    1    1    2    0    0  0.26202170178E+02  0.92616530194E+02 -0.19495933135E+02  0.98206246217E+02  0.00000000000E+00 0. -1.
         11    1    1    2    0    0 -0.34431544291E+02 -0.46470579181E+01 -0.20413126245E+02  0.40296676199E+02  0.00000000000E+00 0.  1.
</event>
<event>
 7    1  0.2490079E-009  0.1472794E+03  0.7561462E-02  0.1203856E+00
         -2   -1    0    0    0  501 -0.00000000000E+00  0.00000000000E+00  0.34705207643E+03  0.34705207643E+03  0.00000000000E+00 0.  1.
          2   -1    0    0  501    0  0.00000000000E+00 -0.00000000000E+00 -0.83699179372E+02  0.83699179372E+02  0.00000000000E+00 0. -1.
         25    2    1    2    0    0 -0.17379353644E+02 -0.12700876303E+03  0.16764825301E+03  0.24533034376E+03  0.12509105888E+03 0.  0.
          5    1    3    3  502    0 -0.13094712678E+01 -0.12473909833E+03  0.18372142253E+03  0.22210941192E+03  0.41800000000E+01 0. -1.
         -5    1    3    3    0  502 -0.16069882377E+02 -0.22696647071E+01 -0.16073169516E+02  0.23220931845E+02  0.41800000000E+01 0. -1.
        -11    1    1    2    0    0 -0.32643388292E+02  0.69361522488E+02  0.72836484224E+02  0.10574386524E+03  0.00000000000E+00 0.  1.
         11    1    1    2    0    0  0.50022741937E+02  0.57647240545E+02  0.22868159816E+02  0.79677046799E+02  0.00000000000E+00 0. -1.
</event>
<event>
 7    1  0.2490079E-009  0.1054779E+03  0.7561462E-02  0.1269181E+00
          2   -1    0    0  501    0  0.00000000000E+00  0.00000000000E+00  0.18244742344E+03  0.18244742344E+03  0.00000000000E+00 0. -1.
         -2   -1    0    0    0  501 -0.00000000000E+00 -0.00000000000E+00 -0.10629066972E+03  0.10629066972E+03  0.00000000000E+00 0.  1.
         25    2    1    2    0    0 -0.66300352048E+02 -0.36306990303E+02  0.87009030870E+02  0.17009440030E+03  0.12509036468E+03 0.  0.
          5    1    3    3  502    0 -0.74252116213E+02 -0.58922981530E+01  0.10858063523E+03  0.13173960182E+03  0.41800000000E+01 0. -1.
         -5    1    3    3    0  502  0.79517641650E+01 -0.30414692150E+02 -0.21571604365E+02  0.38354798485E+02  0.41800000000E+01 0. -1.
        -11    1    1    2    0    0 -0.14880679556E+02  0.14043300770E+02 -0.26028656136E+02  0.33108002972E+02  0.00000000000E+00 0.  1.
         11    1    1    2    0    0  0.81181031604E+02  0.22263689533E+02  0.15176378990E+02  0.85535689879E+02  0.00000000000E+00 0. -1.
</event>
<event>
 7    1  0.2490079E-009  0.1549803E+03  0.7561462E-02  0.1194483E+00
          1   -1    0    0  501    0  0.00000000000E+00  0.00000000000E+00  0.99404288683E+03  0.99404288683E+03  0.00000000000E+00 0. -1.
         -1   -1    0    0    0  501 -0.00000000000E+00 -0.00000000000E+00 -0.33026672462E+02  0.33026672462E+02  0.00000000000E+00 0.  1.
         25    2    1    2    0    0 -0.76771243677E+02 -0.85932341450E+02  0.75328945457E+03  0.77225085711E+03  0.12509273671E+03 0.  0.
          5    1    3    3  502    0 -0.10788177099E+03 -0.47886717832E+02  0.46452513412E+03  0.47930437812E+03  0.41800000000E+01 0. -1.
         -5    1    3    3    0  502  0.31110527318E+02 -0.38045623618E+02  0.28876432045E+03  0.29294647899E+03  0.41800000000E+01 0. -1.
        -11    1    1    2    0    0  0.57351605163E+02  0.30813058353E+01  0.11754364778E+03  0.13082511301E+03  0.00000000000E+00 0. -1.
         11    1    1    2    0    0  0.19419638514E+02  0.82851035615E+02  0.90183112017E+02  0.12399358917E+03  0.00000000000E+00 0.  1.
</event>
<event>
 7    1  0.2490079E-009  0.1219555E+03  0.7561462E-02  0.1239905E+00
          1   -1    0    0  501    0  0.00000000000E+00  0.00000000000E+00  0.32081285192E+03  0.32081285192E+03  0.00000000000E+00 0. -1.
         -1   -1    0    0    0  501 -0.00000000000E+00 -0.00000000000E+00 -0.62339504133E+02  0.62339504133E+02  0.00000000000E+00 0.  1.
         25    2    1    2    0    0  0.69210797538E+02 -0.52009687493E+02  0.17426945524E+03  0.23132890035E+03  0.12509226603E+03 0.  0.
          5    1    3    3  502    0  0.78621654386E+02  0.58582839110E+01  0.48906391315E+02  0.92870832559E+02  0.41800000000E+01 0.  1.
         -5    1    3    3    0  502 -0.94108568483E+01 -0.57867971404E+02  0.12536306392E+03  0.13845806779E+03  0.41800000000E+01 0.  1.
        -11    1    1    2    0    0 -0.43784045324E+02 -0.46990700515E+01 -0.36758595489E+01  0.44188639125E+02  0.00000000000E+00 0.  1.
         11    1    1    2    0    0 -0.25426752214E+02  0.56708757544E+02  0.87879752097E+02  0.10763481657E+03  0.00000000000E+00 0. -1.
</event>
<event>
 7    1  0.2490079E-009  0.9325136E+02  0.7561462E-02  0.1295164E+00
          1   -1    0    0  501    0  0.00000000000E+00  0.00000000000E+00  0.77670093141E+03  0.77670093141E+03  0.00000000000E+00 0. -1.
         -1   -1    0    0    0  501 -0.00000000000E+00 -0.00000000000E+00 -0.23540703331E+02  0.23540703331E+02  0.00000000000E+00 0.  1.
         25    2    1    2    0    0  0.42007888559E+02 -0.56596659020E+02  0.29702551093E+03  0.32991059565E+03  0.12509597301E+03 0.  0.
          5    1    3    3  502    0  0.29960948994E+02 -0.14549206369E+02  0.28121917116E+03  0.28321552306E+03  0.41800000000E+01 0.  1.
         -5    1    3    3    0  502  0.12046939565E+02 -0.42047452650E+02  0.15806339763E+02  0.46695072587E+02  0.41800000000E+01 0.  1.
        -11    1    1    2    0    0  0.17351494500E+02  0.45383024795E+02  0.13297282236E+03  0.14157141233E+03  0.00000000000E+00 0. -1.
         11    1    1    2    0    0 -0.59359383059E+02  0.11213634224E+02  0.32316189479E+03  0.32875962677E+03  0.00000000000E+00 0.  1.
</event>
<event>
 7    1  0.2490079E-009  0.1836172E+03  0.7561462E-02  0.1164347E+00
         -2   -1    0    0    0  501 -0.00000000000E+00  0.00000000000E+00  0.33004452251E+02  0.33004452251E+02  0.00000000000E+00 0.  1.
          2   -1    0    0  501    0  0.00000000000E+00 -0.00000000000E+00 -0.10845900222E+04  0.10845900222E+04  0.00000000000E+00 0. -1.
         25    2    1    2    0    0 -0.10955533591E+03  0.10276453290E+03 -0.67081942443E+03  0.69871858436E+03  0.12508412806E+03 0.  0.
          5    1    3    3  502    0 -0.13196856080E+03  0.56442984296E+02 -0.50857903355E+03  0.52846155705E+03  0.41800000000E+01 0.  1.
         -5    1    3    3    0  502  0.22413224891E+02  0.46321548604E+02 -0.16224039088E+03  0.17025702731E+03  0.41800000000E+01 0.  1.
        -11    1    1    2    0    0  0.79446952606E+02 -0.11478182742E+03 -0.27737321726E+03  0.31051986706E+03  0.00000000000E+00 0.  1.
         11    1    1    2    0    0  0.30108383307E+02  0.12017294525E+02 -0.10339292829E+03  0.10835602306E+03  0.00000000000E+00 0. -1.
</event>
<event>
 7    1  0.2490079E-009  0.1713281E+03  0.7561462E-02  0.1176470E+00
         -1   -1    0    0    0  501 -0.00000000000E+00  0.00000000000E+00  0.65492097644E+02  0.65492097644E+02  0.00000000000E+00 0.  1.
          1   -1    0    0  501    0  0.00000000000E+00 -0.00000000000E+00 -0.45448692545E+03  0.45448692545E+03  0.00000000000E+00 0. -1.
         25    2    1    2    0    0 -0.91285171466E+02  0.96672989424E+02 -0.17712228707E+03  0.25435969084E+03  0.12509155980E+03 0.  0.
          5    1    3    3  502    0 -0.11836042209E+03  0.99810023494E+02 -0.15326924357E+03  0.21789943490E+03  0.41800000000E+01 0.  1.
         -5    1    3    3    0  502  0.27075250620E+02 -0.31370340700E+01 -0.23853043509E+02  0.36460255944E+02  0.41800000000E+01 0.  1.
        -11    1    1    2    0    0 -0.12192466689E+02 -0.40835230051E+02 -0.56088015855E+02  0.70441733226E+02  0.00000000000E+00 0. -1.
         11    1    1    2    0    0  0.10347763816E+03 -0.55837759373E+02 -0.15578452488E+03  0.19517759902E+03  0.00000000000E+00 0.  1.
</event>
<event>
 7    1  0.2771060E-009  0.1829079E+03  0.7561462E-02  0.1165018E+00
         -3   -1    0    0    0  501 -0.00000000000E+00  0.00000000000E+00  0.10891898844E+03  0.10891898844E+03  0.00000000000E+00 0.  1.
          3   -1    0    0  501    0  0.00000000000E+00 -0.00000000000E+00 -0.34803819895E+03  0.34803819895E+03  0.00000000000E+00 0. -1.
         25    2    1    2    0    0 -0.35136123244E+01  0.14935764574E+03 -0.54152219400E+02  0.20223746397E+03  0.12508987631E+03 0.  0.
          5    1    3    3  502    0 -0.58650169641E+02  0.36613385757E+02 -0.18167794076E+02  0.71609521414E+02  0.41800000000E+01 0. -1.
         -5    1    3    3    0  502  0.55136557317E+02  0.11274425998E+03 -0.35984425324E+02  0.13062794256E+03  0.41800000000E+01 0. -1.
        -11    1    1    2    0    0  0.42970303039E+02 -0.66068266644E+02 -0.58115140821E+02  0.97922583673E+02  0.00000000000E+00 0.  1.
         11    1    1    2    0    0 -0.39456690715E+02 -0.83289379095E+02 -0.12685185029E+03  0.15679713975E+03  0.00000000000E+00 0. -1.
</event>
<event>
 7    1  0.2490079E-009  0.1141811E+03  0.7561462E-02  0.1253017E+00
          1   -1    0    0  501    0  0.00000000000E+00  0.00000000000E+00  0.18370448195E+04  0.18370448195E+04  0.00000000000E+00 0. -1.
         -1   -1    0    0    0  501 -0.00000000000E+00 -0.00000000000E+00 -0.10244634696E+02  0.10244634696E+02  0.00000000000E+00 0.  1.
         25    2    1    2    0    0 -0.27075517585E+02 -0.36226205530E+02  0.14366515121E+04  0.14427950227E+04  0.12507793040E+03 0.  0.
          5    1    3    3  502    0 -0.73469450447E+02 -0.22330580931E+02  0.62928857639E+03  0.63397003065E+03  0.41800000000E+01 0.  1.
         -5    1    3    3    0  502  0.46393932863E+02 -0.13895624599E+02  0.80736293571E+03  0.80882499204E+03  0.41800000000E+01 0.  1.
        -11    1    1    2    0    0  0.61584307197E+02  0.20302007212E+02  0.18975770496E+03  0.20053125687E+03  0.00000000000E+00 0. -1.
         11    1    1    2    0    0 -0.34508789612E+02  0.15924198318E+02  0.20039096776E+03  0.20396317465E+03  0.00000000000E+00 0.  1.
</event>
<event>
 7    1  0.3212569E-009  0.1755321E+03  0.7561462E-02  0.1172198E+00
          1   -1    0    0  501    0  0.00000000000E+00  0.00000000000E+00  0.95759728761E+03  0.95759728761E+03  0.00000000000E+00 0. -1.
         -1   -1    0    0    0  501 -0.00000000000E+00 -0.00000000000E+00 -0.33080365865E+02  0.33080365865E+02  0.00000000000E+00 0.  1.
         25    2    1    2    0    0  0.41329071595E+02  0.13113109565E+03  0.56816647188E+03  0.59779975848E+03  0.12509178656E+03 0.  0.
          5    1    3    3  502    0 -0.12904409742E+02  0.13077592663E+03  0.39950894464E+03  0.42058737026E+03  0.41800000000E+01 0. -1.
         -5    1    3    3    0  502  0.54233481337E+02  0.35516901729E+00  0.16865752724E+03  0.17721238822E+03  0.41800000000E+01 0. -1.
        -11    1    1    2    0    0  0.18267040250E+02 -0.92232045300E+02  0.19228633804E+03  0.21404315157E+03  0.00000000000E+00 0. -1.
         11    1    1    2    0    0 -0.59596111844E+02 -0.38899050349E+02  0.16406411183E+03  0.17883474342E+03  0.00000000000E+00 0.  1.
</event>
<event>
 7    1  0.2490079E-009  0.1550699E+03  0.7561462E-02  0.1194378E+00
         -2   -1    0    0    0  501 -0.00000000000E+00  0.00000000000E+00  0.87657350122E+02  0.87657350122E+02  0.00000000000E+00 0.  1.
          2   -1    0    0  501    0  0.00000000000E+00 -0.00000000000E+00 -0.51973669270E+03  0.51973669270E+03  0.00000000000E+00 0. -1.
         25    2    1    2    0    0  0.79805774046E+02  0.11096631839E+03 -0.33141022279E+03  0.37968773794E+03  0.12509019617E+03 0.  0.
          5    1    3    3  502    0  0.24590105278E+02  0.72587412097E+02 -0.29137992025E+03  0.30131932563E+03  0.41800000000E+01 0.  1.
         -5    1    3    3    0  502  0.55215668768E+02  0.38378906292E+02 -0.40030302543E+02  0.78368412306E+02  0.41800000000E+01 0.  1.
        -11    1    1    2    0    0 -0.85463895183E+02 -0.12469060560E+03 -0.12702868941E+03  0.19745407679E+03  0.00000000000E+00 0. -1.
         11    1    1    2    0    0  0.56581211376E+01  0.13724287216E+02  0.26359569625E+02  0.30252228103E+02  0.00000000000E+00 0.  1.
</event>
<event>
 7    1  0.2490079E-009  0.9418033E+02  0.7561462E-02  0.1293033E+00
          1   -1    0    0  501    0  0.00000000000E+00  0.00000000000E+00  0.22813598207E+03  0.22813598207E+03  0.00000000000E+00 0. -1.
         -1   -1    0    0    0  501 -0.00000000000E+00 -0.00000000000E+00 -0.91972000239E+02  0.91972000239E+02  0.00000000000E+00 0.  1.
         25    2    1    2    0    0  0.30237302003E+02 -0.87274503621E+02  0.52016652062E+02  0.16397787106E+03  0.12510746057E+03 0.  0.
          5    1    3    3  502    0  0.24852283971E+02 -0.64498853387E+02 -0.32273699400E+02  0.76398967138E+02  0.41800000000E+01 0.  1.
         -5    1    3    3    0  502  0.53850180321E+01 -0.22775650234E+02  0.84290351462E+02  0.87578903923E+02  0.41800000000E+01 0.  1.
        -11    1    1    2    0    0 -0.24054061728E+02  0.33671375911E+02  0.92682402475E+02  0.10150067571E+03  0.00000000000E+00 0. -1.
         11    1    1    2    0    0 -0.61832402751E+01  0.53603127710E+02 -0.85350727095E+01  0.54629435534E+02  0.00000000000E+00 0.  1.
</event>
<event>
 7    1  0.2490079E-009  0.6977098E+02  0.7561462E-02  0.1360874E+00
         -1   -1    0    0    0  501 -0.00000000000E+00  0.00000000000E+00  0.36605134142E+02  0.36605134142E+02  0.00000000000E+00 0.  1.
          1   -1    0    0  501    0  0.00000000000E+00 -0.00000000000E+00 -0.40191914520E+03  0.40191914520E+03  0.00000000000E+00 0. -1.
         25    2    1    2    0    0 -0.48685451507E+02 -0.35361205599E+01 -0.24869771580E+03  0.28263273801E+03  0.12509170001E+03 0.  0.
          5    1    3    3  502    0 -0.21014588296E+02 -0.60126979935E+01 -0.25320347820E+03  0.25417954133E+03  0.41800000000E+01 0. -1.
         -5    1    3    3    0  502 -0.27670863211E+02  0.24765774336E+01  0.45057623947E+01  0.28453196681E+02  0.41800000000E+01 0. -1.
        -11    1    1    2    0    0  0.86588259910E+01 -0.33536600123E+02 -0.87379654141E+02  0.93994057116E+02  0.00000000000E+00 0. -1.
         11    1    1    2    0    0  0.40026625516E+02  0.37072720683E+02 -0.29236641120E+02  0.61897484222E+02  0.00000000000E+00 0.  1.
</event>
<event>
 7    1  0.2490079E-009  0.1256909E+03  0.7561462E-02  0.1233994E+00
         -1   -1    0    0    0  501 -0.00000000000E+00  0.00000000000E+00  0.26048042214E+02  0.26048042214E+02  0.00000000000E+00 0.  1.
          1   -1    0    0  501    0  0.00000000000E+00 -0.00000000000E+00 -0.68925766833E+03  0.68925766833E+03  0.00000000000E+00 0. -1.
         25    2    1    2    0    0  0.10443291549E+02 -0.70228428031E+02 -0.43949436843E+03  0.46243337171E+03  0.12509288130E+03 0.  0.
          5    1    3    3  502    0  0.61038525249E+02 -0.14102596212E+02 -0.26313190999E+03  0.27051887039E+03  0.41800000000E+01 0.  1.
         -5    1    3    3    0  502 -0.50595233700E+02 -0.56125831819E+02 -0.17636245844E+03  0.19191450132E+03  0.41800000000E+01 0.  1.
        -11    1    1    2    0    0 -0.49376946084E+02  0.36477291876E+02 -0.15700316140E+03  0.16857837440E+03  0.00000000000E+00 0.  1.
         11    1    1    2    0    0  0.38933654535E+02  0.33751136156E+02 -0.66712096285E+02  0.84293964422E+02  0.00000000000E+00 0. -1.
</event>
<event>
 7    1  0.2490079E-009  0.9421564E+02  0.7561462E-02  0.1292952E+00
         -1   -1    0    0    0  501 -0.00000000000E+00  0.00000000000E+00  0.12721275592E+02  0.12721275592E+02  0.00000000000E+00 0.  1.
          1   -1    0    0  501    0  0.00000000000E+00 -0.00000000000E+00 -0.10519751979E+04  0.10519751979E+04  0.00000000000E+00 0. -1.
         25    2    1    2    0    0 -0.11283829816E+02  0.36170075723E+02 -0.68016527244E+03  0.69260910152E+03  0.12508785106E+03 0.  0.
          5    1    3    3  502    0 -0.13867366477E+02 -0.33924793575E+02 -0.77162948739E+02  0.85526536994E+02  0.41800000000E+01 0. -1.
         -5    1    3    3    0  502  0.25835366613E+01  0.70094869299E+02 -0.60300232370E+03  0.60708256452E+03  0.41800000000E+01 0. -1.
        -11    1    1    2    0    0 -0.28168088160E+02 -0.62602697390E+00 -0.41948706470E+02  0.50532435869E+02  0.00000000000E+00 0.  1.
         11    1    1    2    0    0  0.39451917976E+02 -0.35544048749E+02 -0.31713994345E+03  0.32155493615E+03  0.00000000000E+00 0. -1.
</event>
<event>
 7    1  0.2490079E-009  0.1009897E+03  0.7561462E-02  0.1278228E+00
         -2   -1    0    0    0  501 -0.00000000000E+00  0.00000000000E+00  0.25410012976E+02  0.25410012976E+02  0.00000000000E+00 0.  1.
          2   -1    0    0  501    0  0.00000000000E+00 -0.00000000000E+00 -0.51318991141E+03  0.51318991141E+03  0.00000000000E+00 0. -1.
         25    2    1    2    0    0  0.29085188351E+02  0.17716504821E+02 -0.28631864311E+03  0.31430241162E+03  0.12509123802E+03 0.  0.
          5    1    3    3  502    0 -0.26526739097E+02 -0.40573444078E+02 -0.11854354070E+03  0.12814021887E+03  0.41800000000E+01 0. -1.
         -5    1    3    3    0  502  0.55611927448E+02  0.58289948898E+02 -0.16777510241E+03  0.18616219274E+03  0.41800000000E+01 0. -1.
        -11    1    1    2    0    0  0.10032652072E+02 -0.30014744270E+02 -0.18205329658E+02  0.36509902891E+02  0.00000000000E+00 0.  1.
         11    1    1    2    0    0 -0.39117840422E+02  0.12298239449E+02 -0.18325592567E+03  0.18778760988E+03  0.00000000000E+00 0. -1.
</event>
<event>
 7    1  0.2490079E-009  0.1157488E+03  0.7561462E-02  0.1250280E+00
          1   -1    0    0  501    0  0.00000000000E+00  0.00000000000E+00  0.94105534591E+02  0.94105534591E+02  0.00000000000E+00 0. -1.
         -1   -1    0    0    0  501 -0.00000000000E+00 -0.00000000000E+00 -0.16451547051E+03  0.16451547051E+03  0.00000000000E+00 0.  1.
         25    2    1    2    0    0  0.29491851077E+02  0.52286088966E+02 -0.42085708810E+02  0.14498218309E+03  0.12508006296E+03 0.  0.
          5    1    3    3  502    0  0.42675448494E+02 -0.25790285434E+02  0.87449251299E+01  0.50796445176E+02  0.41800000000E+01 0. -1.
         -5    1    3    3    0  502 -0.13183597417E+02  0.78076374399E+02 -0.50830633940E+02  0.94185737917E+02  0.41800000000E+01 0. -1.
        -11    1    1    2    0    0  0.94274723004E+01 -0.61462439606E+02 -0.37499035580E+02  0.72613265907E+02  0.00000000000E+00 0.  1.
         11    1    1    2    0    0 -0.38919323378E+02  0.91763506402E+01  0.91748084671E+01  0.41025556104E+02  0.00000000000E+00 0. -1.
</event>
<event>
 7    1  0.2490079E-009  0.9543906E+02  0.7561462E-02  0.1290190E+00
          1   -1    0    0  501    0  0.00000000000E+00  0.00000000000E+00  0.22842872336E+03  0.22842872336E+03  0.00000000000E+00 0.  1.
         -1   -1    0    0    0  501 -0.00000000000E+00 -0.00000000000E+00 -0.69711311374E+02  0.69711311374E+02  0.00000000000E+00 0. -1.
         25    2    1    2    0    0  0.65604869936E+02 -0.68385675246E+01  0.90206925254E+02  0.16773683928E+03  0.12509033904E+03 0.  0.
          5    1    3    3  502    0  0.13474239290E+02 -0.29712530324E+02 -0.23555812274E+02  0.40456622135E+02  0.41800000000E+01 0. -1.
         -5    1    3    3    0  502  0.52130630646E+02  0.22873962799E+02  0.11376273753E+03  0.12728021714E+03  0.41800000000E+01 0. -1.
        -11    1    1    2    0    0 -0.53903866296E+02  0.39097118886E+02  0.69261302472E+02  0.96079860153E+02  0.00000000000E+00 0.  1.
         11    1    1    2    0    0 -0.11701003640E+02 -0.32258551362E+02 -0.75081574088E+00  0.34323335304E+02  0.00000000000E+00 0. -1.
</event>
<event>
 7    1  0.2490079E-009  0.1668603E+03  0.7561462E-02  0.1181162E+00
          1   -1    0    0  501    0  0.00000000000E+00  0.00000000000E+00  0.30417275871E+03  0.30417275871E+03  0.00000000000E+00 0. -1.
         -1   -1    0    0    0  501 -0.00000000000E+00 -0.00000000000E+00 -0.13000317083E+03  0.13000317083E+03  0.00000000000E+00 0.  1.
         25    2    1    2    0    0  0.92286527959E+02  0.11721878901E+03  0.12106749581E+02  0.19505457305E+03  0.12507064141E+03 0.  0.
          5    1    3    3  502    0  0.49203620057E+02  0.12410379090E+03  0.44245188308E+02  0.14070485504E+03  0.41800000000E+01 0.  1.
         -5    1    3    3    0  502  0.43082907903E+02 -0.68850018917E+01 -0.32138438727E+02  0.54349718014E+02  0.41800000000E+01 0.  1.
        -11    1    1    2    0    0 -0.94485078018E+02 -0.94965318015E+02  0.16904974596E+03  0.21569343569E+03  0.00000000000E+00 0. -1.
         11    1    1    2    0    0  0.21985500585E+01 -0.22253470996E+02 -0.69869076575E+01  0.23427920785E+02  0.00000000000E+00 0.  1.
</event>
<event>
 7    1  0.2490079E-009  0.1848863E+03  0.7561462E-02  0.1163156E+00
         -1   -1    0    0    0  501 -0.00000000000E+00  0.00000000000E+00  0.68529730558E+03  0.68529730558E+03  0.00000000000E+00 0.  1.
          1   -1    0    0  501    0  0.00000000000E+00 -0.00000000000E+00 -0.61406588347E+02  0.61406588347E+02  0.00000000000E+00 0. -1.
         25    2    1    2    0    0 -0.72527333269E+02 -0.15196475785E+03  0.39768976126E+03  0.44962117431E+03  0.12509417442E+03 0.  0.
          5    1    3    3  502    0 -0.81970603786E+02 -0.14289709420E+03  0.23881502442E+03  0.29015314526E+03  0.41800000000E+01 0. -1.
         -5    1    3    3    0  502  0.94432705171E+01 -0.90676636516E+01  0.15887473684E+03  0.15946802905E+03  0.41800000000E+01 0. -1.
        -11    1    1    2    0    0  0.28266563963E+02  0.14339623402E+03  0.18699944136E+03  0.23733998744E+03  0.00000000000E+00 0. -1.
         11    1    1    2    0    0  0.44260769306E+02  0.85685238274E+01  0.39201514612E+02  0.59742732177E+02  0.00000000000E+00 0.  1.
</event>
<event>
 7    1  0.2490079E-009  0.2244801E+03  0.7561462E-02  0.1130586E+00
         -1   -1    0    0    0  501 -0.00000000000E+00  0.00000000000E+00  0.97386996756E+02  0.97386996756E+02  0.00000000000E+00 0.  1.
          1   -1    0    0  501    0  0.00000000000E+00 -0.00000000000E+00 -0.60717974540E+03  0.60717974540E+03  0.00000000000E+00 0. -1.
         25    2    1    2    0    0  0.19985182380E+03  0.81711784184E+02 -0.22093129690E+03  0.33327992067E+03  0.12508916988E+03 0.  0.
          5    1    3    3  502    0  0.83066608763E+02  0.37231345860E+02 -0.14987177784E+02  0.92348917178E+02  0.41800000000E+01 0.  1.
         -5    1    3    3    0  502  0.11678521503E+03  0.44480438325E+02 -0.20594411911E+03  0.24093100349E+03  0.41800000000E+01 0.  1.
        -11    1    1    2    0    0 -0.17839123946E+03 -0.35562606914E+02 -0.23512201769E+03  0.29727175535E+03  0.00000000000E+00 0.  1.
         11    1    1    2    0    0 -0.21460584335E+02 -0.46149177270E+02 -0.53739434053E+02  0.74015066136E+02  0.00000000000E+00 0. -1.
</event>
<event>
 7    1  0.2490079E-009  0.8892858E+02  0.7561462E-02  0.1305467E+00
         -4   -1    0    0    0  501 -0.00000000000E+00  0.00000000000E+00  0.96780731489E+03  0.96780731489E+03  0.00000000000E+00 0.  1.
          4   -1    0    0  501    0  0.00000000000E+00 -0.00000000000E+00 -0.20097841821E+02  0.20097841821E+02  0.00000000000E+00 0. -1.
         25    2    1    2    0    0 -0.40085215285E+02 -0.40429689046E+02  0.75543918018E+03  0.76784001989E+03  0.12509419230E+03 0.  0.
          5    1    3    3  502    0 -0.32400307206E+02 -0.56681504440E+02  0.74231617443E+03  0.74519349707E+03  0.41800000000E+01 0.  1.
         -5    1    3    3    0  502 -0.76849080790E+01  0.16251815394E+02  0.13123005748E+02  0.22646522816E+02  0.41800000000E+01 0.  1.
        -11    1    1    2    0    0 -0.65530108325E+01  0.46488613395E+02  0.43372047137E+02  0.63916098123E+02  0.00000000000E+00 0. -1.
         11    1    1    2    0    0  0.46638226118E+02 -0.60589243492E+01  0.14889824575E+03  0.15614903870E+03  0.00000000000E+00 0.  1.
</event>
<event>
 7    1  0.2490079E-009  0.1305649E+03  0.7561462E-02  0.1226620E+00
         -1   -1    0    0    0  501 -0.00000000000E+00  0.00000000000E+00  0.20820696906E+03  0.20820696906E+03  0.00000000000E+00 0.  1.
          1   -1    0    0  501    0  0.00000000000E+00 -0.00000000000E+00 -0.95157840825E+02  0.95157840825E+02  0.00000000000E+00 0. -1.
         25    2    1    2    0    0 -0.28182118610E+02 -0.81996962390E+02  0.83993834534E+02  0.17384178771E+03  0.12509304243E+03 0.  0.
          5    1    3    3  502    0  0.49132141243E+02 -0.43093633520E+02  0.38693061271E+02  0.76063486271E+02  0.41800000000E+01 0.  1.
         -5    1    3    3    0  502 -0.77314259853E+02 -0.38903328870E+02  0.45300773263E+02  0.97778301437E+02  0.41800000000E+01 0.  1.
        -11    1    1    2    0    0  0.91402582137E+01  0.88423636805E+02  0.48749882438E+02  0.10138458908E+03  0.00000000000E+00 0.  1.
         11    1    1    2    0    0  0.19041860396E+02 -0.64266744142E+01 -0.19694588738E+02  0.28138433093E+02  0.00000000000E+00 0. -1.
</event>
<event>
 7    1  0.2490079E-009  0.1466577E+03  0.7561462E-02  0.1204641E+00
         -1   -1    0    0    0  501 -0.00000000000E+00  0.00000000000E+00  0.55672943341E+02  0.55672943341E+02  0.00000000000E+00 0. -1.
          1   -1    0    0  501    0  0.00000000000E+00 -0.00000000000E+00 -0.83597900592E+03  0.83597900592E+03  0.00000000000E+00 0.  1.
         25    2    1    2    0    0 -0.12040557936E+03 -0.29820216804E+02 -0.68981518926E+03  0.71195443557E+03  0.12508946445E+03 0.  0.
          5    1    3    3  502    0 -0.13359188740E+03 -0.48971473420E+02 -0.47573137474E+03  0.49657105322E+03  0.41800000000E+01 0. -1.
         -5    1    3    3    0  502  0.13186308038E+02  0.19151256616E+02 -0.21408381453E+03  0.21538338235E+03  0.41800000000E+01 0. -1.
        -11    1    1    2    0    0  0.10562046642E+03  0.35616130274E+02 -0.10859292795E+03  0.15561688746E+03  0.00000000000E+00 0.  1.
         11    1    1    2    0    0  0.14785112942E+02 -0.57959134708E+01  0.18102054637E+02  0.24080626232E+02  0.00000000000E+00 0. -1.
</event>
<event>
 7    1  0.2490079E-009  0.1123853E+03  0.7561462E-02  0.1256215E+00
          2   -1    0    0  501    0  0.00000000000E+00  0.00000000000E+00  0.49353688424E+03  0.49353688424E+03  0.00000000000E+00 0. -1.
         -2   -1    0    0    0  501 -0.00000000000E+00 -0.00000000000E+00 -0.29795684279E+02  0.29795684279E+02  0.00000000000E+00 0.  1.
         25    2    1    2    0    0 -0.15397976358E+02  0.35449904153E+02  0.34895528113E+03  0.37270773684E+03  0.12508986965E+03 0.  0.
          5    1    3    3  502    0 -0.52226182257E+02  0.63361969594E+02  0.25487602085E+03  0.26780883426E+03  0.41800000000E+01 0.  1.
         -5    1    3    3    0  502  0.36828205899E+02 -0.27912065441E+02  0.94079260274E+02  0.10489890257E+03  0.41800000000E+01 0.  1.
        -11    1    1    2    0    0 -0.20717593261E+02 -0.52334528846E+02  0.79344645945E+02  0.97281521474E+02  0.00000000000E+00 0. -1.
         11    1    1    2    0    0  0.36115569620E+02  0.16884624693E+02  0.35441272883E+02  0.53343310204E+02  0.00000000000E+00 0.  1.
</event>
<event>
 7    1  0.2490079E-009  0.1016933E+03  0.7561462E-02  0.1276775E+00
         -2   -1    0    0    0  501 -0.00000000000E+00  0.00000000000E+00  0.39988147202E+02  0.39988147202E+02  0.00000000000E+00 0. -1.
          2   -1    0    0  501    0  0.00000000000E+00 -0.00000000000E+00 -0.33288030928E+03  0.33288030928E+03  0.00000000000E+00 0.  1.
         25    2    1    2    0    0 -0.25616498926E+02 -0.27686582316E+02 -0.18960294495E+03  0.23025961031E+03  0.12508980594E+03 0.  0.
          5    1    3    3  502    0 -0.70553916517E+02 -0.40198904075E+02 -0.14099710234E+03  0.16276198049E+03  0.41800000000E+01 0. -1.
         -5    1    3    3    0  502  0.44937417591E+02  0.12512321759E+02 -0.48605842610E+02  0.67497629820E+02  0.41800000000E+01 0. -1.
        -11    1    1    2    0    0 -0.20890798106E+02 -0.43387155126E+00 -0.81365360985E+02  0.84005569210E+02  0.00000000000E+00 0.  1.
         11    1    1    2    0    0  0.46507297032E+02  0.28120453867E+02 -0.21923856149E+02  0.58603276968E+02  0.00000000000E+00 0. -1.
</event>
<event>
 7    1  0.2490079E-009  0.1571493E+03  0.7561462E-02  0.1191953E+00
          2   -1    0    0  501    0  0.00000000000E+00  0.00000000000E+00  0.93569242313E+03  0.93569242313E+03  0.00000000000E+00 0. -1.
         -2   -1    0    0    0  501 -0.00000000000E+00 -0.00000000000E+00 -0.30097059729E+02  0.30097059729E+02  0.00000000000E+00 0.  1.
         25    2    1    2    0    0  0.58614402315E+02  0.11236746422E+03  0.41005150890E+03  0.44704735008E+03  0.12508796140E+03 0.  0.
          5    1    3    3  502    0  0.75485530970E+02  0.36550662015E+02  0.11809341040E+03  0.14490528721E+03  0.41800000000E+01 0.  1.
         -5    1    3    3    0  502 -0.16871128656E+02  0.75816802202E+02  0.29195809849E+03  0.30214206287E+03  0.41800000000E+01 0.  1.
        -11    1    1    2    0    0 -0.28986605361E+02  0.67775205302E+01  0.76669629613E+02  0.82245912846E+02  0.00000000000E+00 0.  1.
         11    1    1    2    0    0 -0.29627796953E+02 -0.11914498475E+03  0.41887422489E+03  0.43649621993E+03  0.00000000000E+00 0. -1.
</event>
<event>
 7    1  0.2490079E-009  0.1251858E+03  0.7561462E-02  0.1234779E+00
         -2   -1    0    0    0  501 -0.00000000000E+00  0.00000000000E+00  0.42971778279E+02  0.42971778279E+02  0.00000000000E+00 0.  1.
          2   -1    0    0  501    0  0.00000000000E+00 -0.00000000000E+00 -0.56282319337E+03  0.56282319337E+03  0.00000000000E+00 0. -1.
         25    2    1    2    0    0 -0.20336592544E+01 -0.10011864378E+03 -0.35326164987E+03  0.38790417276E+03  0.12509186773E+03 0.  0.
          5    1    3    3  502    0 -0.55885731394E+02 -0.63115977210E+02 -0.12803005705E+03  0.15334930538E+03  0.41800000000E+01 0. -1.
         -5    1    3    3    0  502  0.53852072139E+02 -0.37002666570E+02 -0.22523159282E+03  0.23455486738E+03  0.41800000000E+01 0. -1.
        -11    1    1    2    0    0 -0.31759933529E+01  0.50972735407E+02 -0.16009599311E+03  0.16804473720E+03  0.00000000000E+00 0. -1.
         11    1    1    2    0    0  0.52096526073E+01  0.49145908373E+02 -0.64937721093E+01  0.49846061693E+02  0.00000000000E+00 0.  1.
</event>
<event>
 7    1  0.2490079E-009  0.9381884E+02  0.7561462E-02  0.1293859E+00
         -2   -1    0    0    0  501 -0.00000000000E+00  0.00000000000E+00  0.11802802780E+02  0.11802802780E+02  0.00000000000E+00 0.  1.
          2   -1    0    0  501    0  0.00000000000E+00 -0.00000000000E+00 -0.13745698791E+04  0.13745698791E+04  0.00000000000E+00 0. -1.
         25    2    1    2    0    0 -0.46210189478E+02 -0.30243632944E+02 -0.10187591941E+04  0.10278955690E+04  0.12509574831E+03 0.  0.
          5    1    3    3  502    0  0.20997247200E+01  0.21226989912E+02 -0.73959475976E+03  0.73991409975E+03  0.41800000000E+01 0.  1.
         -5    1    3    3    0  502 -0.48309914198E+02 -0.51470622855E+02 -0.27916443439E+03  0.28798146929E+03  0.41800000000E+01 0.  1.
        -11    1    1    2    0    0 -0.21808726647E+02  0.34450580532E+01 -0.38865724011E+02  0.44699367846E+02  0.00000000000E+00 0. -1.
         11    1    1    2    0    0  0.68018916125E+02  0.26798574891E+02 -0.30514215817E+03  0.31377774500E+03  0.00000000000E+00 0.  1.
</event>
<event>
 7    1  0.2490079E-009  0.2207109E+03  0.7561462E-02  0.1133354E+00
          2   -1    0    0  501    0  0.00000000000E+00  0.00000000000E+00  0.73407366449E+03  0.73407366449E+03  0.00000000000E+00 0. -1.
         -2   -1    0    0    0  501 -0.00000000000E+00 -0.00000000000E+00 -0.90078795397E+02  0.90078795397E+02  0.00000000000E+00 0.  1.
         25    2    1    2    0    0 -0.61518200964E+02 -0.19804731327E+03  0.16066459028E+03  0.29063423145E+03  0.12509164072E+03 0.  0.
          5    1    3    3  502    0 -0.31628184312E+01  0.54014167074E+01  0.52258912479E+02  0.52798153911E+02  0.41800000000E+01 0. -1.
         -5    1    3    3    0  502 -0.58355382533E+02 -0.20344872998E+03  0.10840567780E+03  0.23783607754E+03  0.41800000000E+01 0. -1.
        -11    1    1    2    0    0 -0.81981597257E+01  0.10804681242E+03  0.18779399124E+03  0.21681306843E+03  0.00000000000E+00 0.  1.
         11    1    1    2    0    0  0.69716360690E+02  0.90000500854E+02  0.29553628757E+03  0.31670516000E+03  0.00000000000E+00 0. -1.
</event>
<event>
 7    1  0.2490079E-009  0.9423672E+02  0.7561462E-02  0.1292904E+00
          2   -1    0    0  501    0  0.00000000000E+00  0.00000000000E+00  0.59496584873E+02  0.59496584873E+02  0.00000000000E+00 0. -1.
         -2   -1    0    0    0  501 -0.00000000000E+00 -0.00000000000E+00 -0.33810636642E+03  0.33810636642E+03  0.00000000000E+00 0.  1.
         25    2    1    2    0    0 -0.75827954438E+02 -0.26257239394E+02 -0.96197854981E+02  0.17703246018E+03  0.12508854208E+03 0.  0.
          5    1    3    3  502    0 -0.51128780223E+02 -0.90389823931E+01 -0.12483719545E+03  0.13526881805E+03  0.41800000000E+01 0.  1.
         -5    1    3    3    0  502 -0.24699174215E+02 -0.17218257001E+02  0.28639340470E+02  0.41763642126E+02  0.41800000000E+01 0.  1.
        -11    1    1    2    0    0  0.46259205662E+02 -0.20553019329E+02 -0.14543169804E+03  0.15398934868E+03  0.00000000000E+00 0.  1.
         11    1    1    2    0    0  0.29568748776E+02  0.46810258724E+02 -0.36980228527E+02  0.66581142434E+02  0.00000000000E+00 0. -1.
</event>
<event>
 7    1  0.2490079E-009  0.1103110E+03  0.7561462E-02  0.1259995E+00
         -2   -1    0    0    0  501 -0.00000000000E+00  0.00000000000E+00  0.15455905722E+03  0.15455905722E+03  0.00000000000E+00 0.  1.
          2   -1    0    0  501    0  0.00000000000E+00 -0.00000000000E+00 -0.17572866973E+03  0.17572866973E+03  0.00000000000E+00 0. -1.
         25    2    1    2    0    0 -0.30220745236E+02 -0.64767135900E+02 -0.11025660636E+03  0.18141753629E+03  0.12509087853E+03 0.  0.
          5    1    3    3  502    0 -0.70820338712E+02 -0.73365384586E+02 -0.72836948499E+02  0.12538218971E+03  0.41800000000E+01 0.  1.
         -5    1    3    3    0  502  0.40599593476E+02  0.85982486870E+01 -0.37419657866E+02  0.56035346574E+02  0.41800000000E+01 0.  1.
        -11    1    1    2    0    0  0.18176591566E+02  0.99312431324E+01  0.90369233420E+02  0.92712547264E+02  0.00000000000E+00 0.  1.
         11    1    1    2    0    0  0.12044153670E+02  0.54835892767E+02 -0.12822395667E+01  0.56157643393E+02  0.00000000000E+00 0. -1.
</event>
<event>
 7    1  0.2490079E-009  0.1177138E+03  0.7561462E-02  0.1246917E+00
         -1   -1    0    0    0  501 -0.00000000000E+00  0.00000000000E+00  0.43425292419E+02  0.43425292419E+02  0.00000000000E+00 0.  1.
          1   -1    0    0  501    0  0.00000000000E+00 -0.00000000000E+00 -0.48979651732E+03  0.48979651732E+03  0.00000000000E+00 0. -1.
         25    2    1    2    0    0 -0.65796173370E+02  0.68307585677E+02 -0.28392284219E+03  0.32442996902E+03  0.12509021458E+03 0.  0.
          5    1    3    3  502    0 -0.27215206413E+02 -0.40844733659E+01  0.10506070482E+01  0.27855458315E+02  0.41800000000E+01 0.  1.
         -5    1    3    3    0  502 -0.38580966956E+02  0.72392059043E+02 -0.28497344924E+03  0.29657451070E+03  0.41800000000E+01 0.  1.
        -11    1    1    2    0    0  0.80459385509E+02 -0.32526512927E+02 -0.81375285594E+02  0.11896900380E+03  0.00000000000E+00 0. -1.
         11    1    1    2    0    0 -0.14663212140E+02 -0.35781072750E+02 -0.81073097109E+02  0.89822836920E+02  0.00000000000E+00 0.  1.
</event>
<event>
 7    1  0.2490079E-009  0.2027991E+03  0.7561462E-02  0.1147399E+00
          2   -1    0    0  501    0  0.00000000000E+00  0.00000000000E+00  0.48023282369E+03  0.48023282369E+03  0.00000000000E+00 0.  1.
         -2   -1    0    0    0  501 -0.00000000000E+00 -0.00000000000E+00 -0.87204659210E+02  0.87204659210E+02  0.00000000000E+00 0. -1.
         25    2    1    2    0    0  0.12626824193E+02 -0.17237964730E+03  0.20760364363E+03  0.29769302021E+03  0.12509069485E+03 0.  0.
          5    1    3    3  502    0  0.62607941249E+02 -0.14060522781E+03  0.15136033391E+03  0.21590972066E+03  0.41800000000E+01 0.  1.
         -5    1    3    3    0  502 -0.49981117056E+02 -0.31774419486E+02  0.56243309718E+02  0.81783299542E+02  0.41800000000E+01 0. -1.
        -11    1    1    2    0    0  0.35054928390E+02  0.96138431266E+02  0.72598847371E+02  0.12546728104E+03  0.00000000000E+00 0. -1.
         11    1    1    2    0    0 -0.47681752583E+02  0.76241216032E+02  0.11282567348E+03  0.14427718166E+03  0.00000000000E+00 0.  1.
</event>
<event>
 7    1  0.2490079E-009  0.1047429E+03  0.7561462E-02  0.1270627E+00
          1   -1    0    0  501    0  0.00000000000E+00  0.00000000000E+00  0.55559121475E+03  0.55559121475E+03  0.00000000000E+00 0. -1.
         -1   -1    0    0    0  501 -0.00000000000E+00 -0.00000000000E+00 -0.31982548370E+02  0.31982548370E+02  0.00000000000E+00 0.  1.
         25    2    1    2    0    0 -0.15185951893E+02 -0.35821052997E+02  0.14320070952E+03  0.19407726729E+03  0.12508309836E+03 0.  0.
          5    1    3    3  502    0  0.40496637620E+02  0.13836102658E+02  0.97307480439E+02  0.10638436701E+03  0.41800000000E+01 0. -1.
         -5    1    3    3    0  502 -0.55682589513E+02 -0.49657155655E+02  0.45893229086E+02  0.87692900274E+02  0.41800000000E+01 0. -1.
        -11    1    1    2    0    0 -0.34524727817E+02  0.11259202831E+02  0.77893711333E+02  0.85942752716E+02  0.00000000000E+00 0.  1.
         11    1    1    2    0    0  0.49710679710E+02  0.24561850166E+02  0.30251424553E+03  0.30755374312E+03  0.00000000000E+00 0. -1.
</event>
<event>
 7    1  0.2490079E-009  0.8993454E+02  0.7561462E-02  0.1303010E+00
         -2   -1    0    0    0  501 -0.00000000000E+00  0.00000000000E+00  0.29071345210E+02  0.29071345210E+02  0.00000000000E+00 0.  1.
          2   -1    0    0  501    0  0.00000000000E+00 -0.00000000000E+00 -0.54552911689E+03  0.54552911689E+03  0.00000000000E+00 0. -1.
         25    2    1    2    0    0 -0.24991647789E+02 -0.48871882513E+02 -0.21679089596E+03  0.25623993897E+03  0.12509024899E+03 0.  0.
          5    1    3    3  502    0 -0.12784124264E+02  0.22816379186E+02 -0.16438879826E+03  0.16650876969E+03  0.41800000000E+01 0.  1.
         -5    1    3    3    0  502 -0.12207523526E+02 -0.71688261699E+02 -0.52402097706E+02  0.89731169278E+02  0.41800000000E+01 0.  1.
        -11    1    1    2    0    0  0.17949848786E+01  0.56190606929E+02 -0.28380982601E+03  0.28932442624E+03  0.00000000000E+00 0. -1.
         11    1    1    2    0    0  0.23196662911E+02 -0.73187244160E+01 -0.15857049709E+02  0.29036096893E+02  0.00000000000E+00 0.  1.
</event>
<event>
 7    1  0.2490079E-009  0.1358902E+03  0.7561462E-02  0.1218968E+00
         -1   -1    0    0    0  501 -0.00000000000E+00  0.00000000000E+00  0.24421505893E+03  0.24421505893E+03  0.00000000000E+00 0.  1.
          1   -1    0    0  501    0  0.00000000000E+00 -0.00000000000E+00 -0.13287241834E+03  0.13287241834E+03  0.00000000000E+00 0. -1.
         25    2    1    2    0    0 -0.11889166984E+03  0.62397956621E+02  0.59035037792E+01  0.18360829320E+03  0.12509364423E+03 0.  0.
          5    1    3    3  502    0 -0.19857678461E+02  0.21294206678E+02  0.57465485748E+02  0.64556371367E+02  0.41800000000E+01 0.  1.
         -5    1    3    3    0  502 -0.99033991375E+02  0.41103749942E+02 -0.51561981969E+02  0.11905192183E+03  0.41800000000E+01 0.  1.
        -11    1    1    2    0    0  0.62887196669E+02 -0.41176230784E+02  0.11020494224E+03  0.13339944071E+03  0.00000000000E+00 0.  1.
         11    1    1    2    0    0  0.56004473166E+02 -0.21221725837E+02 -0.47658054343E+01  0.60079743371E+02  0.00000000000E+00 0. -1.
</event>
<event>
 7    1  0.2490079E-009  0.9941979E+02  0.7561462E-02  0.1281521E+00
         -2   -1    0    0    0  501 -0.00000000000E+00  0.00000000000E+00  0.95272097144E+02  0.95272097144E+02  0.00000000000E+00 0.  1.
          2   -1    0    0  501    0  0.00000000000E+00 -0.00000000000E+00 -0.18503822690E+03  0.18503822690E+03  0.00000000000E+00 0. -1.
         25    2    1    2    0    0 -0.52763638165E+02  0.35350110471E+02 -0.96554921037E+02  0.17029736999E+03  0.12507881366E+03 0.  0.
          5    1    3    3  502    0 -0.24271800089E+02  0.60846408161E+02 -0.11121029684E+03  0.12913794248E+03  0.41800000000E+01 0. -1.
         -5    1    3    3    0  502 -0.28491838076E+02 -0.25496297689E+02  0.14655375802E+02  0.41159427507E+02  0.41800000000E+01 0. -1.
        -11    1    1    2    0    0  0.59782048202E+02 -0.11191019920E+01  0.31146182648E+02  0.67418323697E+02  0.00000000000E+00 0.  1.
         11    1    1    2    0    0 -0.70184100374E+01 -0.34231008479E+02 -0.24357391364E+02  0.42594630354E+02  0.00000000000E+00 0. -1.
</event>
<event>
 7    1  0.2490079E-009  0.1356513E+03  0.7561462E-02  0.1219303E+00
         -2   -1    0    0    0  501 -0.00000000000E+00  0.00000000000E+00  0.19189564283E+03  0.19189564283E+03  0.00000000000E+00 0.  1.
          2   -1    0    0  501    0  0.00000000000E+00 -0.00000000000E+00 -0.10321694003E+03  0.10321694003E+03  0.00000000000E+00 0. -1.
         25    2    1    2    0    0 -0.83583749940E+02  0.12376298933E+02  0.83053230584E+02  0.17229750173E+03  0.12509665848E+03 0.  0.
          5    1    3    3  502    0 -0.96587537828E+02  0.51013438972E+02  0.67453486594E+02  0.12844831129E+03  0.41800000000E+01 0. -1.
         -5    1    3    3    0  502  0.13003787888E+02 -0.38637140039E+02  0.15599743989E+02  0.43849190441E+02  0.41800000000E+01 0. -1.
        -11    1    1    2    0    0 -0.91268969997E+01  0.20662848564E+02  0.90487018106E+01  0.24333774143E+02  0.00000000000E+00 0.  1.
         11    1    1    2    0    0  0.92710646940E+02 -0.33039147497E+02 -0.34232295941E+01  0.98481306978E+02  0.00000000000E+00 0. -1.
</event>
<event>
 7    1  0.2490079E-009  0.1224855E+03  0.7561462E-02  0.1239052E+00
          1   -1    0    0  501    0  0.00000000000E+00  0.00000000000E+00  0.28547164186E+03  0.28547164186E+03  0.00000000000E+00 0. -1.
         -1   -1    0    0    0  501 -0.00000000000E+00 -0.00000000000E+00 -0.80741679773E+02  0.80741679773E+02  0.00000000000E+00 0.  1.
         25    2    1    2    0    0  0.86735608721E+02  0.31975595989E+02  0.17611834911E+03  0.23496270155E+03  0.12507715086E+03 0.  0.
          5    1    3    3  502    0  0.88044663957E+02  0.69910194363E+02  0.15437575332E+03  0.19102000875E+03  0.41800000000E+01 0.  1.
         -5    1    3    3    0  502 -0.13090552362E+01 -0.37934598374E+02  0.21742595783E+02  0.43942692803E+02  0.41800000000E+01 0.  1.
        -11    1    1    2    0    0 -0.21933643198E+02 -0.17056262474E+02  0.53470646690E+02  0.60258699380E+02  0.00000000000E+00 0. -1.
         11    1    1    2    0    0 -0.64801965523E+02 -0.14919333515E+02 -0.24859033711E+02  0.70991920703E+02  0.00000000000E+00 0.  1.
</event>
<event>
 7    1  0.2490079E-009  0.1244604E+03  0.7561462E-02  0.1235915E+00
         -2   -1    0    0    0  501 -0.00000000000E+00  0.00000000000E+00  0.17240470935E+02  0.17240470935E+02  0.00000000000E+00 0.  1.
          2   -1    0    0  501    0  0.00000000000E+00 -0.00000000000E+00 -0.99396153498E+03  0.99396153498E+03  0.00000000000E+00 0. -1.
         25    2    1    2    0    0  0.58236995187E+02 -0.28104081627E+02 -0.69695767066E+03  0.71104045166E+03  0.12508853743E+03 0.  0.
          5    1    3    3  502    0  0.94015616163E+02 -0.40397308631E+02 -0.48540823204E+03  0.49609424786E+03  0.41800000000E+01 0. -1.
         -5    1    3    3    0  502 -0.35778620975E+02  0.12293227004E+02 -0.21154943861E+03  0.21494620380E+03  0.41800000000E+01 0. -1.
        -11    1    1    2    0    0 -0.57574054927E+02  0.56133073319E+02 -0.19701250219E+03  0.21279008375E+03  0.00000000000E+00 0.  1.
         11    1    1    2    0    0 -0.66294026063E+00 -0.28028991692E+02 -0.82750891194E+02  0.87371470506E+02  0.00000000000E+00 0. -1.
</event>
<event>
 7    1  0.2490079E-009  0.1483592E+03  0.7561462E-02  0.1202504E+00
         -2   -1    0    0    0  501 -0.00000000000E+00  0.00000000000E+00  0.18448520410E+03  0.18448520410E+03  0.00000000000E+00 0.  1.
          2   -1    0    0  501    0  0.00000000000E+00 -0.00000000000E+00 -0.22340044538E+03  0.22340044538E+03  0.00000000000E+00 0. -1.
         25    2    1    2    0    0 -0.88821295545E+02 -0.79869235746E+02  0.10121361527E+03  0.20039089247E+03  0.12507596296E+03 0.  0.
          5    1    3    3  502    0 -0.73896875035E+02 -0.98620668967E+02  0.32527323207E+02  0.12752365915E+03  0.41800000000E+01 0. -1.
         -5    1    3    3    0  502 -0.14924420510E+02  0.18751433220E+02  0.68686292061E+02  0.72867233325E+02  0.41800000000E+01 0. -1.
        -11    1    1    2    0    0  0.50940718384E+02 -0.96812674930E+01 -0.27473143862E+02  0.58680979571E+02  0.00000000000E+00 0.  1.
         11    1    1    2    0    0  0.37880577161E+02  0.89550503239E+02 -0.11265571268E+03  0.14881377744E+03  0.00000000000E+00 0. -1.
</event>
<event>
 7    1  0.2490079E-009  0.1033415E+03  0.7561462E-02  0.1273422E+00
         -1   -1    0    0    0  501 -0.00000000000E+00  0.00000000000E+00  0.31802847975E+02  0.31802847975E+02  0.00000000000E+00 0.  1.
          1   -1    0    0  501    0  0.00000000000E+00 -0.00000000000E+00 -0.42767148255E+03  0.42767148255E+03  0.00000000000E+00 0. -1.
         25    2    1    2    0    0  0.15556378628E+02  0.17455361292E+02 -0.29438094898E+03  0.32071185691E+03  0.12509700832E+03 0.  0.
          5    1    3    3  502    0 -0.39273989838E+02 -0.25632503314E+02 -0.18521630521E+03  0.19110736150E+03  0.41800000000E+01 0. -1.
         -5    1    3    3    0  502  0.54830368466E+02  0.43087864605E+02 -0.10916464377E+03  0.12960449541E+03  0.41800000000E+01 0. -1.
        -11    1    1    2    0    0 -0.29891898185E+02  0.28681159438E+02 -0.25278191681E+02  0.48529593636E+02  0.00000000000E+00 0.  1.
         11    1    1    2    0    0  0.14335519557E+02 -0.46136520729E+02 -0.76209493918E+02  0.90232879979E+02  0.00000000000E+00 0. -1.
</event>
<event>
 7    1  0.3177979E-009  0.1940964E+03  0.7561462E-02  0.1154818E+00
         -2   -1    0    0    0  501 -0.00000000000E+00  0.00000000000E+00  0.10167215705E+03  0.10167215705E+03  0.00000000000E+00 0.  1.
          2   -1    0    0  501    0  0.00000000000E+00 -0.00000000000E+00 -0.65598711749E+03  0.65598711749E+03  0.00000000000E+00 0. -1.
         25    2    1    2    0    0 -0.26759232560E+02 -0.17402445114E+03 -0.51082086942E+03  0.55460449719E+03  0.12509045344E+03 0.  0.
          5    1    3    3  502    0 -0.36858824959E+02 -0.36925040708E+02 -0.45396827177E+02  0.69284745264E+02  0.41800000000E+01 0.  1.
         -5    1    3    3    0  502  0.10099592399E+02 -0.13709941044E+03 -0.46542404224E+03  0.48531975192E+03  0.41800000000E+01 0.  1.
        -11    1    1    2    0    0 -0.34093396637E+02  0.68125842129E+02 -0.15178856893E+02  0.77678103456E+02  0.00000000000E+00 0.  1.
         11    1    1    2    0    0  0.60852629197E+02  0.10589860901E+03 -0.28315234128E+02  0.12537667389E+03  0.00000000000E+00 0. -1.
</event>
<event>
 7    1  0.2490079E-009  0.1158892E+03  0.7561462E-02  0.1250037E+00
         -1   -1    0    0    0  501 -0.00000000000E+00  0.00000000000E+00  0.21905520969E+03  0.21905520969E+03  0.00000000000E+00 0.  1.
          1   -1    0    0  501    0  0.00000000000E+00 -0.00000000000E+00 -0.87040424165E+02  0.87040424165E+02  0.00000000000E+00 0. -1.
         25    2    1    2    0    0 -0.15464535394E+02 -0.82683227635E+02  0.81089043184E+02  0.17116521161E+03  0.12508568565E+03 0.  0.
          5    1    3    3  502    0  0.35917808426E+02 -0.60213643552E+02  0.90067947512E+02  0.11421680875E+03  0.41800000000E+01 0. -1.
         -5    1    3    3    0  502 -0.51382343820E+02 -0.22469584083E+02 -0.89789043285E+01  0.56948402860E+02  0.41800000000E+01 0. -1.
        -11    1    1    2    0    0 -0.18591333111E+02  0.63611928744E+02  0.65582338942E+02  0.93237108098E+02  0.00000000000E+00 0.  1.
         11    1    1    2    0    0  0.34055868505E+02  0.19071298891E+02 -0.14656596598E+02  0.41693314150E+02  0.00000000000E+00 0. -1.
</event>
<event>
 7    1  0.2490079E-009  0.1860595E+03  0.7561462E-02  0.1162064E+00
          2   -1    0    0  501    0  0.00000000000E+00  0.00000000000E+00  0.85516489440E+03  0.85516489440E+03  0.00000000000E+00 0. -1.
         -2   -1    0    0    0  501 -0.00000000000E+00 -0.00000000000E+00 -0.10217470418E+03  0.10217470418E+03  0.00000000000E+00 0.  1.
         25    2    1    2    0    0  0.16991368636E+02  0.17853709863E+03  0.47915534297E+02  0.22384675456E+03  0.12508904391E+03 0.  0.
          5    1    3    3  502    0  0.16997951149E+02  0.11330846447E+03  0.90301854841E+02  0.14594394763E+03  0.41800000000E+01 0.  1.
         -5    1    3    3    0  502 -0.65825137702E-02  0.65228634160E+02 -0.42386320543E+02  0.77902806926E+02  0.41800000000E+01 0.  1.
        -11    1    1    2    0    0  0.15615647548E+02 -0.14309405354E+03  0.61195581249E+03  0.62865703929E+03  0.00000000000E+00 0. -1.
         11    1    1    2    0    0 -0.32607016184E+02 -0.35443045092E+02  0.93118843434E+02  0.10483580472E+03  0.00000000000E+00 0.  1.
</event>
<event>
 7    1  0.2490079E-009  0.2318781E+03  0.7561462E-02  0.1125325E+00
          2   -1    0    0  501    0  0.00000000000E+00  0.00000000000E+00  0.11308553423E+04  0.11308553423E+04  0.00000000000E+00 0. -1.
         -2   -1    0    0    0  501 -0.00000000000E+00 -0.00000000000E+00 -0.56141334994E+02  0.56141334994E+02  0.00000000000E+00 0.  1.
         25    2    1    2    0    0  0.65158242896E+02  0.21457434376E+03  0.61023755777E+03  0.66206185860E+03  0.12509309368E+03 0.  0.
          5    1    3    3  502    0  0.40608298212E+02  0.31058250825E+02  0.26861910221E+03  0.27347274690E+03  0.41800000000E+01 0. -1.
         -5    1    3    3    0  502  0.24549944684E+02  0.18351609294E+03  0.34161845556E+03  0.38858911170E+03  0.41800000000E+01 0. -1.
        -11    1    1    2    0    0 -0.56524335261E+02 -0.12396140673E+03  0.17681049729E+03  0.22321152028E+03  0.00000000000E+00 0.  1.
         11    1    1    2    0    0 -0.86339076357E+01 -0.90612937027E+02  0.28766595221E+03  0.30172329837E+03  0.00000000000E+00 0. -1.
</event>
<event>
 7    1  0.2490079E-009  0.1301816E+03  0.7561462E-02  0.1227187E+00
         -2   -1    0    0    0  501 -0.00000000000E+00  0.00000000000E+00  0.53829785487E+02  0.53829785487E+02  0.00000000000E+00 0.  1.
          2   -1    0    0  501    0  0.00000000000E+00 -0.00000000000E+00 -0.98218298110E+03  0.98218298110E+03  0.00000000000E+00 0. -1.
         25    2    1    2    0    0  0.59683534708E+02 -0.11468471733E+03 -0.83236683084E+03  0.85158480159E+03  0.12508966588E+03 0.  0.
          5    1    3    3  502    0  0.70115258374E+00 -0.78482998766E+01 -0.45221925209E+03  0.45230720953E+03  0.41800000000E+01 0.  1.
         -5    1    3    3    0  502  0.58982382125E+02 -0.10683641745E+03 -0.38014757875E+03  0.39927759206E+03  0.41800000000E+01 0.  1.
        -11    1    1    2    0    0 -0.11163981650E+02  0.24618458720E+02  0.17058629002E+02  0.31964039473E+02  0.00000000000E+00 0.  1.
         11    1    1    2    0    0 -0.48519553059E+02  0.90066258610E+02 -0.11304499378E+03  0.15246392553E+03  0.00000000000E+00 0. -1.
</event>
<event>
 7    1  0.2490079E-009  0.2332301E+03  0.7561462E-02  0.1124387E+00
          1   -1    0    0  501    0  0.00000000000E+00  0.00000000000E+00  0.11535861376E+04  0.11535861376E+04  0.00000000000E+00 0. -1.
         -1   -1    0    0    0  501 -0.00000000000E+00 -0.00000000000E+00 -0.57042890520E+02  0.57042890520E+02  0.00000000000E+00 0.  1.
         25    2    1    2    0    0 -0.11376291700E+03 -0.18374325625E+03  0.76416507705E+03  0.80392738590E+03  0.12508953316E+03 0.  0.
          5    1    3    3  502    0 -0.55703407616E+02 -0.18314567117E+03  0.58957169692E+03  0.61988504152E+03  0.41800000000E+01 0. -1.
         -5    1    3    3    0  502 -0.58059509385E+02 -0.59758507775E+00  0.17459338013E+03  0.18404234438E+03  0.41800000000E+01 0. -1.
        -11    1    1    2    0    0  0.10234902901E+03  0.15394826368E+03  0.20792363050E+03  0.27822226321E+03  0.00000000000E+00 0.  1.
         11    1    1    2    0    0  0.11413887990E+02  0.29794992571E+02  0.12445453956E+03  0.12847937904E+03  0.00000000000E+00 0. -1.
</event>
<event>
 7    1  0.2490079E-009  0.1039410E+03  0.7561462E-02  0.1272220E+00
         -4   -1    0    0    0  501 -0.00000000000E+00  0.00000000000E+00  0.45865795564E+03  0.45865795564E+03  0.00000000000E+00 0.  1.
          4   -1    0    0  501    0  0.00000000000E+00 -0.00000000000E+00 -0.36712481792E+02  0.36712481792E+02  0.00000000000E+00 0. -1.
         25    2    1    2    0    0 -0.64089154465E+02  0.11623394950E+02  0.17979415566E+03  0.22850682555E+03  0.12508760084E+03 0.  0.
          5    1    3    3  502    0  0.15100013512E+02  0.45652884613E+01  0.13729316844E+03  0.13825967874E+03  0.41800000000E+01 0. -1.
         -5    1    3    3    0  502 -0.79189167977E+02  0.70581064892E+01  0.42500987227E+02  0.90247146810E+02  0.41800000000E+01 0. -1.
        -11    1    1    2    0    0  0.85130108034E+02  0.47888174408E+01  0.17730074390E+03  0.19673744396E+03  0.00000000000E+00 0.  1.
         11    1    1    2    0    0 -0.21040953569E+02 -0.16412212391E+02  0.64850574279E+02  0.70126167919E+02  0.00000000000E+00 0. -1.
</event>
<event>
 7    1  0.2490079E-009  0.1907380E+03  0.7561462E-02  0.1157797E+00
         -2   -1    0    0    0  501 -0.00000000000E+00  0.00000000000E+00  0.35117788743E+03  0.35117788743E+03  0.00000000000E+00 0.  1.
          2   -1    0    0  501    0  0.00000000000E+00 -0.00000000000E+00 -0.12712797521E+03  0.12712797521E+03  0.00000000000E+00 0. -1.
         25    2    1    2    0    0  0.76852364868E+02  0.15569448984E+03  0.59797134088E+02  0.22219236247E+03  0.12508672409E+03 0.  0.
          5    1    3    3  502    0  0.70594063160E+02  0.22171466390E+02 -0.35839089641E+01  0.74198466822E+02  0.41800000000E+01 0.  1.
         -5    1    3    3    0  502  0.62583017083E+01  0.13352302345E+03  0.63381043052E+02  0.14799389565E+03  0.41800000000E+01 0.  1.
        -11    1    1    2    0    0 -0.51520769116E+02 -0.10430117570E+03  0.16112380259E+03  0.19873098566E+03  0.00000000000E+00 0.  1.
         11    1    1    2    0    0 -0.25331595752E+02 -0.51393314144E+02  0.31289755446E+01  0.57382514497E+02  0.00000000000E+00 0. -1.
</event>
<event>
 7    1  0.2797071E-009  0.6519726E+02  0.7561462E-02  0.1377231E+00
          2   -1    0    0  501    0  0.00000000000E+00  0.00000000000E+00  0.22486462681E+03  0.22486462681E+03  0.00000000000E+00 0. -1.
         -2   -1    0    0    0  501 -0.00000000000E+00 -0.00000000000E+00 -0.66929177189E+02  0.66929177189E+02  0.00000000000E+00 0.  1.
         25    2    1    2    0    0  0.36268843343E+02  0.39902239410E+02  0.65926379390E+02  0.15134098844E+03  0.12510071772E+03 0.  0.
          5    1    3    3  502    0  0.57791200992E+01  0.35857432306E+02  0.99268663687E+02  0.10578702033E+03  0.41800000000E+01 0.  1.
         -5    1    3    3    0  502  0.30489723244E+02  0.40448071041E+01 -0.33342284297E+02  0.45553968106E+02  0.41800000000E+01 0.  1.
        -11    1    1    2    0    0 -0.38528789984E+02 -0.21238157688E+02 -0.25253749355E+01  0.44067045716E+02  0.00000000000E+00 0.  1.
         11    1    1    2    0    0  0.22599466402E+01 -0.18664081722E+02  0.94534445166E+02  0.96385769842E+02  0.00000000000E+00 0. -1.
</event>
<event>
 7    1  0.2490079E-009  0.1331108E+03  0.7561462E-02  0.1222912E+00
         -1   -1    0    0    0  501 -0.00000000000E+00  0.00000000000E+00  0.16076160446E+03  0.16076160446E+03  0.00000000000E+00 0.  1.
          1   -1    0    0  501    0  0.00000000000E+00 -0.00000000000E+00 -0.17871822276E+03  0.17871822276E+03  0.00000000000E+00 0. -1.
         25    2    1    2    0    0  0.54623739336E+02  0.53648264018E+02 -0.11370369712E+03  0.18557750969E+03  0.12509433333E+03 0.  0.
          5    1    3    3  502    0  0.94467187826E+02  0.48225168835E+02 -0.85216851758E+02  0.13612163938E+03  0.41800000000E+01 0. -1.
         -5    1    3    3    0  502 -0.39843448490E+02  0.54230951838E+01 -0.28486845358E+02  0.49455870303E+02  0.41800000000E+01 0. -1.
        -11    1    1    2    0    0 -0.63020634880E+02  0.23093760131E+01  0.41343629754E+02  0.75407090910E+02  0.00000000000E+00 0.  1.
         11    1    1    2    0    0  0.83968955445E+01 -0.55957640031E+02  0.54403449057E+02  0.78495226619E+02  0.00000000000E+00 0. -1.
</event>
<event>
 7    1  0.2490079E-009  0.9036255E+02  0.7561462E-02  0.1301976E+00
         -1   -1    0    0    0  501 -0.00000000000E+00  0.00000000000E+00  0.27823046115E+03  0.27823046115E+03  0.00000000000E+00 0.  1.
          1   -1    0    0  501    0  0.00000000000E+00 -0.00000000000E+00 -0.84441582044E+02  0.84441582044E+02  0.00000000000E+00 0. -1.
         25    2    1    2    0    0  0.18095666669E+02 -0.72063615701E+02  0.19756329869E+03  0.24535396549E+03  0.12508674404E+03 0.  0.
          5    1    3    3  502    0  0.77622086161E+01 -0.10983686098E+02  0.18038316047E+03  0.18093217023E+03  0.41800000000E+01 0.  1.
         -5    1    3    3    0  502  0.10333458053E+02 -0.61079929603E+02  0.17180138220E+02  0.64421795263E+02  0.41800000000E+01 0.  1.
        -11    1    1    2    0    0  0.26618990164E+02  0.45004586318E+02  0.24669266380E+02  0.57814843516E+02  0.00000000000E+00 0.  1.
         11    1    1    2    0    0 -0.44714656833E+02  0.27059029382E+02 -0.28443685967E+02  0.59503234183E+02  0.00000000000E+00 0. -1.
</event>
<event>
 7    1  0.2490079E-009  0.2338150E+03  0.7561462E-02  0.1123983E+00
          1   -1    0    0  501    0  0.00000000000E+00  0.00000000000E+00  0.16155215963E+03  0.16155215963E+03  0.00000000000E+00 0. -1.
         -1   -1    0    0    0  501 -0.00000000000E+00 -0.00000000000E+00 -0.43619886915E+03  0.43619886915E+03  0.00000000000E+00 0.  1.
         25    2    1    2    0    0 -0.42634926348E+02 -0.20692089997E+03 -0.27349427531E+03  0.36753244648E+03  0.12508790828E+03 0.  0.
          5    1    3    3  502    0 -0.84872825496E+02 -0.11753393274E+03 -0.18240414013E+03  0.23303726009E+03  0.41800000000E+01 0.  1.
         -5    1    3    3    0  502  0.42237899148E+02 -0.89386967225E+02 -0.91090135184E+02  0.13449518639E+03  0.41800000000E+01 0.  1.
        -11    1    1    2    0    0  0.58760372476E+02  0.10387606720E+03 -0.27863425416E+02  0.12255361760E+03  0.00000000000E+00 0. -1.
         11    1    1    2    0    0 -0.16125446127E+02  0.10304483277E+03  0.26710991205E+02  0.10766496470E+03  0.00000000000E+00 0.  1.
</event>
<event>
 7    1  0.2490079E-009  0.1030296E+03  0.7561462E-02  0.1274051E+00
          2   -1    0    0  501    0  0.00000000000E+00  0.00000000000E+00  0.42444682622E+03  0.42444682622E+03  0.00000000000E+00 0.  1.
         -2   -1    0    0    0  501 -0.00000000000E+00 -0.00000000000E+00 -0.48513730586E+02  0.48513730586E+02  0.00000000000E+00 0. -1.
         25    2    1    2    0    0  0.72301274701E+02  0.47354714168E+02  0.26596978220E+03  0.30636368257E+03  0.12509531437E+03 0.  0.
          5    1    3    3  502    0  0.41276825969E+02  0.88749634516E+01  0.73857379187E+01  0.43064635873E+02  0.41800000000E+01 0.  1.
         -5    1    3    3    0  502  0.31024448733E+02  0.38479750716E+02  0.25858404428E+03  0.26329904669E+03  0.41800000000E+01 0.  1.
        -11    1    1    2    0    0 -0.65895789139E+02  0.34781568937E+00  0.96075389418E+02  0.11650260278E+03  0.00000000000E+00 0.  1.
         11    1    1    2    0    0 -0.64054855628E+01 -0.47702529857E+02  0.13887924024E+02  0.50094271467E+02  0.00000000000E+00 0. -1.
</event>
<event>
 7    1  0.2490079E-009  0.1523100E+03  0.7561462E-02  0.1197663E+00
         -4   -1    0    0    0  501 -0.00000000000E+00  0.00000000000E+00  0.60017886847E+03  0.60017886847E+03  0.00000000000E+00 0.  1.
          4   -1    0    0  501    0  0.00000000000E+00 -0.00000000000E+00 -0.54593254010E+02  0.54593254010E+02  0.00000000000E+00 0. -1.
         25    2    1    2    0    0  0.66700407232E+02  0.12820745848E+03  0.31777287415E+03  0.37082709764E+03  0.12508812919E+03 0.  0.
          5    1    3    3  502    0  0.63522532478E+02  0.11651392137E+03  0.14130680722E+03  0.19389608602E+03  0.41800000000E+01 0. -1.
         -5    1    3    3    0  502  0.31778747537E+01  0.11693537113E+02  0.17646606692E+03  0.17693101162E+03  0.41800000000E+01 0. -1.
        -11    1    1    2    0    0 -0.76716096012E+02 -0.84241333914E+02  0.11245709268E+03  0.16008922331E+03  0.00000000000E+00 0. -1.
         11    1    1    2    0    0  0.10015688781E+02 -0.43966124567E+02  0.11535564764E+03  0.12385580153E+03  0.00000000000E+00 0.  1.
</event>
<event>
 7    1  0.2490079E-009  0.1104724E+03  0.7561462E-02  0.1259698E+00
          1   -1    0    0  501    0  0.00000000000E+00  0.00000000000E+00  0.61878304140E+03  0.61878304140E+03  0.00000000000E+00 0.  1.
         -1   -1    0    0    0  501 -0.00000000000E+00 -0.00000000000E+00 -0.28616820948E+02  0.28616820948E+02  0.00000000000E+00 0. -1.
         25    2    1    2    0    0 -0.63815545312E+02 -0.13229428428E+02  0.42993538398E+03  0.45247958258E+03  0.12508355867E+03 0.  0.
          5    1    3    3  502    0  0.17649307666E+02 -0.33534813392E+02  0.26116524544E+03  0.26393339992E+03  0.41800000000E+01 0.  1.
         -5    1    3    3    0  502 -0.81464852978E+02  0.20305384964E+02  0.16877013855E+03  0.18854618266E+03  0.41800000000E+01 0.  1.
        -11    1    1    2    0    0  0.13295187662E+02  0.39597844113E+02  0.26276662471E+02  0.49347890168E+02  0.00000000000E+00 0. -1.
         11    1    1    2    0    0  0.50520357649E+02 -0.26368415686E+02  0.13395417400E+03  0.14557238961E+03  0.00000000000E+00 0.  1.
</event>
<event>
 7    1  0.2838567E-009  0.8989847E+02  0.7561462E-02  0.1303098E+00
          1   -1    0    0  501    0  0.00000000000E+00  0.00000000000E+00  0.15450632681E+03  0.15450632681E+03  0.00000000000E+00 0. -1.
         -1   -1    0    0    0  501 -0.00000000000E+00 -0.00000000000E+00 -0.10143178666E+03  0.10143178666E+03  0.00000000000E+00 0.  1.
         25    2    1    2    0    0 -0.21980147803E+02  0.34769829661E+02 -0.18968796243E+02  0.13304037303E+03  0.12509139727E+03 0.  0.
          5    1    3    3  502    0  0.48673321987E+01 -0.37984460545E+02 -0.36889885450E+02  0.53337099792E+02  0.41800000000E+01 0.  1.
         -5    1    3    3    0  502 -0.26847480001E+02  0.72754290207E+02  0.17921089207E+02  0.79703273234E+02  0.41800000000E+01 0.  1.
        -11    1    1    2    0    0 -0.15616776292E+02 -0.89027529619E+01 -0.15783538253E+02  0.23922014795E+02  0.00000000000E+00 0.  1.
         11    1    1    2    0    0  0.37596924095E+02 -0.25867076699E+02  0.87826874648E+02  0.98975725655E+02  0.00000000000E+00 0. -1.
</event>
<event>
 7    1  0.2490079E-009  0.1574471E+03  0.7561462E-02  0.1191609E+00
         -1   -1    0    0    0  501 -0.00000000000E+00  0.00000000000E+00  0.23427873159E+02  0.23427873159E+02  0.00000000000E+00 0.  1.
          1   -1    0    0  501    0  0.00000000000E+00 -0.00000000000E+00 -0.21326418897E+04  0.21326418897E+04  0.00000000000E+00 0. -1.
         25    2    1    2    0    0 -0.12506760568E+03 -0.29780960768E+02 -0.18011127403E+04  0.18100231000E+04  0.12509079693E+03 0.  0.
          5    1    3    3  502    0 -0.30157903953E+02  0.35158116782E+02 -0.22732991443E+03  0.23203869233E+03  0.41800000000E+01 0.  1.
         -5    1    3    3    0  502 -0.94909701726E+02 -0.64939077551E+02 -0.15737828259E+04  0.15779844077E+04  0.41800000000E+01 0.  1.
        -11    1    1    2    0    0  0.96293038762E+02 -0.17587926360E+02 -0.15605801532E+03  0.18421668929E+03  0.00000000000E+00 0. -1.
         11    1    1    2    0    0  0.28774566916E+02  0.47368887128E+02 -0.15204326091E+03  0.16182997361E+03  0.00000000000E+00 0.  1.
</event>
<event>
 7    1  0.2490079E-009  0.7123262E+02  0.7561462E-02  0.1355951E+00
          1   -1    0    0  501    0  0.00000000000E+00  0.00000000000E+00  0.17548080647E+03  0.17548080647E+03  0.00000000000E+00 0. -1.
         -1   -1    0    0    0  501 -0.00000000000E+00 -0.00000000000E+00 -0.90063716870E+02  0.90063716870E+02  0.00000000000E+00 0.  1.
         25    2    1    2    0    0  0.60683724779E+02 -0.13214995741E+02  0.55195312512E+02  0.15017030742E+03  0.12508976034E+03 0.  0.
          5    1    3    3  502    0  0.28177622561E+02  0.16459271993E+02  0.88760110498E+02  0.94661056741E+02  0.41800000000E+01 0.  1.
         -5    1    3    3    0  502  0.32506102218E+02 -0.29674267733E+02 -0.33564797986E+02  0.55509250677E+02  0.41800000000E+01 0.  1.
        -11    1    1    2    0    0 -0.51411661455E+02  0.29129699656E+01  0.62064870700E+02  0.80645474161E+02  0.00000000000E+00 0. -1.
         11    1    1    2    0    0 -0.92720633243E+01  0.10302025775E+02 -0.31843093613E+02  0.34728741760E+02  0.00000000000E+00 0.  1.
</event>
<event>
 7    1  0.2490079E-009  0.7719038E+02  0.7561462E-02  0.1337219E+00
         -2   -1    0    0    0  501 -0.00000000000E+00  0.00000000000E+00  0.95826270373E+02  0.95826270373E+02  0.00000000000E+00 0.  1.
          2   -1    0    0  501    0  0.00000000000E+00 -0.00000000000E+00 -0.13008130396E+03  0.13008130396E+03  0.00000000000E+00 0. -1.
         25    2    1    2    0    0  0.27016259161E+02  0.28877808725E+02 -0.23274401922E+02  0.13323990552E+03  0.12508944217E+03 0.  0.
          5    1    3    3  502    0 -0.28510886154E+02 -0.16215258001E+02 -0.47260743790E+02  0.57678900171E+02  0.41800000000E+01 0. -1.
         -5    1    3    3    0  502  0.55527145315E+02  0.45093066726E+02  0.23986341868E+02  0.75561005353E+02  0.41800000000E+01 0. -1.
        -11    1    1    2    0    0 -0.26903953578E+02 -0.70194679560E+01  0.33242238715E+02  0.43337536655E+02  0.00000000000E+00 0.  1.
         11    1    1    2    0    0 -0.11230558277E+00 -0.21858340769E+02 -0.44222870378E+02  0.49330132153E+02  0.00000000000E+00 0. -1.
</event>
<event>
 7    1  0.2836999E-009  0.6758346E+02  0.7561462E-02  0.1368509E+00
          2   -1    0    0  501    0  0.00000000000E+00  0.00000000000E+00  0.53650787061E+03  0.53650787061E+03  0.00000000000E+00 0. -1.
         -2   -1    0    0    0  501 -0.00000000000E+00 -0.00000000000E+00 -0.22404802059E+02  0.22404802059E+02  0.00000000000E+00 0.  1.
         25    2    1    2    0    0 -0.56068880696E+00  0.22553349434E+01  0.25135028042E+03  0.28076717417E+03  0.12509133352E+03 0.  0.
          5    1    3    3  502    0 -0.21233033643E+02 -0.19652017672E+02  0.24851193319E+03  0.25022529220E+03  0.41800000000E+01 0. -1.
         -5    1    3    3    0  502  0.20672344836E+02  0.21907352616E+02  0.28383472213E+01  0.30541881975E+02  0.41800000000E+01 0. -1.
        -11    1    1    2    0    0  0.99061280609E+00 -0.38882650607E+02  0.56057847271E+02  0.68229935312E+02  0.00000000000E+00 0.  1.
         11    1    1    2    0    0 -0.42992399914E+00  0.36627315664E+02  0.20669494086E+03  0.20991556318E+03  0.00000000000E+00 0. -1.
</event>
<event>
 7    1  0.2490079E-009  0.7954163E+02  0.7561462E-02  0.1330357E+00
          3   -1    0    0  501    0  0.00000000000E+00  0.00000000000E+00  0.70719234638E+02  0.70719234638E+02  0.00000000000E+00 0.  1.
         -3   -1    0    0    0  501 -0.00000000000E+00 -0.00000000000E+00 -0.21762242539E+03  0.21762242539E+03  0.00000000000E+00 0. -1.
         25    2    1    2    0    0 -0.47615416045E+02  0.38796900374E+02 -0.77898966434E+02  0.15965355950E+03  0.12509429550E+03 0.  0.
          5    1    3    3  502    0 -0.44702514396E+02  0.36499013620E+01 -0.10547428922E+03  0.11469060406E+03  0.41800000000E+01 0. -1.
         -5    1    3    3    0  502 -0.29129016488E+01  0.35146999012E+02  0.27575322782E+02  0.44962955443E+02  0.41800000000E+01 0. -1.
        -11    1    1    2    0    0  0.39176318686E+02 -0.50612627578E+02 -0.62862258351E+01  0.64311263799E+02  0.00000000000E+00 0.  1.
         11    1    1    2    0    0  0.84390973592E+01  0.11815727204E+02 -0.62717998486E+02  0.64376836733E+02  0.00000000000E+00 0. -1.
</event>
<event>
 7    1  0.2490079E-009  0.8057701E+02  0.7561462E-02  0.1327422E+00
          2   -1    0    0  501    0  0.00000000000E+00  0.00000000000E+00  0.46664376854E+03  0.46664376854E+03  0.00000000000E+00 0. -1.
         -2   -1    0    0    0  501 -0.00000000000E+00 -0.00000000000E+00 -0.34272380778E+02  0.34272380778E+02  0.00000000000E+00 0.  1.
         25    2    1    2    0    0  0.14751388739E+02 -0.61574660613E+02  0.20809625027E+03  0.25091998848E+03  0.12509096267E+03 0.  0.
          5    1    3    3  502    0 -0.23808905393E+02 -0.12417848500E+02  0.18042856553E+03  0.18246371309E+03  0.41800000000E+01 0.  1.
         -5    1    3    3    0  502  0.38560294132E+02 -0.49156812114E+02  0.27667684744E+02  0.68456275387E+02  0.41800000000E+01 0.  1.
        -11    1    1    2    0    0 -0.22812508583E+02  0.24726662259E+02  0.14124479487E+02  0.36487248390E+02  0.00000000000E+00 0.  1.
         11    1    1    2    0    0  0.80611198437E+01  0.36847998355E+02  0.21015065800E+03  0.21350891245E+03  0.00000000000E+00 0. -1.
</event>
<event>
 7    1  0.2490079E-009  0.1470222E+03  0.7561462E-02  0.1204181E+00
          3   -1    0    0  501    0  0.00000000000E+00  0.00000000000E+00  0.62576205906E+02  0.62576205906E+02  0.00000000000E+00 0. -1.
         -3   -1    0    0    0  501 -0.00000000000E+00 -0.00000000000E+00 -0.45806731180E+03  0.45806731180E+03  0.00000000000E+00 0.  1.
         25    2    1    2    0    0 -0.10152973039E+03  0.78929284943E+02 -0.18636171445E+03  0.25868199158E+03  0.12509023135E+03 0.  0.
          5    1    3    3  502    0 -0.19872915140E+02  0.65060354469E+02 -0.15622387801E+03  0.17044399356E+03  0.41800000000E+01 0.  1.
         -5    1    3    3    0  502 -0.81656815252E+02  0.13868930475E+02 -0.30137836442E+02  0.88237998023E+02  0.41800000000E+01 0.  1.
        -11    1    1    2    0    0  0.63397372777E+02 -0.99978877597E+01 -0.40638972343E+02  0.75965194055E+02  0.00000000000E+00 0.  1.
         11    1    1    2    0    0  0.38132357615E+02 -0.68931397184E+02 -0.16849041910E+03  0.18599633207E+03  0.00000000000E+00 0. -1.
</event>
<event>
 7    1  0.2490079E-009  0.9978313E+02  0.7561462E-02  0.1280753E+00
         -2   -1    0    0    0  501 -0.00000000000E+00  0.00000000000E+00  0.97615935415E+02  0.97615935415E+02  0.00000000000E+00 0.  1.
          2   -1    0    0  501    0  0.00000000000E+00 -0.00000000000E+00 -0.13862966958E+03  0.13862966958E+03  0.00000000000E+00 0. -1.
         25    2    1    2    0    0  0.42024822438E+02  0.13278970702E+02 -0.13307262342E+02  0.13329315660E+03  0.12509022984E+03 0.  0.
          5    1    3    3  502    0  0.70818549727E+01  0.66634364540E+02 -0.17038505996E+02  0.69268133323E+02  0.41800000000E+01 0.  1.
         -5    1    3    3    0  502  0.34942967466E+02 -0.53355393838E+02  0.37312436535E+01  0.64025023281E+02  0.41800000000E+01 0.  1.
        -11    1    1    2    0    0 -0.24081882485E+01 -0.26603893069E+02  0.24382321088E+02  0.36167168520E+02  0.00000000000E+00 0.  1.
         11    1    1    2    0    0 -0.39616634190E+02  0.13324922368E+02 -0.52088792914E+02  0.66785279874E+02  0.00000000000E+00 0. -1.
</event>
<event>
 7    1  0.2490079E-009  0.1127124E+03  0.7561462E-02  0.1255628E+00
          1   -1    0    0  501    0  0.00000000000E+00  0.00000000000E+00  0.70371065718E+03  0.70371065718E+03  0.00000000000E+00 0. -1.
         -1   -1    0    0    0  501 -0.00000000000E+00 -0.00000000000E+00 -0.22423734162E+02  0.22423734162E+02  0.00000000000E+00 0.  1.
         25    2    1    2    0    0  0.32882233587E+02 -0.46346640687E+02  0.31160127219E+03  0.34054855301E+03  0.12509481099E+03 0.  0.
          5    1    3    3  502    0 -0.18639918759E+02  0.23206360076E+02  0.18314358693E+03  0.18559371636E+03  0.41800000000E+01 0. -1.
         -5    1    3    3    0  502  0.51522152346E+02 -0.69553000762E+02  0.12845768526E+03  0.15495483665E+03  0.41800000000E+01 0. -1.
        -11    1    1    2    0    0 -0.43644062917E+02  0.70131496718E+02  0.30022568277E+03  0.31138190643E+03  0.00000000000E+00 0.  1.
         11    1    1    2    0    0  0.10761829330E+02 -0.23784856031E+02  0.69459968057E+02  0.74203931900E+02  0.00000000000E+00 0. -1.
</event>
<event>
 7    1  0.2490079E-009  0.9676504E+02  0.7561462E-02  0.1287250E+00
          1   -1    0    0  501    0  0.00000000000E+00  0.00000000000E+00  0.79864329256E+02  0.79864329256E+02  0.00000000000E+00 0. -1.
         -1   -1    0    0    0  501 -0.00000000000E+00 -0.00000000000E+00 -0.26888529818E+03  0.26888529818E+03  0.00000000000E+00 0.  1.
         25    2    1    2    0    0  0.41369705737E+02  0.62942476788E+02 -0.17242098373E+03  0.22594604383E+03  0.12509760652E+03 0.  0.
          5    1    3    3  502    0  0.10725178408E+02  0.17475387867E+02  0.18087890558E+02  0.27659768940E+02  0.41800000000E+01 0.  1.
         -5    1    3    3    0  502  0.30644527329E+02  0.45467088921E+02 -0.19050887428E+03  0.19828627489E+03  0.41800000000E+01 0.  1.
        -11    1    1    2    0    0 -0.61944919724E+02 -0.72132780152E+02 -0.45360869980E+00  0.95081632364E+02  0.00000000000E+00 0.  1.
         11    1    1    2    0    0  0.20575213987E+02  0.91903033635E+01 -0.16146376499E+02  0.27721951241E+02  0.00000000000E+00 0. -1.
</event>
<event>
 7    1  0.2490079E-009  0.1285102E+03  0.7561462E-02  0.1229683E+00
          4   -1    0    0  501    0  0.00000000000E+00  0.00000000000E+00  0.11995745229E+03  0.11995745229E+03  0.00000000000E+00 0. -1.
         -4   -1    0    0    0  501 -0.00000000000E+00 -0.00000000000E+00 -0.37964980134E+03  0.37964980134E+03  0.00000000000E+00 0.  1.
         25    2    1    2    0    0 -0.44651070469E+02  0.61700999996E+02 -0.32775448502E+03  0.35898730614E+03  0.12509257380E+03 0.  0.
          5    1    3    3  502    0  0.29304420032E+02  0.64325431504E+02 -0.18603928899E+03  0.19905928669E+03  0.41800000000E+01 0. -1.
         -5    1    3    3    0  502 -0.73955490501E+02 -0.26244315081E+01 -0.14171519603E+03  0.15992801944E+03  0.41800000000E+01 0. -1.
        -11    1    1    2    0    0 -0.22427376382E+02 -0.23951208482E+01 -0.71762500833E+01  0.23669017312E+02  0.00000000000E+00 0.  1.
         11    1    1    2    0    0  0.67078446851E+02 -0.59305879148E+02  0.75238386053E+02  0.11695093018E+03  0.00000000000E+00 0. -1.
</event>
<event>
 7    1  0.2490079E-009  0.1080214E+03  0.7561462E-02  0.1264278E+00
          3   -1    0    0  501    0  0.00000000000E+00  0.00000000000E+00  0.23897142278E+03  0.23897142278E+03  0.00000000000E+00 0. -1.
         -3   -1    0    0    0  501 -0.00000000000E+00 -0.00000000000E+00 -0.63721336307E+02  0.63721336307E+02  0.00000000000E+00 0.  1.
         25    2    1    2    0    0 -0.17480806878E+01 -0.47825724386E+01  0.16467920825E+03  0.20686391302E+03  0.12508999999E+03 0.  0.
          5    1    3    3  502    0 -0.52469358921E+02  0.30813931502E+02  0.62775959927E+02  0.87526142066E+02  0.41800000000E+01 0.  1.
         -5    1    3    3    0  502  0.50721278233E+02 -0.35596503941E+02  0.10190324832E+03  0.11933777096E+03  0.41800000000E+01 0.  1.
        -11    1    1    2    0    0  0.24326043076E+02  0.42509363129E+02  0.16007823645E+02  0.51527203914E+02  0.00000000000E+00 0.  1.
         11    1    1    2    0    0 -0.22577962388E+02 -0.37726790690E+02 -0.54369454247E+01  0.44301642147E+02  0.00000000000E+00 0. -1.
</event>
<event>
 7    1  0.2490079E-009  0.1376727E+03  0.7561462E-02  0.1216495E+00
         -2   -1    0    0    0  501 -0.00000000000E+00  0.00000000000E+00  0.13785580429E+03  0.13785580429E+03  0.00000000000E+00 0. -1.
          2   -1    0    0  501    0  0.00000000000E+00 -0.00000000000E+00 -0.18841720614E+03  0.18841720614E+03  0.00000000000E+00 0.  1.
         25    2    1    2    0    0  0.70831066482E+02  0.80733394501E+02 -0.77008420102E+02  0.18196929631E+03  0.12509039558E+03 0.  0.
          5    1    3    3  502    0 -0.21457890892E+02  0.26730594754E+02 -0.65881535502E+02  0.74382893850E+02  0.41800000000E+01 0.  1.
         -5    1    3    3    0  502  0.92288957374E+02  0.54002799747E+02 -0.11126884600E+02  0.10758640246E+03  0.41800000000E+01 0.  1.
        -11    1    1    2    0    0 -0.58900743580E+02 -0.72344292387E+01  0.35725049151E+02  0.69266974075E+02  0.00000000000E+00 0. -1.
         11    1    1    2    0    0 -0.11930322902E+02 -0.73498965263E+02 -0.92780308918E+01  0.75036740044E+02  0.00000000000E+00 0.  1.
</event>
<event>
 7    1  0.2490079E-009  0.9595472E+02  0.7561462E-02  0.1289040E+00
          1   -1    0    0  501    0  0.00000000000E+00  0.00000000000E+00  0.11291026746E+03  0.11291026746E+03  0.00000000000E+00 0. -1.
         -1   -1    0    0    0  501 -0.00000000000E+00 -0.00000000000E+00 -0.23091629737E+03  0.23091629737E+03  0.00000000000E+00 0.  1.
         25    2    1    2    0    0  0.68037552150E+02 -0.41098538978E+02  0.31650642544E+02  0.15155146671E+03  0.12509150842E+03 0.  0.
          5    1    3    3  502    0  0.31814544060E+02 -0.16445530263E+02 -0.48306788887E+02  0.60279672627E+02  0.41800000000E+01 0.  1.
         -5    1    3    3    0  502  0.36223008090E+02 -0.24653008715E+02  0.79957431431E+02  0.91271794081E+02  0.41800000000E+01 0.  1.
        -11    1    1    2    0    0 -0.80918621683E+02  0.14394565940E+02 -0.72418636501E+02  0.10954216438E+03  0.00000000000E+00 0. -1.
         11    1    1    2    0    0  0.12881069533E+02  0.26703973037E+02 -0.77238035952E+02  0.82732933744E+02  0.00000000000E+00 0.  1.
</event>
<event>
 7    1  0.2490079E-009  0.9401818E+02  0.7561462E-02  0.1293403E+00
          2   -1    0    0  501    0  0.00000000000E+00  0.00000000000E+00  0.79138226721E+03  0.79138226721E+03  0.00000000000E+00 0. -1.
         -2   -1    0    0    0  501 -0.00000000000E+00 -0.00000000000E+00 -0.17963293359E+02  0.17963293359E+02  0.00000000000E+00 0.  1.
         25    2    1    2    0    0 -0.13042180350E+02  0.19268840183E+02  0.58781802499E+03  0.60143071445E+03  0.12508991609E+03 0.  0.
          5    1    3    3  502    0  0.19180929116E+02  0.56836805055E+02  0.46618001557E+03  0.47004213616E+03  0.41800000000E+01 0.  1.
         -5    1    3    3    0  502 -0.32223109466E+02 -0.37567964872E+02  0.12163800943E+03  0.13138857829E+03  0.41800000000E+01 0.  1.
        -11    1    1    2    0    0  0.10375696392E+02 -0.48137401898E+02  0.16541258621E+03  0.17258675561E+03  0.00000000000E+00 0.  1.
         11    1    1    2    0    0  0.26664839586E+01  0.28868561715E+02  0.20188362646E+02  0.35328090502E+02  0.00000000000E+00 0. -1.
</event>
<event>
 7    1  0.2490079E-009  0.1614489E+03  0.7561462E-02  0.1187071E+00
          2   -1    0    0  501    0  0.00000000000E+00  0.00000000000E+00  0.22093673037E+03  0.22093673037E+03  0.00000000000E+00 0.  1.
         -2   -1    0    0    0  501 -0.00000000000E+00 -0.00000000000E+00 -0.47492276359E+03  0.47492276359E+03  0.00000000000E+00 0. -1.
         25    2    1    2    0    0  0.27951902863E+01 -0.14081154470E+03 -0.42451506910E+03  0.46443067770E+03  0.12508839391E+03 0.  0.
          5    1    3    3  502    0 -0.53840404999E+02 -0.91895116323E+02 -0.18553570273E+03  0.21397306139E+03  0.41800000000E+01 0.  1.
         -5    1    3    3    0  502  0.56635595286E+02 -0.48916428374E+02 -0.23897936637E+03  0.25045761631E+03  0.41800000000E+01 0.  1.
        -11    1    1    2    0    0 -0.74926086255E+01  0.73061295044E+02  0.13755485491E+03  0.15593405698E+03  0.00000000000E+00 0.  1.
         11    1    1    2    0    0  0.46974183392E+01  0.67750249654E+02  0.32974180971E+02  0.75494759275E+02  0.00000000000E+00 0. -1.
</event>
<event>
 7    1  0.2490079E-009  0.1134857E+03  0.7561462E-02  0.1254248E+00
         -2   -1    0    0    0  501 -0.00000000000E+00  0.00000000000E+00  0.25893258033E+02  0.25893258033E+02  0.00000000000E+00 0.  1.
          2   -1    0    0  501    0  0.00000000000E+00 -0.00000000000E+00 -0.62345279533E+03  0.62345279533E+03  0.00000000000E+00 0. -1.
         25    2    1    2    0    0  0.24726641773E+02  0.36151415336E+02 -0.45679986860E+03  0.47563849843E+03  0.12509008593E+03 0.  0.
          5    1    3    3  502    0 -0.38736142574E+02  0.53103978173E+02 -0.25539451600E+03  0.26375054965E+03  0.41800000000E+01 0. -1.
         -5    1    3    3    0  502  0.63462784347E+02 -0.16952562837E+02 -0.20140535260E+03  0.21188794878E+03  0.41800000000E+01 0. -1.
        -11    1    1    2    0    0 -0.17200580674E+02 -0.64087158228E+02 -0.66197538322E+02  0.93729066490E+02  0.00000000000E+00 0.  1.
         11    1    1    2    0    0 -0.75260610985E+01  0.27935742892E+02 -0.74562130380E+02  0.79978488441E+02  0.00000000000E+00 0. -1.
</event>
<event>
 7    1  0.2490079E-009  0.2117420E+03  0.7561462E-02  0.1140194E+00
          3   -1    0    0  501    0  0.00000000000E+00  0.00000000000E+00  0.22192148136E+03  0.22192148136E+03  0.00000000000E+00 0. -1.
         -3   -1    0    0    0  501 -0.00000000000E+00 -0.00000000000E+00 -0.26977803218E+03  0.26977803218E+03  0.00000000000E+00 0.  1.
         25    2    1    2    0    0  0.15862857904E+03 -0.11704406569E+03 -0.12122173109E+03  0.26306741344E+03  0.12508963395E+03 0.  0.
          5    1    3    3  502    0 -0.86694102325E+01 -0.37538721745E+02 -0.52943150395E+02  0.65610699416E+02  0.41800000000E+01 0. -1.
         -5    1    3    3    0  502  0.16729798927E+03 -0.79505343949E+02 -0.68278580695E+02  0.19745671402E+03  0.41800000000E+01 0. -1.
        -11    1    1    2    0    0 -0.38220291065E+02  0.13146946005E+02  0.55409647324E+02  0.68584705692E+02  0.00000000000E+00 0. -1.
         11    1    1    2    0    0 -0.12040828797E+03  0.10389711969E+03  0.17955532949E+02  0.16004739440E+03  0.00000000000E+00 0.  1.
</event>
<event>
 7    1  0.2608793E-009  0.9937350E+02  0.7561462E-02  0.1281619E+00
          2   -1    0    0  501    0  0.00000000000E+00  0.00000000000E+00  0.88287336579E+03  0.88287336579E+03  0.00000000000E+00 0. -1.
         -2   -1    0    0    0  501 -0.00000000000E+00 -0.00000000000E+00 -0.16845344088E+02  0.16845344088E+02  0.00000000000E+00 0.  1.
         25    2    1    2    0    0  0.34244404162E+02  0.80885719077E+01  0.64432384544E+03  0.65729665321E+03  0.12509024067E+03 0.  0.
          5    1    3    3  502    0 -0.10408845802E+02  0.58612852366E+02  0.36967993821E+03  0.37446567219E+03  0.41800000000E+01 0.  1.
         -5    1    3    3    0  502  0.44653249965E+02 -0.50524280458E+02  0.27464390723E+03  0.28283098102E+03  0.41800000000E+01 0.  1.
        -11    1    1    2    0    0 -0.15821003794E+02 -0.35281408013E+02  0.32861312727E+02  0.50743943348E+02  0.00000000000E+00 0.  1.
         11    1    1    2    0    0 -0.18423400368E+02  0.27192836105E+02  0.18884286354E+03  0.19167811332E+03  0.00000000000E+00 0. -1.
</event>
<event>
 7    1  0.2490079E-009  0.1117678E+03  0.7561462E-02  0.1257331E+00
         -1   -1    0    0    0  501 -0.00000000000E+00  0.00000000000E+00  0.29483895428E+02  0.29483895428E+02  0.00000000000E+00 0.  1.
          1   -1    0    0  501    0  0.00000000000E+00 -0.00000000000E+00 -0.55519953305E+03  0.55519953305E+03  0.00000000000E+00 0. -1.
         25    2    1    2    0    0 -0.60113044491E+02 -0.73595746097E+01 -0.23079411995E+03  0.26940970988E+03  0.12509166448E+03 0.  0.
          5    1    3    3  502    0 -0.68508465925E+01  0.50355743249E+02 -0.46394730953E+02  0.68938947173E+02  0.41800000000E+01 0. -1.
         -5    1    3    3    0  502 -0.53262197899E+02 -0.57715317858E+02 -0.18439938899E+03  0.20047076271E+03  0.41800000000E+01 0. -1.
        -11    1    1    2    0    0 -0.43698535947E+01 -0.22439920706E+02 -0.17194034926E+02  0.28605602577E+02  0.00000000000E+00 0.  1.
         11    1    1    2    0    0  0.64482898086E+02  0.29799495316E+02 -0.27772748275E+03  0.28666811602E+03  0.00000000000E+00 0. -1.
</event>
<event>
 7    1  0.2490079E-009  0.6511866E+02  0.7561462E-02  0.1377526E+00
         -2   -1    0    0    0  501 -0.00000000000E+00  0.00000000000E+00  0.37584678789E+02  0.37584678789E+02  0.00000000000E+00 0.  1.
          2   -1    0    0  501    0  0.00000000000E+00 -0.00000000000E+00 -0.34475036191E+03  0.34475036191E+03  0.00000000000E+00 0. -1.
         25    2    1    2    0    0 -0.16841577226E+02 -0.35041453054E+01 -0.20885159049E+03  0.24404873503E+03  0.12507949658E+03 0.  0.
          5    1    3    3  502    0 -0.23465285600E+02 -0.17413531018E+02 -0.22163869405E+03  0.22359569269E+03  0.41800000000E+01 0.  1.
         -5    1    3    3    0  502  0.66237083744E+01  0.13909385712E+02  0.12787103562E+02  0.20453042341E+02  0.41800000000E+01 0.  1.
        -11    1    1    2    0    0 -0.30698919361E+02  0.17321337592E+02 -0.76412167097E+02  0.84150292135E+02  0.00000000000E+00 0. -1.
         11    1    1    2    0    0  0.47540496587E+02 -0.13817192287E+02 -0.21901925533E+02  0.54136013526E+02  0.00000000000E+00 0.  1.
</event>
<event>
 7    1  0.2490079E-009  0.1238658E+03  0.7561462E-02  0.1236853E+00
         -1   -1    0    0    0  501 -0.00000000000E+00  0.00000000000E+00  0.19198851739E+02  0.19198851739E+02  0.00000000000E+00 0.  1.
          1   -1    0    0  501    0  0.00000000000E+00 -0.00000000000E+00 -0.10754807656E+04  0.10754807656E+04  0.00000000000E+00 0. -1.
         25    2    1    2    0    0  0.87966842300E+02  0.92094851738E+01 -0.68943550387E+03  0.70625234483E+03  0.12509228840E+03 0.  0.
          5    1    3    3  502    0  0.25302889958E+02  0.45011447613E+02 -0.10216144661E+03  0.11454562510E+03  0.41800000000E+01 0.  1.
         -5    1    3    3    0  502  0.62663952343E+02 -0.35801962440E+02 -0.58727405726E+03  0.59170671973E+03  0.41800000000E+01 0.  1.
        -11    1    1    2    0    0 -0.22031209215E+01 -0.34226680855E+02 -0.15054675892E+03  0.15440416460E+03  0.00000000000E+00 0.  1.
         11    1    1    2    0    0 -0.85763721379E+02  0.25017195681E+02 -0.21629965111E+03  0.23402310795E+03  0.00000000000E+00 0. -1.
</event>
<event>
 7    1  0.2490079E-009  0.1080449E+03  0.7561462E-02  0.1264234E+00
         -2   -1    0    0    0  501 -0.00000000000E+00  0.00000000000E+00  0.36723096502E+02  0.36723096502E+02  0.00000000000E+00 0.  1.
          2   -1    0    0  501    0  0.00000000000E+00 -0.00000000000E+00 -0.34619874528E+03  0.34619874528E+03  0.00000000000E+00 0. -1.
         25    2    1    2    0    0 -0.46049744923E+01 -0.27127829873E+02 -0.19466977364E+03  0.23302123878E+03  0.12508178129E+03 0.  0.
          5    1    3    3  502    0  0.50481380507E+02 -0.47241252148E+02 -0.10711355701E+03  0.12755740738E+03  0.41800000000E+01 0. -1.
         -5    1    3    3    0  502 -0.55086355000E+02  0.20113422275E+02 -0.87556216630E+02  0.10546383140E+03  0.41800000000E+01 0. -1.
        -11    1    1    2    0    0  0.41590687537E+02 -0.94273050675E+00 -0.24297684264E+02  0.48177292278E+02  0.00000000000E+00 0.  1.
         11    1    1    2    0    0 -0.36985713045E+02  0.28070560380E+02 -0.90508190867E+02  0.10172331072E+03  0.00000000000E+00 0. -1.
</event>
<event>
 7    1  0.2490079E-009  0.8442307E+02  0.7561462E-02  0.1316948E+00
         -1   -1    0    0    0  501 -0.00000000000E+00  0.00000000000E+00  0.11769180158E+03  0.11769180158E+03  0.00000000000E+00 0.  1.
          1   -1    0    0  501    0  0.00000000000E+00 -0.00000000000E+00 -0.13544939111E+03  0.13544939111E+03  0.00000000000E+00 0. -1.
         25    2    1    2    0    0 -0.50360342764E+02  0.18284149117E+02 -0.33152064061E+02  0.14005823217E+03  0.12508706894E+03 0.  0.
          5    1    3    3  502    0 -0.61038592190E+02  0.35210072579E+02 -0.69050222019E+02  0.98746465802E+02  0.41800000000E+01 0. -1.
         -5    1    3    3    0  502  0.10678249426E+02 -0.16925923463E+02  0.35898157958E+02  0.41311766371E+02  0.41800000000E+01 0. -1.
        -11    1    1    2    0    0  0.61219104172E+02 -0.61485787185E+01  0.47069606107E+02  0.77466970735E+02  0.00000000000E+00 0.  1.
         11    1    1    2    0    0 -0.10858761408E+02 -0.12135570398E+02 -0.31675131572E+02  0.35615989784E+02  0.00000000000E+00 0. -1.
</event>
<event>
 7    1  0.2490079E-009  0.1310989E+03  0.7561462E-02  0.1225834E+00
          2   -1    0    0  501    0  0.00000000000E+00  0.00000000000E+00  0.44050184446E+03  0.44050184446E+03  0.00000000000E+00 0. -1.
         -2   -1    0    0    0  501 -0.00000000000E+00 -0.00000000000E+00 -0.48575034089E+02  0.48575034089E+02  0.00000000000E+00 0.  1.
         25    2    1    2    0    0 -0.56850205829E+02  0.63743916523E+02  0.29226426648E+03  0.32917975750E+03  0.12508268660E+03 0.  0.
          5    1    3    3  502    0  0.13350681957E+02  0.65460131243E+02  0.21266328100E+03  0.22294935070E+03  0.41800000000E+01 0. -1.
         -5    1    3    3    0  502 -0.70200887786E+02 -0.17162147198E+01  0.79600985477E+02  0.10623040679E+03  0.41800000000E+01 0. -1.
        -11    1    1    2    0    0 -0.23456619635E+02 -0.29297238139E+02  0.26712512190E+02  0.46066250930E+02  0.00000000000E+00 0.  1.
         11    1    1    2    0    0  0.80306825464E+02 -0.34446678384E+02  0.72950031703E+02  0.11383087012E+03  0.00000000000E+00 0. -1.
</event>
<event>
 7    1  0.2490079E-009  0.1010981E+03  0.7561462E-02  0.1278004E+00
          4   -1    0    0  501    0  0.00000000000E+00  0.00000000000E+00  0.20661123990E+03  0.20661123990E+03  0.00000000000E+00 0. -1.
         -4   -1    0    0    0  501 -0.00000000000E+00 -0.00000000000E+00 -0.87050396856E+02  0.87050396856E+02  0.00000000000E+00 0.  1.
         25    2    1    2    0    0 -0.65397802722E+02 -0.15512115833E+02  0.11067154229E+03  0.18003654215E+03  0.12508983931E+03 0.  0.
          5    1    3    3  502    0 -0.42139440100E+02 -0.63110863530E+02  0.26491698747E+02  0.80485998844E+02  0.41800000000E+01 0.  1.
         -5    1    3    3    0  502 -0.23258362622E+02  0.47598747697E+02  0.84179843540E+02  0.99550543306E+02  0.41800000000E+01 0.  1.
        -11    1    1    2    0    0  0.24070838985E+02 -0.81723239211E+01  0.46459278450E+02  0.52959009827E+02  0.00000000000E+00 0. -1.
         11    1    1    2    0    0  0.41326963736E+02  0.23684439754E+02 -0.37569977696E+02  0.60666084777E+02  0.00000000000E+00 0.  1.
</event>
<event>
 7    1  0.2490079E-009  0.1060811E+03  0.7561462E-02  0.1268004E+00
         -2   -1    0    0    0  501 -0.00000000000E+00  0.00000000000E+00  0.36064464114E+02  0.36064464114E+02  0.00000000000E+00 0.  1.
          2   -1    0    0  501    0  0.00000000000E+00 -0.00000000000E+00 -0.43553141114E+03  0.43553141114E+03  0.00000000000E+00 0. -1.
         25    2    1    2    0    0  0.12893005346E+02 -0.45391681051E+02 -0.30302759196E+03  0.33121025857E+03  0.12509148490E+03 0.  0.
          5    1    3    3  502    0 -0.51077740603E+02 -0.24378722110E+02 -0.20129018398E+03  0.20913743865E+03  0.41800000000E+01 0.  1.
         -5    1    3    3    0  502  0.63970745949E+02 -0.21012958941E+02 -0.10173740798E+03  0.12207281992E+03  0.41800000000E+01 0.  1.
        -11    1    1    2    0    0  0.48524134279E+01  0.62859929718E+02 -0.96754397381E+02  0.11548302946E+03  0.00000000000E+00 0.  1.
         11    1    1    2    0    0 -0.17745418774E+02 -0.17468248667E+02  0.31504231900E+00  0.24902587227E+02  0.00000000000E+00 0. -1.
</event>
<event>
 7    1  0.2490079E-009  0.1153438E+03  0.7561462E-02  0.1250982E+00
          3   -1    0    0  501    0  0.00000000000E+00  0.00000000000E+00  0.20735761438E+03  0.20735761438E+03  0.00000000000E+00 0. -1.
         -3   -1    0    0    0  501 -0.00000000000E+00 -0.00000000000E+00 -0.71386675131E+02  0.71386675131E+02  0.00000000000E+00 0.  1.
         25    2    1    2    0    0  0.24520324845E+02 -0.51172684893E+02  0.82082086756E+02  0.16001609760E+03  0.12509113684E+03 0.  0.
          5    1    3    3  502    0 -0.28283119041E+01 -0.86083590853E+02  0.29580292347E+02  0.91163863771E+02  0.41800000000E+01 0.  1.
         -5    1    3    3    0  502  0.27348636749E+02  0.34910905960E+02  0.52501794409E+02  0.68852233828E+02  0.41800000000E+01 0.  1.
        -11    1    1    2    0    0 -0.23896837337E+02  0.73648039810E+02  0.56839868926E+02  0.96051357628E+02  0.00000000000E+00 0. -1.
         11    1    1    2    0    0 -0.62348750821E+00 -0.22475354917E+02 -0.29510164283E+01  0.22676834287E+02  0.00000000000E+00 0.  1.
</event>
<event>
 7    1  0.2490079E-009  0.1098517E+03  0.7561462E-02  0.1260845E+00
          1   -1    0    0  501    0  0.00000000000E+00  0.00000000000E+00  0.10025709706E+03  0.10025709706E+03  0.00000000000E+00 0. -1.
         -1   -1    0    0    0  501 -0.00000000000E+00 -0.00000000000E+00 -0.17734846170E+03  0.17734846170E+03  0.00000000000E+00 0.  1.
         25    2    1    2    0    0  0.46674506449E+02 -0.48855059379E+02 -0.76156528272E+02  0.16128517651E+03  0.12509102679E+03 0.  0.
          5    1    3    3  502    0  0.57067284212E+02 -0.38298810486E+01 -0.95193920812E+02  0.11113369370E+03  0.41800000000E+01 0. -1.
         -5    1    3    3    0  502 -0.10392777763E+02 -0.45025178330E+02  0.19037392540E+02  0.50151482810E+02  0.41800000000E+01 0. -1.
        -11    1    1    2    0    0 -0.75646804127E+02  0.40491570436E+02  0.33202732386E+01  0.85866352347E+02  0.00000000000E+00 0. -1.
         11    1    1    2    0    0  0.28972297678E+02  0.83634889429E+01 -0.42551096061E+01  0.30454029911E+02  0.00000000000E+00 0.  1.
</event>
<event>
 7    1  0.2490079E-009  0.1468889E+03  0.7561462E-02  0.1204349E+00
          1   -1    0    0  501    0  0.00000000000E+00  0.00000000000E+00  0.22203224441E+03  0.22203224441E+03  0.00000000000E+00 0. -1.
         -1   -1    0    0    0  501 -0.00000000000E+00 -0.00000000000E+00 -0.12114194525E+03  0.12114194525E+03  0.00000000000E+00 0.  1.
         25    2    1    2    0    0 -0.82540081500E+02 -0.84863514097E+02  0.88893899253E+02  0.19381628020E+03  0.12509174260E+03 0.  0.
          5    1    3    3  502    0 -0.83226260638E+02 -0.27832000908E+02  0.10253185465E+03  0.13502401399E+03  0.41800000000E+01 0. -1.
         -5    1    3    3    0  502  0.68617913848E+00 -0.57031513188E+02 -0.13637955401E+02  0.58792266208E+02  0.41800000000E+01 0. -1.
        -11    1    1    2    0    0 -0.15798872533E+02 -0.38838231610E+01 -0.72017868335E+00  0.16285180778E+02  0.00000000000E+00 0.  1.
         11    1    1    2    0    0  0.98338954032E+02  0.88747337258E+02  0.12716578587E+02  0.13307272869E+03  0.00000000000E+00 0. -1.
</event>
<event>
 7    1  0.2490079E-009  0.2464890E+03  0.7561462E-02  0.1115544E+00
         -1   -1    0    0    0  501 -0.00000000000E+00  0.00000000000E+00  0.75844289441E+02  0.75844289441E+02  0.00000000000E+00 0.  1.
          1   -1    0    0  501    0  0.00000000000E+00 -0.00000000000E+00 -0.10493464198E+04  0.10493464198E+04  0.00000000000E+00 0. -1.
         25    2    1    2    0    0  0.23621526798E+03 -0.13422476713E+02 -0.71355326920E+03  0.76209089807E+03  0.12508578347E+03 0.  0.
          5    1    3    3  502    0  0.22594977090E+03 -0.51729682824E+01 -0.71331146937E+03  0.74827186457E+03  0.41800000000E+01 0. -1.
         -5    1    3    3    0  502  0.10265497082E+02 -0.82495084310E+01 -0.24179982822E+00  0.13819033499E+02  0.41800000000E+01 0. -1.
        -11    1    1    2    0    0 -0.14263373491E+03  0.52103879403E+02 -0.16583761788E+03  0.22485842677E+03  0.00000000000E+00 0.  1.
         11    1    1    2    0    0 -0.93581533079E+02 -0.38681402689E+02 -0.94111243231E+02  0.13824138436E+03  0.00000000000E+00 0. -1.
</event>
<event>
 7    1  0.2490079E-009  0.1492978E+03  0.7561462E-02  0.1201339E+00
         -2   -1    0    0    0  501 -0.00000000000E+00  0.00000000000E+00  0.28303472162E+03  0.28303472162E+03  0.00000000000E+00 0.  1.
          2   -1    0    0  501    0  0.00000000000E+00 -0.00000000000E+00 -0.10457631737E+03  0.10457631737E+03  0.00000000000E+00 0. -1.
         25    2    1    2    0    0 -0.62906309888E+01  0.10323032038E+03  0.14925073888E+01  0.16231425993E+03  0.12509044853E+03 0.  0.
          5    1    3    3  502    0  0.21377575160E+01  0.13176642430E+03  0.57052658188E+01  0.13197341792E+03  0.41800000000E+01 0. -1.
         -5    1    3    3    0  502 -0.84283885047E+01 -0.28536103925E+02 -0.42127584300E+01  0.30340842005E+02  0.41800000000E+01 0. -1.
        -11    1    1    2    0    0  0.31774277961E+02 -0.14834351076E+01  0.24108240236E+02  0.39912561518E+02  0.00000000000E+00 0.  1.
         11    1    1    2    0    0 -0.25483646972E+02 -0.10174688527E+03  0.15285765663E+03  0.18538421754E+03  0.00000000000E+00 0. -1.
</event>
<event>
 7    1  0.2490079E-009  0.1025512E+03  0.7561462E-02  0.1275021E+00
         -2   -1    0    0    0  501 -0.00000000000E+00  0.00000000000E+00  0.84866688026E+03  0.84866688026E+03  0.00000000000E+00 0.  1.
          2   -1    0    0  501    0  0.00000000000E+00 -0.00000000000E+00 -0.17247337786E+02  0.17247337786E+02  0.00000000000E+00 0. -1.
         25    2    1    2    0    0 -0.32794118152E+02  0.29976705930E+02  0.58629052400E+03  0.60113007068E+03  0.12508687485E+03 0.  0.
          5    1    3    3  502    0 -0.24101322683E+02 -0.48041810909E+02  0.22168573164E+03  0.22814671894E+03  0.41800000000E+01 0. -1.
         -5    1    3    3    0  502 -0.86927954694E+01  0.78018516839E+02  0.36460479236E+03  0.37298335174E+03  0.41800000000E+01 0. -1.
        -11    1    1    2    0    0 -0.91428947036E+01  0.10755963029E+02  0.14509734834E+01  0.14191144714E+02  0.00000000000E+00 0. -1.
         11    1    1    2    0    0  0.41937012856E+02 -0.40732668959E+02  0.24367804499E+03  0.25059300265E+03  0.00000000000E+00 0.  1.
</event>
<event>
 7    1  0.2490079E-009  0.1381409E+03  0.7561462E-02  0.1215853E+00
         -3   -1    0    0    0  501 -0.00000000000E+00  0.00000000000E+00  0.33978529599E+02  0.33978529599E+02  0.00000000000E+00 0.  1.
          3   -1    0    0  501    0  0.00000000000E+00 -0.00000000000E+00 -0.70694296850E+03  0.70694296850E+03  0.00000000000E+00 0. -1.
         25    2    1    2    0    0 -0.33758752346E+02 -0.14980883274E+02 -0.37814505128E+03  0.40000571421E+03  0.12508721505E+03 0.  0.
          5    1    3    3  502    0 -0.69003416847E+02  0.49251136417E+01 -0.11920550386E+03  0.13788818960E+03  0.41800000000E+01 0.  1.
         -5    1    3    3    0  502  0.35244664500E+02 -0.19905996915E+02 -0.25893954742E+03  0.26211752461E+03  0.41800000000E+01 0.  1.
        -11    1    1    2    0    0 -0.86233128654E+01 -0.70419325925E+02 -0.86914137513E+02  0.11219318290E+03  0.00000000000E+00 0.  1.
         11    1    1    2    0    0  0.42382065212E+02  0.85400209199E+02 -0.20790525011E+03  0.22872260100E+03  0.00000000000E+00 0. -1.
</event>
<event>
 7    1  0.2490079E-009  0.1068350E+03  0.7561462E-02  0.1266546E+00
         -4   -1    0    0    0  501 -0.00000000000E+00  0.00000000000E+00  0.98596826187E+02  0.98596826187E+02  0.00000000000E+00 0.  1.
          4   -1    0    0  501    0  0.00000000000E+00 -0.00000000000E+00 -0.16189753766E+03  0.16189753766E+03  0.00000000000E+00 0. -1.
         25    2    1    2    0    0 -0.19215126538E+01  0.50084126596E+02  0.86215095932E+01  0.13502805108E+03  0.12508450025E+03 0.  0.
          5    1    3    3  502    0  0.27382878581E+02  0.79151585166E+02 -0.17954545497E+02  0.85759160314E+02  0.41800000000E+01 0.  1.
         -5    1    3    3    0  502 -0.29304391234E+02 -0.29067458570E+02  0.26576055091E+02  0.49268890768E+02  0.41800000000E+01 0.  1.
        -11    1    1    2    0    0 -0.28615243626E+02  0.11970336245E+01 -0.57235451212E+02  0.64001265087E+02  0.00000000000E+00 0.  1.
         11    1    1    2    0    0  0.30536756280E+02 -0.51281160220E+02 -0.14686769859E+02  0.61465047682E+02  0.00000000000E+00 0. -1.
</event>
<event>
 7    1  0.2490079E-009  0.1254943E+03  0.7561462E-02  0.1234299E+00
          2   -1    0    0  501    0  0.00000000000E+00  0.00000000000E+00  0.12104510110E+03  0.12104510110E+03  0.00000000000E+00 0. -1.
         -2   -1    0    0    0  501 -0.00000000000E+00 -0.00000000000E+00 -0.18869460596E+03  0.18869460596E+03  0.00000000000E+00 0.  1.
         25    2    1    2    0    0  0.32354767748E+00  0.95365463520E+02 -0.39654488310E+02  0.16221793352E+03  0.12508998040E+03 0.  0.
          5    1    3    3  502    0  0.25011176536E+02  0.82722728995E+02  0.26395355502E+02  0.90458808505E+02  0.41800000000E+01 0. -1.
         -5    1    3    3    0  502 -0.24687628859E+02  0.12642734525E+02 -0.66049843812E+02  0.71759125012E+02  0.41800000000E+01 0. -1.
        -11    1    1    2    0    0 -0.36675908357E+02 -0.25829463097E+01 -0.30604871782E+02  0.47837767947E+02  0.00000000000E+00 0.  1.
         11    1    1    2    0    0  0.36352360679E+02 -0.92782517210E+02  0.26098552252E+01  0.99684005593E+02  0.00000000000E+00 0. -1.
</event>
<event>
 7    1  0.2490079E-009  0.9110349E+02  0.7561462E-02  0.1300201E+00
          2   -1    0    0  501    0  0.00000000000E+00  0.00000000000E+00  0.20684686605E+03  0.20684686605E+03  0.00000000000E+00 0. -1.
         -2   -1    0    0    0  501 -0.00000000000E+00 -0.00000000000E+00 -0.65286364276E+02  0.65286364276E+02  0.00000000000E+00 0.  1.
         25    2    1    2    0    0 -0.30600068155E+02 -0.26805783764E+02  0.10155291153E+03  0.16618255990E+03  0.12509490462E+03 0.  0.
          5    1    3    3  502    0 -0.77911966586E+02 -0.28918312911E+01  0.54961749589E+02  0.95482477677E+02  0.41800000000E+01 0.  1.
         -5    1    3    3    0  502  0.47311898431E+02 -0.23913952473E+02  0.46591161940E+02  0.70700082227E+02  0.41800000000E+01 0.  1.
        -11    1    1    2    0    0  0.29316971128E+02  0.57720079874E+01 -0.24151207047E+02  0.38419808356E+02  0.00000000000E+00 0.  1.
         11    1    1    2    0    0  0.12830970272E+01  0.21033775777E+02  0.64158797294E+02  0.67530862068E+02  0.00000000000E+00 0. -1.
</event>
<event>
 7    1  0.2490079E-009  0.8281182E+02  0.7561462E-02  0.1321256E+00
         -1   -1    0    0    0  501 -0.00000000000E+00  0.00000000000E+00  0.21073764495E+02  0.21073764495E+02  0.00000000000E+00 0.  1.
          1   -1    0    0  501    0  0.00000000000E+00 -0.00000000000E+00 -0.10318805040E+04  0.10318805040E+04  0.00000000000E+00 0. -1.
         25    2    1    2    0    0 -0.11718154862E+02  0.35517052411E+02 -0.87558619157E+03  0.88526682239E+03  0.12508953510E+03 0.  0.
          5    1    3    3  502    0 -0.31402927043E+02  0.54393867195E+02 -0.82700464381E+03  0.82939676266E+03  0.41800000000E+01 0.  1.
         -5    1    3    3    0  502  0.19684772181E+02 -0.18876814785E+02 -0.48581547756E+02  0.55870059733E+02  0.41800000000E+01 0.  1.
        -11    1    1    2    0    0 -0.21538092719E+02  0.55495666125E+01  0.28418114948E+00  0.22243378487E+02  0.00000000000E+00 0.  1.
         11    1    1    2    0    0  0.33256247581E+02 -0.41066619023E+02 -0.13550472910E+03  0.14544406763E+03  0.00000000000E+00 0. -1.
</event>
<event>
 7    1  0.2490079E-009  0.1543608E+03  0.7561462E-02  0.1195215E+00
         -2   -1    0    0    0  501 -0.00000000000E+00  0.00000000000E+00  0.78352012434E+02  0.78352012434E+02  0.00000000000E+00 0.  1.
          2   -1    0    0  501    0  0.00000000000E+00 -0.00000000000E+00 -0.33357991480E+03  0.33357991480E+03  0.00000000000E+00 0. -1.
         25    2    1    2    0    0  0.11617498547E+03 -0.25326331545E+02 -0.12307144294E+03  0.21197182736E+03  0.12508966868E+03 0.  0.
          5    1    3    3  502    0 -0.24763159732E+02 -0.18497719904E+02 -0.18171772649E+02  0.36097997767E+02  0.41800000000E+01 0. -1.
         -5    1    3    3    0  502  0.14093814520E+03 -0.68286116408E+01 -0.10489967029E+03  0.17587382960E+03  0.41800000000E+01 0. -1.
        -11    1    1    2    0    0 -0.10883297431E+03 -0.12024911562E+01 -0.63542304040E+02  0.12603049902E+03  0.00000000000E+00 0.  1.
         11    1    1    2    0    0 -0.73420111643E+01  0.26528822701E+02 -0.68614155388E+02  0.73929600848E+02  0.00000000000E+00 0. -1.
</event>
<event>
 7    1  0.2490079E-009  0.8771580E+02  0.7561462E-02  0.1308479E+00
         -1   -1    0    0    0  501 -0.00000000000E+00  0.00000000000E+00  0.19474918251E+03  0.19474918251E+03  0.00000000000E+00 0.  1.
          1   -1    0    0  501    0  0.00000000000E+00 -0.00000000000E+00 -0.75880550454E+02  0.75880550454E+02  0.00000000000E+00 0. -1.
         25    2    1    2    0    0 -0.40929231410E+02 -0.24416426653E+01  0.10716694439E+03  0.16974590437E+03  0.12509098480E+03 0.  0.
          5    1    3    3  502    0 -0.36785005064E+02 -0.49631513710E+02  0.11593164837E+02  0.62994425322E+02  0.41800000000E+01 0. -1.
         -5    1    3    3    0  502 -0.41442263460E+01  0.47189871045E+02  0.95573779550E+02  0.10675147905E+03  0.41800000000E+01 0. -1.
        -11    1    1    2    0    0  0.51042506389E+02  0.11566054124E+02  0.42363075726E+02  0.67333062097E+02  0.00000000000E+00 0.  1.
         11    1    1    2    0    0 -0.10113274979E+02 -0.91244114589E+01 -0.30661388054E+02  0.33550766499E+02  0.00000000000E+00 0. -1.
</event>
<event>
 7    1  0.2490079E-009  0.5874478E+02  0.7561462E-02  0.1403176E+00
         -1   -1    0    0    0  501 -0.00000000000E+00  0.00000000000E+00  0.58141975237E+03  0.58141975237E+03  0.00000000000E+00 0.  1.
          1   -1    0    0  501    0  0.00000000000E+00 -0.00000000000E+00 -0.42144737359E+02  0.42144737359E+02  0.00000000000E+00 0. -1.
         25    2    1    2    0    0  0.82100325214E+01  0.11469641312E+01  0.51576216349E+03  0.53077895179E+03  0.12508783398E+03 0.  0.
          5    1    3    3  502    0  0.18496930321E+02 -0.93781619598E+01  0.77408355653E+01  0.22527300955E+02  0.41800000000E+01 0.  1.
         -5    1    3    3    0  502 -0.10286897800E+02  0.10525126091E+02  0.50802132793E+03  0.50825165083E+03  0.41800000000E+01 0.  1.
        -11    1    1    2    0    0 -0.40479072775E+02 -0.18375187947E+02  0.32560148055E+02  0.55103231359E+02  0.00000000000E+00 0.  1.
         11    1    1    2    0    0  0.32269040254E+02  0.17228223816E+02 -0.90472965366E+01  0.37682306582E+02  0.00000000000E+00 0. -1.
</event>
<event>
 7    1  0.2490079E-009  0.7090834E+02  0.7561462E-02  0.1357031E+00
         -1   -1    0    0    0  501 -0.00000000000E+00  0.00000000000E+00  0.27794794709E+03  0.27794794709E+03  0.00000000000E+00 0.  1.
          1   -1    0    0  501    0  0.00000000000E+00 -0.00000000000E+00 -0.64502650290E+02  0.64502650290E+02  0.00000000000E+00 0. -1.
         25    2    1    2    0    0 -0.38703064496E+02  0.18038336373E+02  0.19812793201E+03  0.23817041992E+03  0.12508861939E+03 0.  0.
          5    1    3    3  502    0 -0.14029807789E+01 -0.36796733413E+01 -0.17400067085E+02  0.18323293523E+02  0.41800000000E+01 0. -1.
         -5    1    3    3    0  502 -0.37300083717E+02  0.21718009715E+02  0.21552799909E+03  0.21984712640E+03  0.41800000000E+01 0. -1.
        -11    1    1    2    0    0  0.50400516202E+02 -0.42284746608E+02 -0.10919359584E+02  0.66689161359E+02  0.00000000000E+00 0. -1.
         11    1    1    2    0    0 -0.11697451705E+02  0.24246410234E+02  0.26236724372E+02  0.37591016100E+02  0.00000000000E+00 0.  1.
</event>
<event>
 7    1  0.2490079E-009  0.1328954E+03  0.7561462E-02  0.1223222E+00
          3   -1    0    0  501    0  0.00000000000E+00  0.00000000000E+00  0.93066331981E+02  0.93066331981E+02  0.00000000000E+00 0. -1.
         -3   -1    0    0    0  501 -0.00000000000E+00 -0.00000000000E+00 -0.28858357557E+03  0.28858357557E+03  0.00000000000E+00 0.  1.
         25    2    1    2    0    0 -0.27014228109E+02  0.88331911303E+02 -0.10287282318E+02  0.15583742565E+03  0.12508868847E+03 0.  0.
          5    1    3    3  502    0 -0.75009486027E+02  0.46128625700E+02  0.98313857200E+01  0.88704011455E+02  0.41800000000E+01 0. -1.
         -5    1    3    3    0  502  0.47995257918E+02  0.42203285603E+02 -0.20118668038E+02  0.67133414199E+02  0.41800000000E+01 0. -1.
        -11    1    1    2    0    0  0.10698798019E+02  0.95571744382E+01  0.14243607954E+01  0.14416402671E+02  0.00000000000E+00 0. -1.
         11    1    1    2    0    0  0.16315430090E+02 -0.97889085741E+02 -0.18665432207E+03  0.21139607923E+03  0.00000000000E+00 0.  1.
</event>
<event>
 7    1  0.2490079E-009  0.1772565E+03  0.7561462E-02  0.1170485E+00
          2   -1    0    0  501    0  0.00000000000E+00  0.00000000000E+00  0.90735224003E+03  0.90735224003E+03  0.00000000000E+00 0.  1.
         -2   -1    0    0    0  501 -0.00000000000E+00 -0.00000000000E+00 -0.38512092095E+02  0.38512092095E+02  0.00000000000E+00 0. -1.
         25    2    1    2    0    0 -0.12115992144E+03  0.23504492676E+02  0.33351983484E+03  0.37698248934E+03  0.12509248299E+03 0.  0.
          5    1    3    3  502    0 -0.20601506154E+01  0.41542258964E+02  0.16227540308E+03  0.16757321488E+03  0.41800000000E+01 0. -1.
         -5    1    3    3    0  502 -0.11909977082E+03 -0.18037766288E+02  0.17124443176E+03  0.20940927446E+03  0.41800000000E+01 0. -1.
        -11    1    1    2    0    0 -0.15685500643E+02 -0.50340690640E+02  0.16207069581E+03  0.17043218741E+03  0.00000000000E+00 0. -1.
         11    1    1    2    0    0  0.13684542208E+03  0.26836197964E+02  0.37324961729E+03  0.39844965538E+03  0.00000000000E+00 0.  1.
</event>
<event>
 7    1  0.2490079E-009  0.1095555E+03  0.7561462E-02  0.1261395E+00
         -1   -1    0    0    0  501 -0.00000000000E+00  0.00000000000E+00  0.29048753716E+02  0.29048753716E+02  0.00000000000E+00 0.  1.
          1   -1    0    0  501    0  0.00000000000E+00 -0.00000000000E+00 -0.43247136935E+03  0.43247136935E+03  0.00000000000E+00 0. -1.
         25    2    1    2    0    0 -0.11229397238E+02 -0.21919230401E+02 -0.25529905452E+03  0.28536383382E+03  0.12509339867E+03 0.  0.
          5    1    3    3  502    0 -0.68267962483E+02 -0.11259031715E+02 -0.13957427714E+03  0.15583880048E+03  0.41800000000E+01 0. -1.
         -5    1    3    3    0  502  0.57038565245E+02 -0.10660198686E+02 -0.11572477738E+03  0.12952503334E+03  0.41800000000E+01 0. -1.
        -11    1    1    2    0    0  0.49040937483E+02  0.22137337442E+02 -0.11003601060E+03  0.12248672943E+03  0.00000000000E+00 0. -1.
         11    1    1    2    0    0 -0.37811540245E+02 -0.21810704111E+00 -0.38087550513E+02  0.53669559812E+02  0.00000000000E+00 0.  1.
</event>
<event>
 7    1  0.2490079E-009  0.6361090E+02  0.7561462E-02  0.1383274E+00
          1   -1    0    0  501    0  0.00000000000E+00  0.00000000000E+00  0.22616557684E+03  0.22616557684E+03  0.00000000000E+00 0. -1.
         -1   -1    0    0    0  501 -0.00000000000E+00 -0.00000000000E+00 -0.65870890961E+02  0.65870890961E+02  0.00000000000E+00 0.  1.
         25    2    1    2    0    0 -0.18816772961E+02  0.22243985280E+02  0.32439300207E+02  0.13247254225E+03  0.12509116846E+03 0.  0.
          5    1    3    3  502    0 -0.12518012688E+01  0.23889196659E+01 -0.47700179124E+02  0.47958872297E+02  0.41800000000E+01 0. -1.
         -5    1    3    3    0  502 -0.17564971692E+02  0.19855065614E+02  0.80139479331E+02  0.84513669951E+02  0.41800000000E+01 0. -1.
        -11    1    1    2    0    0 -0.13817696476E+02  0.30444668098E+02  0.42237057835E+02  0.53868131637E+02  0.00000000000E+00 0.  1.
         11    1    1    2    0    0  0.32634469436E+02 -0.52688653378E+02  0.85618327838E+02  0.10569579392E+03  0.00000000000E+00 0. -1.
</event>
<event>
 7    1  0.2490079E-009  0.3149228E+03  0.7561462E-02  0.1078010E+00
         -1   -1    0    0    0  501 -0.00000000000E+00  0.00000000000E+00  0.88725038319E+03  0.88725038319E+03  0.00000000000E+00 0.  1.
          1   -1    0    0  501    0  0.00000000000E+00 -0.00000000000E+00 -0.14484399895E+03  0.14484399895E+03  0.00000000000E+00 0. -1.
         25    2    1    2    0    0 -0.23788569448E+03  0.19824402249E+03  0.58522594717E+03  0.67381598448E+03  0.12509306778E+03 0.  0.
          5    1    3    3  502    0 -0.61176261279E+02  0.49426016279E+02  0.56872580624E+02  0.97146429971E+02  0.41800000000E+01 0. -1.
         -5    1    3    3    0  502 -0.17670943320E+03  0.14881800621E+03  0.52835336655E+03  0.57666955451E+03  0.41800000000E+01 0. -1.
        -11    1    1    2    0    0  0.97322780343E+02 -0.32288070754E+02  0.32377122290E+02  0.10752916411E+03  0.00000000000E+00 0.  1.
         11    1    1    2    0    0  0.14056291413E+03 -0.16595595173E+03  0.12480331478E+03  0.25074923355E+03  0.00000000000E+00 0. -1.
</event>
<event>
 7    1  0.2490079E-009  0.6937540E+02  0.7561462E-02  0.1362230E+00
          1   -1    0    0  501    0  0.00000000000E+00  0.00000000000E+00  0.37139868203E+03  0.37139868203E+03  0.00000000000E+00 0. -1.
         -1   -1    0    0    0  501 -0.00000000000E+00 -0.00000000000E+00 -0.34252461291E+02  0.34252461291E+02  0.00000000000E+00 0.  1.
         25    2    1    2    0    0 -0.24872510476E+02 -0.21851108498E+02  0.27126521147E+03  0.30054355358E+03  0.12508197281E+03 0.  0.
          5    1    3    3  502    0 -0.39041707704E+02  0.87396491933E+01  0.26235840667E+03  0.26542426859E+03  0.41800000000E+01 0.  1.
         -5    1    3    3    0  502  0.14169197228E+02 -0.30590757691E+02  0.89068048060E+01  0.35119284988E+02  0.41800000000E+01 0.  1.
        -11    1    1    2    0    0  0.98953781705E+01 -0.18792572547E+02 -0.52024164455E+01  0.21866513873E+02  0.00000000000E+00 0.  1.
         11    1    1    2    0    0  0.14977132306E+02  0.40643681045E+02  0.71083425712E+02  0.83241075869E+02  0.00000000000E+00 0. -1.
</event>
<event>
 7    1  0.2490079E-009  0.1338476E+03  0.7561462E-02  0.1221856E+00
          2   -1    0    0  501    0  0.00000000000E+00  0.00000000000E+00  0.63107806150E+03  0.63107806150E+03  0.00000000000E+00 0. -1.
         -2   -1    0    0    0  501 -0.00000000000E+00 -0.00000000000E+00 -0.32208336541E+02  0.32208336541E+02  0.00000000000E+00 0.  1.
         25    2    1    2    0    0 -0.19915035017E+02 -0.77528340606E+02  0.22171354688E+03  0.26685501779E+03  0.12508977350E+03 0.  0.
          5    1    3    3  502    0  0.41392194326E+01 -0.10763639797E+03  0.14264011196E+03  0.17879150216E+03  0.41800000000E+01 0. -1.
         -5    1    3    3    0  502 -0.24054254450E+02  0.30108057362E+02  0.79073434920E+02  0.88063515631E+02  0.41800000000E+01 0. -1.
        -11    1    1    2    0    0 -0.25043788380E+02 -0.64661995236E+01  0.10282643365E+03  0.10602961157E+03  0.00000000000E+00 0. -1.
         11    1    1    2    0    0  0.44958823397E+02  0.83994540129E+02  0.27432974443E+03  0.29040176868E+03  0.00000000000E+00 0.  1.
</event>
<event>
 7    1  0.2490079E-009  0.1941019E+03  0.7561462E-02  0.1154813E+00
         -1   -1    0    0    0  501 -0.00000000000E+00  0.00000000000E+00  0.24949727517E+03  0.24949727517E+03  0.00000000000E+00 0.  1.
          1   -1    0    0  501    0  0.00000000000E+00 -0.00000000000E+00 -0.30037429588E+03  0.30037429588E+03  0.00000000000E+00 0. -1.
         25    2    1    2    0    0  0.18235591569E+03  0.61737152421E+02  0.13573717955E+03  0.26671691834E+03  0.12509267220E+03 0.  0.
          5    1    3    3  502    0  0.12333658492E+03  0.36275746929E+02  0.14516258512E+02  0.12944511252E+03  0.41800000000E+01 0. -1.
         -5    1    3    3    0  502  0.59019330773E+02  0.25461405492E+02  0.12122092104E+03  0.13727180581E+03  0.41800000000E+01 0. -1.
        -11    1    1    2    0    0 -0.84175013953E+02 -0.11757724379E+02 -0.13945884353E+03  0.16331701104E+03  0.00000000000E+00 0. -1.
         11    1    1    2    0    0 -0.98180901740E+02 -0.49979428042E+02 -0.47155356715E+02  0.11983764167E+03  0.00000000000E+00 0.  1.
</event>
<event>
 7    1  0.2490079E-009  0.1073295E+03  0.7561462E-02  0.1265597E+00
          2   -1    0    0  501    0  0.00000000000E+00  0.00000000000E+00  0.72853729370E+03  0.72853729370E+03  0.00000000000E+00 0. -1.
         -2   -1    0    0    0  501 -0.00000000000E+00 -0.00000000000E+00 -0.32688676630E+02  0.32688676630E+02  0.00000000000E+00 0.  1.
         25    2    1    2    0    0  0.82875863700E+02  0.30073823907E+02  0.53264310046E+03  0.55419234804E+03  0.12509053715E+03 0.  0.
          5    1    3    3  502    0  0.59645167840E+02  0.68974085419E+01  0.78855974096E+02  0.99201095467E+02  0.41800000000E+01 0.  1.
         -5    1    3    3    0  502  0.23230695860E+02  0.23176415365E+02  0.45378712637E+03  0.45499125257E+03  0.41800000000E+01 0.  1.
        -11    1    1    2    0    0  0.11978462020E+02 -0.23417829679E+02  0.13201520390E+02  0.29430569819E+02  0.00000000000E+00 0.  1.
         11    1    1    2    0    0 -0.94854325720E+02 -0.66559942280E+01  0.15000399622E+03  0.17760305248E+03  0.00000000000E+00 0. -1.
</event>
<event>
 7    1  0.2490079E-009  0.4476275E+02  0.7561462E-02  0.1475828E+00
          1   -1    0    0  501    0  0.00000000000E+00  0.00000000000E+00  0.20727084612E+03  0.20727084612E+03  0.00000000000E+00 0. -1.
         -1   -1    0    0    0  501 -0.00000000000E+00 -0.00000000000E+00 -0.78664903312E+02  0.78664903312E+02  0.00000000000E+00 0.  1.
         25    2    1    2    0    0 -0.16209712111E+02  0.94140604586E+00  0.14813323739E+03  0.19456053310E+03  0.12508678591E+03 0.  0.
          5    1    3    3  502    0 -0.12597531743E+01  0.52759904255E+01  0.16847139927E+03  0.16861052110E+03  0.41800000000E+01 0.  1.
         -5    1    3    3    0  502 -0.14949958936E+02 -0.43345843797E+01 -0.20338161886E+02  0.25950012000E+02  0.41800000000E+01 0.  1.
        -11    1    1    2    0    0  0.15219553938E+02 -0.32026820939E+02  0.20287759577E+02  0.40852726594E+02  0.00000000000E+00 0. -1.
         11    1    1    2    0    0  0.99015817274E+00  0.31085414893E+02 -0.39815054153E+02  0.50522489740E+02  0.00000000000E+00 0.  1.
</event>
<event>
 7    1  0.2490079E-009  0.9353763E+02  0.7561462E-02  0.1294504E+00
         -1   -1    0    0    0  501 -0.00000000000E+00  0.00000000000E+00  0.55517970869E+02  0.55517970869E+02  0.00000000000E+00 0.  1.
          1   -1    0    0  501    0  0.00000000000E+00 -0.00000000000E+00 -0.25298839008E+03  0.25298839008E+03  0.00000000000E+00 0. -1.
         25    2    1    2    0    0 -0.55729572652E+01 -0.35872465585E+02 -0.15352923442E+03  0.20133803834E+03  0.12509151938E+03 0.  0.
          5    1    3    3  502    0 -0.61982738004E+02 -0.38787334569E+02 -0.78943848071E+02  0.10768435672E+03  0.41800000000E+01 0. -1.
         -5    1    3    3    0  502  0.56409780739E+02  0.29148689846E+01 -0.74585386350E+02  0.93653681621E+02  0.41800000000E+01 0. -1.
        -11    1    1    2    0    0 -0.39213389798E+01 -0.97966363412E+01  0.23157869698E+02  0.25448731048E+02  0.00000000000E+00 0.  1.
         11    1    1    2    0    0  0.94942962450E+01  0.45669101926E+02 -0.67099054484E+02  0.81719591559E+02  0.00000000000E+00 0. -1.
</event>
<event>
 7    1  0.2490079E-009  0.1586230E+03  0.7561462E-02  0.1190260E+00
         -2   -1    0    0    0  501 -0.00000000000E+00  0.00000000000E+00  0.37159213768E+02  0.37159213768E+02  0.00000000000E+00 0.  1.
          2   -1    0    0  501    0  0.00000000000E+00 -0.00000000000E+00 -0.10610982102E+04  0.10610982102E+04  0.00000000000E+00 0. -1.
         25    2    1    2    0    0  0.12307743487E+03  0.72812540934E+02 -0.74603113327E+03  0.76984411691E+03  0.12509113253E+03 0.  0.
          5    1    3    3  502    0  0.67298774539E+02  0.85077374925E+02 -0.64182090772E+03  0.65093689000E+03  0.41800000000E+01 0. -1.
         -5    1    3    3    0  502  0.55778660332E+02 -0.12264833991E+02 -0.10421022555E+03  0.11890722691E+03  0.41800000000E+01 0. -1.
        -11    1    1    2    0    0 -0.10541904623E+03 -0.80022405959E+02 -0.27952133208E+03  0.30927162148E+03  0.00000000000E+00 0. -1.
         11    1    1    2    0    0 -0.17658388637E+02  0.72098650250E+01  0.16134689661E+01  0.19141685533E+02  0.00000000000E+00 0.  1.
</event>
<event>
 7    1  0.2490079E-009  0.1022502E+03  0.7561462E-02  0.1275634E+00
          2   -1    0    0  501    0  0.00000000000E+00  0.00000000000E+00  0.33313013926E+03  0.33313013926E+03  0.00000000000E+00 0. -1.
         -2   -1    0    0    0  501 -0.00000000000E+00 -0.00000000000E+00 -0.35871678897E+02  0.35871678897E+02  0.00000000000E+00 0.  1.
         25    2    1    2    0    0 -0.73163114842E+01 -0.77175055155E+01  0.15316010884E+03  0.19804106382E+03  0.12509658555E+03 0.  0.
          5    1    3    3  502    0  0.27063146565E+01 -0.65985640984E+02  0.76780629323E+02  0.10136156271E+03  0.41800000000E+01 0.  1.
         -5    1    3    3    0  502 -0.10022626141E+02  0.58268135468E+02  0.76379479513E+02  0.96679501118E+02  0.41800000000E+01 0.  1.
        -11    1    1    2    0    0 -0.33099554365E+02  0.17545023554E+02  0.11293980323E+03  0.11899078748E+03  0.00000000000E+00 0. -1.
         11    1    1    2    0    0  0.40415865849E+02 -0.98275180382E+01  0.31158548297E+02  0.51969966857E+02  0.00000000000E+00 0.  1.
</event>
<event>
 7    1  0.2490079E-009  0.1092780E+03  0.7561462E-02  0.1261913E+00
          2   -1    0    0  501    0  0.00000000000E+00  0.00000000000E+00  0.24278056692E+03  0.24278056692E+03  0.00000000000E+00 0. -1.
         -2   -1    0    0    0  501 -0.00000000000E+00 -0.00000000000E+00 -0.55230159965E+02  0.55230159965E+02  0.00000000000E+00 0.  1.
         25    2    1    2    0    0  0.40230786887E+02  0.11965476508E+02  0.11736743261E+03  0.17659917882E+03  0.12510182605E+03 0.  0.
          5    1    3    3  502    0  0.79992052049E+02 -0.13534729406E+02  0.54383502193E+02  0.97759679837E+02  0.41800000000E+01 0.  1.
         -5    1    3    3    0  502 -0.39761265161E+02  0.25500205913E+02  0.62983930419E+02  0.78839498983E+02  0.41800000000E+01 0.  1.
        -11    1    1    2    0    0 -0.56041790929E+02  0.15554606186E+02  0.18997322856E+02  0.61184363851E+02  0.00000000000E+00 0.  1.
         11    1    1    2    0    0  0.15811004041E+02 -0.27520082694E+02  0.51185651489E+02  0.60227184217E+02  0.00000000000E+00 0. -1.
</event>
<event>
 7    1  0.2490079E-009  0.1822114E+03  0.7561462E-02  0.1165680E+00
          2   -1    0    0  501    0  0.00000000000E+00  0.00000000000E+00  0.29154271934E+04  0.29154271934E+04  0.00000000000E+00 0. -1.
         -2   -1    0    0    0  501 -0.00000000000E+00 -0.00000000000E+00 -0.14319688720E+02  0.14319688720E+02  0.00000000000E+00 0.  1.
         25    2    1    2    0    0  0.69863425439E+02 -0.13865917991E+03  0.20896911598E+04  0.20991816508E+04  0.12508874045E+03 0.  0.
          5    1    3    3  502    0  0.95197925878E+02 -0.14283974606E+03  0.17095980685E+04  0.17181993093E+04  0.41800000000E+01 0. -1.
         -5    1    3    3    0  502 -0.25334500439E+02  0.41805661455E+01  0.38009309130E+03  0.38098234145E+03  0.41800000000E+01 0. -1.
        -11    1    1    2    0    0 -0.72888261895E+02  0.81016756239E+02  0.65147007928E+03  0.66052227646E+03  0.00000000000E+00 0. -1.
         11    1    1    2    0    0  0.30248364566E+01  0.57642423671E+02  0.15994626558E+03  0.17004295491E+03  0.00000000000E+00 0.  1.
</event>
<event>
 7    1  0.2490079E-009  0.7819727E+02  0.7561462E-02  0.1334247E+00
         -2   -1    0    0    0  501 -0.00000000000E+00  0.00000000000E+00  0.41518712037E+02  0.41518712037E+02  0.00000000000E+00 0.  1.
          2   -1    0    0  501    0  0.00000000000E+00 -0.00000000000E+00 -0.35759085020E+03  0.35759085020E+03  0.00000000000E+00 0. -1.
         25    2    1    2    0    0  0.54233047812E+02  0.75838163096E+01 -0.19834494588E+03  0.24080755403E+03  0.12509525482E+03 0.  0.
          5    1    3    3  502    0  0.39940839840E+02 -0.13871589319E+02 -0.17897737330E+01  0.42524902909E+02  0.41800000000E+01 0. -1.
         -5    1    3    3    0  502  0.14292207972E+02  0.21455405629E+02 -0.19655517214E+03  0.19828265112E+03  0.41800000000E+01 0. -1.
        -11    1    1    2    0    0 -0.22278154241E+02  0.30694730213E+02 -0.97274541222E+02  0.10440698726E+03  0.00000000000E+00 0.  1.
         11    1    1    2    0    0 -0.31954893571E+02 -0.38278546523E+02 -0.20452651064E+02  0.53895020944E+02  0.00000000000E+00 0. -1.
</event>
<event>
 7    1  0.2490079E-009  0.1282302E+03  0.7561462E-02  0.1230106E+00
         -2   -1    0    0    0  501 -0.00000000000E+00  0.00000000000E+00  0.28323052727E+02  0.28323052727E+02  0.00000000000E+00 0.  1.
          2   -1    0    0  501    0  0.00000000000E+00 -0.00000000000E+00 -0.66900701331E+03  0.66900701331E+03  0.00000000000E+00 0. -1.
         25    2    1    2    0    0  0.59205345620E+02  0.10852174111E+02 -0.26366639801E+03  0.29797794547E+03  0.12509134227E+03 0.  0.
          5    1    3    3  502    0 -0.76358647734E+01  0.47608794139E+02 -0.17185134552E+03  0.17853644185E+03  0.41800000000E+01 0. -1.
         -5    1    3    3    0  502  0.66841210393E+02 -0.36756620028E+02 -0.91815052488E+02  0.11944150362E+03  0.41800000000E+01 0. -1.
        -11    1    1    2    0    0 -0.70011992377E+02  0.39351533387E+02 -0.22711703412E+03  0.24089908561E+03  0.00000000000E+00 0.  1.
         11    1    1    2    0    0  0.10806646758E+02 -0.50203707498E+02 -0.14990052845E+03  0.15845303497E+03  0.00000000000E+00 0. -1.
</event>
<event>
 7    1  0.2490079E-009  0.1616213E+03  0.7561462E-02  0.1186878E+00
         -2   -1    0    0    0  501 -0.00000000000E+00  0.00000000000E+00  0.30883002931E+02  0.30883002931E+02  0.00000000000E+00 0.  1.
          2   -1    0    0  501    0  0.00000000000E+00 -0.00000000000E+00 -0.91354581115E+03  0.91354581115E+03  0.00000000000E+00 0. -1.
         25    2    1    2    0    0 -0.10378752555E+03  0.68904356138E+02 -0.52495088922E+03  0.55384197598E+03  0.12509131665E+03 0.  0.
          5    1    3    3  502    0 -0.12646998848E+03  0.34345330387E+02 -0.44245476796E+03  0.46147367617E+03  0.41800000000E+01 0.  1.
         -5    1    3    3    0  502  0.22682462935E+02  0.34559025752E+02 -0.82496121266E+02  0.92368299810E+02  0.41800000000E+01 0.  1.
        -11    1    1    2    0    0 -0.12556720096E+02 -0.21597469835E+02 -0.26779360488E+02  0.36623163039E+02  0.00000000000E+00 0.  1.
         11    1    1    2    0    0  0.11634424564E+03 -0.47306886304E+02 -0.33093255851E+03  0.35396367507E+03  0.00000000000E+00 0. -1.
</event>
<event>
 7    1  0.2601783E-009  0.1023508E+03  0.7561462E-02  0.1275429E+00
          1   -1    0    0  501    0  0.00000000000E+00  0.00000000000E+00  0.27565887929E+02  0.27565887929E+02  0.00000000000E+00 0. -1.
         -1   -1    0    0    0  501 -0.00000000000E+00 -0.00000000000E+00 -0.66507495971E+03  0.66507495971E+03  0.00000000000E+00 0.  1.
         25    2    1    2    0    0 -0.70362340289E+02  0.25634053307E+02 -0.42469607334E+03  0.44902380336E+03  0.12509059779E+03 0.  0.
          5    1    3    3  502    0  0.94383693944E+01  0.20871217785E+02 -0.78671907896E+01  0.24577543400E+02  0.41800000000E+01 0.  1.
         -5    1    3    3    0  502 -0.79800709684E+02  0.47628355225E+01 -0.41682888255E+03  0.42444625996E+03  0.41800000000E+01 0.  1.
        -11    1    1    2    0    0  0.66311652270E+02  0.86226466620E+01 -0.19204122880E+03  0.20335048271E+03  0.00000000000E+00 0.  1.
         11    1    1    2    0    0  0.40506880191E+01 -0.34256699969E+02 -0.20771769653E+02  0.40266561571E+02  0.00000000000E+00 0. -1.
</event>
<event>
 7    1  0.2490079E-009  0.8027388E+02  0.7561462E-02  0.1328276E+00
          2   -1    0    0  501    0  0.00000000000E+00  0.00000000000E+00  0.10063582693E+04  0.10063582693E+04  0.00000000000E+00 0. -1.
         -2   -1    0    0    0  501 -0.00000000000E+00 -0.00000000000E+00 -0.19795641142E+02  0.19795641142E+02  0.00000000000E+00 0.  1.
         25    2    1    2    0    0 -0.26795362782E+02  0.10529862274E+02  0.85017974471E+03  0.85981447483E+03  0.12508582392E+03 0.  0.
          5    1    3    3  502    0 -0.51206168709E+02  0.15095887529E+01  0.13985400908E+03  0.14899988869E+03  0.41800000000E+01 0. -1.
         -5    1    3    3    0  502  0.24410805927E+02  0.90202735216E+01  0.71032573563E+03  0.71081458614E+03  0.41800000000E+01 0. -1.
        -11    1    1    2    0    0  0.54227276389E+02 -0.11108755569E+02  0.46280155333E+02  0.72151609355E+02  0.00000000000E+00 0.  1.
         11    1    1    2    0    0 -0.27431913606E+02  0.57889329451E+00  0.90102728150E+02  0.94187826293E+02  0.00000000000E+00 0. -1.
</event>
<event>
 7    1  0.2490079E-009  0.2312231E+03  0.7561462E-02  0.1125782E+00
          1   -1    0    0  501    0  0.00000000000E+00  0.00000000000E+00  0.13786705941E+03  0.13786705941E+03  0.00000000000E+00 0. -1.
         -1   -1    0    0    0  501 -0.00000000000E+00 -0.00000000000E+00 -0.45940741719E+03  0.45940741719E+03  0.00000000000E+00 0.  1.
         25    2    1    2    0    0 -0.19693015620E+03 -0.99377620821E+02 -0.22750214728E+03  0.34067921476E+03  0.12509077667E+03 0.  0.
          5    1    3    3  502    0 -0.16869913978E+02 -0.49724373144E+02 -0.94147826675E+01  0.53509044234E+02  0.41800000000E+01 0. -1.
         -5    1    3    3    0  502 -0.18006024223E+03 -0.49653247677E+02 -0.21808736461E+03  0.28717017052E+03  0.41800000000E+01 0. -1.
        -11    1    1    2    0    0  0.14203768838E+03  0.87356001945E+02 -0.26674207872E+02  0.16887062907E+03  0.00000000000E+00 0. -1.
         11    1    1    2    0    0  0.54892467827E+02  0.12021618876E+02 -0.67364002638E+02  0.87724632777E+02  0.00000000000E+00 0.  1.
</event>
<event>
 7    1  0.2490079E-009  0.1085958E+03  0.7561462E-02  0.1263193E+00
          4   -1    0    0  501    0  0.00000000000E+00  0.00000000000E+00  0.28053232270E+03  0.28053232270E+03  0.00000000000E+00 0. -1.
         -4   -1    0    0    0  501 -0.00000000000E+00 -0.00000000000E+00 -0.76474774149E+02  0.76474774149E+02  0.00000000000E+00 0.  1.
         25    2    1    2    0    0 -0.56459121619E+02 -0.38613088112E+02  0.19468074806E+03  0.24131107321E+03  0.12510730353E+03 0.  0.
          5    1    3    3  502    0  0.26236833042E+01 -0.61722853061E+02  0.39077173880E+02  0.73219479803E+02  0.41800000000E+01 0. -1.
         -5    1    3    3    0  502 -0.59082804924E+02  0.23109764950E+02  0.15560357418E+03  0.16809159340E+03  0.41800000000E+01 0. -1.
        -11    1    1    2    0    0  0.79217266195E+01  0.42281047889E+02  0.39543297499E+02  0.58430412803E+02  0.00000000000E+00 0. -1.
         11    1    1    2    0    0  0.48537395000E+02 -0.36679597775E+01 -0.30166497017E+02  0.57265610837E+02  0.00000000000E+00 0.  1.
</event>
<event>
 7    1  0.2490079E-009  0.1030642E+03  0.7561462E-02  0.1273981E+00
         -3   -1    0    0    0  501 -0.00000000000E+00  0.00000000000E+00  0.77917644880E+02  0.77917644880E+02  0.00000000000E+00 0.  1.
          3   -1    0    0  501    0  0.00000000000E+00 -0.00000000000E+00 -0.26699501775E+03  0.26699501775E+03  0.00000000000E+00 0. -1.
         25    2    1    2    0    0  0.56884805968E+01 -0.44719683761E+01  0.10081840515E+02  0.12570287670E+03  0.12508881801E+03 0.  0.
          5    1    3    3  502    0 -0.54757818584E+02 -0.38517148321E+01  0.29001651460E+02  0.62223971190E+02  0.41800000000E+01 0.  1.
         -5    1    3    3    0  502  0.60446299180E+02 -0.62025354399E+00 -0.18919810945E+02  0.63478905514E+02  0.41800000000E+01 0.  1.
        -11    1    1    2    0    0  0.42330593771E+02  0.30981787752E+01 -0.11052343109E+03  0.11839301796E+03  0.00000000000E+00 0. -1.
         11    1    1    2    0    0 -0.48019074368E+02  0.13737896009E+01 -0.88635782292E+02  0.10081676797E+03  0.00000000000E+00 0.  1.
</event>
<event>
 7    1  0.3060939E-009  0.1112126E+03  0.7561462E-02  0.1258341E+00
         -2   -1    0    0    0  501 -0.00000000000E+00  0.00000000000E+00  0.26777054156E+02  0.26777054156E+02  0.00000000000E+00 0.  1.
          2   -1    0    0  501    0  0.00000000000E+00 -0.00000000000E+00 -0.62783748187E+03  0.62783748187E+03  0.00000000000E+00 0. -1.
         25    2    1    2    0    0  0.12248889890E+02  0.47461638275E+02 -0.46444955391E+03  0.48349020172E+03  0.12508694826E+03 0.  0.
          5    1    3    3  502    0  0.63999931351E+02  0.67780587253E+00 -0.23896880618E+03  0.24742678384E+03  0.41800000000E+01 0. -1.
         -5    1    3    3    0  502 -0.51751041461E+02  0.46783832402E+02 -0.22548074773E+03  0.23606341788E+03  0.41800000000E+01 0. -1.
        -11    1    1    2    0    0 -0.43407230699E+02 -0.28320789538E+02 -0.33479937519E+02  0.61702196179E+02  0.00000000000E+00 0.  1.
         11    1    1    2    0    0  0.31158340809E+02 -0.19140848737E+02 -0.10313093628E+03  0.10942213812E+03  0.00000000000E+00 0. -1.
</event>
<event>
 7    1  0.2490079E-009  0.7863874E+02  0.7561462E-02  0.1332959E+00
         -2   -1    0    0    0  501 -0.00000000000E+00  0.00000000000E+00  0.44739612168E+03  0.44739612168E+03  0.00000000000E+00 0.  1.
          2   -1    0    0  501    0  0.00000000000E+00 -0.00000000000E+00 -0.45414686673E+02  0.45414686673E+02  0.00000000000E+00 0. -1.
         25    2    1    2    0    0 -0.30776952436E+02 -0.34661738558E+02  0.35707216995E+03  0.38117729237E+03  0.12508771618E+03 0.  0.
          5    1    3    3  502    0  0.82005219995E+01 -0.27734669490E+02  0.86318321473E+01  0.30470336050E+02  0.41800000000E+01 0.  1.
         -5    1    3    3    0  502 -0.38977474436E+02 -0.69270690687E+01  0.34844033781E+03  0.35070695632E+03  0.41800000000E+01 0.  1.
        -11    1    1    2    0    0  0.40557263601E+02 -0.10617158866E+02 -0.65088471163E+01  0.42426180408E+02  0.00000000000E+00 0.  1.
         11    1    1    2    0    0 -0.97803111650E+01  0.45278897424E+02  0.51418112168E+02  0.69207335575E+02  0.00000000000E+00 0. -1.
</event>
<event>
 7    1  0.2490079E-009  0.9909416E+02  0.7561462E-02  0.1282212E+00
          3   -1    0    0  501    0  0.00000000000E+00  0.00000000000E+00  0.26188524466E+03  0.26188524466E+03  0.00000000000E+00 0. -1.
         -3   -1    0    0    0  501 -0.00000000000E+00 -0.00000000000E+00 -0.69136019410E+02  0.69136019410E+02  0.00000000000E+00 0.  1.
         25    2    1    2    0    0 -0.30357765672E+02 -0.35415084079E+02  0.18461831946E+03  0.22783448202E+03  0.12509518457E+03 0.  0.
          5    1    3    3  502    0  0.33626617428E+02 -0.15121524535E+02  0.68026929837E+01  0.37724778803E+02  0.41800000000E+01 0. -1.
         -5    1    3    3    0  502 -0.63984383100E+02 -0.20293559544E+02  0.17781562648E+03  0.19010970322E+03  0.41800000000E+01 0. -1.
        -11    1    1    2    0    0 -0.26527667977E+02 -0.53552775225E+00  0.22013837546E+02  0.34476267225E+02  0.00000000000E+00 0. -1.
         11    1    1    2    0    0  0.56885433649E+02  0.35950611831E+02 -0.13882931759E+02  0.68710514818E+02  0.00000000000E+00 0.  1.
</event>
<event>
 7    1  0.2490079E-009  0.1248740E+03  0.7561462E-02  0.1235266E+00
          1   -1    0    0  501    0  0.00000000000E+00  0.00000000000E+00  0.64248373671E+02  0.64248373671E+02  0.00000000000E+00 0. -1.
         -1   -1    0    0    0  501 -0.00000000000E+00 -0.00000000000E+00 -0.58248348865E+03  0.58248348865E+03  0.00000000000E+00 0.  1.
         25    2    1    2    0    0 -0.79391560966E+02  0.95964354865E+02 -0.43844220576E+03  0.47264246304E+03  0.12508857950E+03 0.  0.
          5    1    3    3  502    0 -0.59480586374E+02  0.70100092346E+02 -0.42849268225E+03  0.43826409189E+03  0.41800000000E+01 0. -1.
         -5    1    3    3    0  502 -0.19910974591E+02  0.25864262519E+02 -0.99495235115E+01  0.34378371150E+02  0.41800000000E+01 0. -1.
        -11    1    1    2    0    0  0.37186395612E+02 -0.51306851586E+02 -0.91736699662E+02  0.11149369087E+03  0.00000000000E+00 0.  1.
         11    1    1    2    0    0  0.42205165354E+02 -0.44657503279E+02  0.11943790440E+02  0.62595708413E+02  0.00000000000E+00 0. -1.
</event>
<event>
 7    1  0.2490079E-009  0.2231431E+03  0.7561462E-02  0.1131561E+00
          2   -1    0    0  501    0  0.00000000000E+00  0.00000000000E+00  0.15835794103E+04  0.15835794103E+04  0.00000000000E+00 0. -1.
         -2   -1    0    0    0  501 -0.00000000000E+00 -0.00000000000E+00 -0.35215414697E+02  0.35215414697E+02  0.00000000000E+00 0.  1.
         25    2    1    2    0    0 -0.18246247734E+03 -0.10033070132E+03  0.70451304711E+03  0.74521652294E+03  0.12510086830E+03 0.  0.
          5    1    3    3  502    0 -0.15948218104E+03 -0.53909757955E+02  0.36781743552E+03  0.40453425856E+03  0.41800000000E+01 0. -1.
         -5    1    3    3    0  502 -0.22980296293E+02 -0.46420943361E+02  0.33669561159E+03  0.34068226438E+03  0.41800000000E+01 0. -1.
        -11    1    1    2    0    0  0.71546377960E+02 -0.66052383572E+01  0.26160033428E+03  0.27128812777E+03  0.00000000000E+00 0. -1.
         11    1    1    2    0    0  0.11091609938E+03  0.10693593967E+03  0.58225061423E+03  0.60229017431E+03  0.00000000000E+00 0.  1.
</event>
<event>
 7    1  0.2622740E-009  0.9745921E+02  0.7561462E-02  0.1285731E+00
         -2   -1    0    0    0  501 -0.00000000000E+00  0.00000000000E+00  0.83405286504E+02  0.83405286504E+02  0.00000000000E+00 0.  1.
          2   -1    0    0  501    0  0.00000000000E+00 -0.00000000000E+00 -0.26503537346E+03  0.26503537346E+03  0.00000000000E+00 0. -1.
         25    2    1    2    0    0 -0.49842159644E+02  0.43967215615E+02 -0.18820023424E+03  0.23555029433E+03  0.12508899258E+03 0.  0.
          5    1    3    3  502    0 -0.28913007204E+01  0.67155090714E+02 -0.40034773688E+02  0.78348078042E+02  0.41800000000E+01 0.  1.
         -5    1    3    3    0  502 -0.46950858924E+02 -0.23187875099E+02 -0.14816546055E+03  0.15720221628E+03  0.41800000000E+01 0.  1.
        -11    1    1    2    0    0  0.62760498503E+01 -0.27913271965E+02  0.44522652952E+02  0.52922643352E+02  0.00000000000E+00 0.  1.
         11    1    1    2    0    0  0.43566109794E+02 -0.16053943649E+02 -0.37952505672E+02  0.59967722285E+02  0.00000000000E+00 0. -1.
</event>
<event>
 7    1  0.2490079E-009  0.1444911E+03  0.7561462E-02  0.1207410E+00
         -1   -1    0    0    0  501 -0.00000000000E+00  0.00000000000E+00  0.12765787021E+02  0.12765787021E+02  0.00000000000E+00 0.  1.
          1   -1    0    0  501    0  0.00000000000E+00 -0.00000000000E+00 -0.17199208044E+04  0.17199208044E+04  0.00000000000E+00 0. -1.
         25    2    1    2    0    0  0.97098378536E+02 -0.17247010690E+01 -0.10413913292E+04  0.10533633708E+04  0.12508965007E+03 0.  0.
          5    1    3    3  502    0  0.31245151776E+01  0.47568916338E+02 -0.44749755306E+03  0.45004899376E+03  0.41800000000E+01 0.  1.
         -5    1    3    3    0  502  0.93973863358E+02 -0.49293617407E+02 -0.59389377619E+03  0.60331437701E+03  0.41800000000E+01 0.  1.
        -11    1    1    2    0    0  0.47975786936E+01  0.29040525390E+02 -0.15755109943E+03  0.16027700337E+03  0.00000000000E+00 0.  1.
         11    1    1    2    0    0 -0.10189595723E+03 -0.27315824321E+02 -0.50821258873E+03  0.51904621731E+03  0.00000000000E+00 0. -1.
</event>
<event>
 7    1  0.2490079E-009  0.7992943E+02  0.7561462E-02  0.1329252E+00
          1   -1    0    0  501    0  0.00000000000E+00  0.00000000000E+00  0.61848460068E+03  0.61848460068E+03  0.00000000000E+00 0. -1.
         -1   -1    0    0    0  501 -0.00000000000E+00 -0.00000000000E+00 -0.20174881791E+02  0.20174881791E+02  0.00000000000E+00 0.  1.
         25    2    1    2    0    0 -0.30077839130E+02  0.76237456949E+01  0.36906610949E+03  0.39092296463E+03  0.12509265844E+03 0.  0.
          5    1    3    3  502    0  0.24361362760E+02  0.30220728398E+02  0.37505121278E+02  0.54137555750E+02  0.41800000000E+01 0.  1.
         -5    1    3    3    0  502 -0.54439201891E+02 -0.22596982703E+02  0.33156098821E+03  0.33678540888E+03  0.41800000000E+01 0.  1.
        -11    1    1    2    0    0  0.21290337821E+02 -0.30514107047E+02  0.21730126223E+03  0.22046366544E+03  0.00000000000E+00 0. -1.
         11    1    1    2    0    0  0.87875013092E+01  0.22890361352E+02  0.11942347166E+02  0.27272852398E+02  0.00000000000E+00 0.  1.
</event>
<event>
 7    1  0.2490079E-009  0.1663069E+03  0.7561462E-02  0.1181755E+00
         -2   -1    0    0    0  501 -0.00000000000E+00  0.00000000000E+00  0.47567142223E+03  0.47567142223E+03  0.00000000000E+00 0. -1.
          2   -1    0    0  501    0  0.00000000000E+00 -0.00000000000E+00 -0.12747629082E+03  0.12747629082E+03  0.00000000000E+00 0.  1.
         25    2    1    2    0    0  0.68104135654E+02  0.13570513243E+03  0.31466678843E+03  0.37110080973E+03  0.12508623815E+03 0.  0.
          5    1    3    3  502    0  0.41424940248E+02 -0.67195360915E+00  0.22007497140E+02  0.47098614911E+02  0.41800000000E+01 0.  1.
         -5    1    3    3    0  502  0.26679195406E+02  0.13637708604E+03  0.29265929129E+03  0.32400219481E+03  0.41800000000E+01 0.  1.
        -11    1    1    2    0    0 -0.26367424009E+02 -0.46324083996E+02  0.99845057189E+02  0.11318214193E+03  0.00000000000E+00 0. -1.
         11    1    1    2    0    0 -0.41736711645E+02 -0.89381048437E+02 -0.66316714203E+02  0.11886476139E+03  0.00000000000E+00 0.  1.
</event>
<event>
 7    1  0.2490079E-009  0.9870963E+02  0.7561462E-02  0.1283033E+00
         -2   -1    0    0    0  501 -0.00000000000E+00  0.00000000000E+00  0.17690994968E+03  0.17690994968E+03  0.00000000000E+00 0.  1.
          2   -1    0    0  501    0  0.00000000000E+00 -0.00000000000E+00 -0.20373144323E+03  0.20373144323E+03  0.00000000000E+00 0. -1.
         25    2    1    2    0    0 -0.14049012559E+02 -0.18260607756E+02  0.13995350981E+03  0.18911760100E+03  0.12509059737E+03 0.  0.
          5    1    3    3  502    0  0.32836075769E+02 -0.40463522886E+02  0.12417939170E+03  0.13473491856E+03  0.41800000000E+01 0.  1.
         -5    1    3    3    0  502 -0.46885088328E+02  0.22202915129E+02  0.15774118114E+02  0.54382682447E+02  0.41800000000E+01 0.  1.
        -11    1    1    2    0    0 -0.29569536304E+02 -0.19486362290E+02 -0.49900146107E+02  0.61189054364E+02  0.00000000000E+00 0.  1.
         11    1    1    2    0    0  0.43618548863E+02  0.37746970047E+02 -0.11687485725E+03  0.13033473754E+03  0.00000000000E+00 0. -1.
</event>
<event>
 7    1  0.2490079E-009  0.1057935E+03  0.7561462E-02  0.1268564E+00
         -2   -1    0    0    0  501 -0.00000000000E+00  0.00000000000E+00  0.80711354058E+02  0.80711354058E+02  0.00000000000E+00 0.  1.
          2   -1    0    0  501    0  0.00000000000E+00 -0.00000000000E+00 -0.31096424410E+03  0.31096424410E+03  0.00000000000E+00 0. -1.
         25    2    1    2    0    0  0.51021603298E+02 -0.65283703727E+02 -0.25804453548E+02  0.15224710636E+03  0.12509254813E+03 0.  0.
          5    1    3    3  502    0 -0.15808206766E+01 -0.65908076296E+02 -0.60102046376E+02  0.89309024705E+02  0.41800000000E+01 0.  1.
         -5    1    3    3    0  502  0.52602423975E+02  0.62437256937E+00  0.34297592828E+02  0.62938081659E+02  0.41800000000E+01 0.  1.
        -11    1    1    2    0    0 -0.32806866135E+02  0.96210669212E+01 -0.16573098262E+03  0.16922060747E+03  0.00000000000E+00 0. -1.
         11    1    1    2    0    0 -0.18214737163E+02  0.55662636805E+02 -0.38717453877E+02  0.70207884320E+02  0.00000000000E+00 0.  1.
</event>
<event>
 7    1  0.2490079E-009  0.8196255E+02  0.7561462E-02  0.1323572E+00
          2   -1    0    0  501    0  0.00000000000E+00  0.00000000000E+00  0.13389154780E+03  0.13389154780E+03  0.00000000000E+00 0. -1.
         -2   -1    0    0    0  501 -0.00000000000E+00 -0.00000000000E+00 -0.10484907508E+03  0.10484907508E+03  0.00000000000E+00 0.  1.
         25    2    1    2    0    0 -0.22380701571E+02  0.20759151381E+02 -0.29929220294E+02  0.13219325792E+03  0.12508981191E+03 0.  0.
          5    1    3    3  502    0  0.26956816960E+02  0.40182330299E+02 -0.55016073609E+02  0.73386173113E+02  0.41800000000E+01 0.  1.
         -5    1    3    3    0  502 -0.49337518530E+02 -0.19423178917E+02  0.25086853314E+02  0.58807084805E+02  0.41800000000E+01 0.  1.
        -11    1    1    2    0    0  0.22753213941E+02 -0.38341271356E+02 -0.44108766825E+00  0.44586504597E+02  0.00000000000E+00 0.  1.
         11    1    1    2    0    0 -0.37251237044E+00  0.17582119975E+02  0.59412780690E+02  0.61960860368E+02  0.00000000000E+00 0. -1.
</event>
<event>
 7    1  0.2490079E-009  0.1227273E+03  0.7561462E-02  0.1238664E+00
         -1   -1    0    0    0  501 -0.00000000000E+00  0.00000000000E+00  0.54416474031E+03  0.54416474031E+03  0.00000000000E+00 0.  1.
          1   -1    0    0  501    0  0.00000000000E+00 -0.00000000000E+00 -0.28148521054E+02  0.28148521054E+02  0.00000000000E+00 0. -1.
         25    2    1    2    0    0  0.91344177007E+00 -0.58411068610E+02  0.26228928635E+03  0.29640610523E+03  0.12509285421E+03 0.  0.
          5    1    3    3  502    0 -0.61483258610E+02 -0.27507881140E+02  0.14512669583E+03  0.16005031977E+03  0.41800000000E+01 0.  1.
         -5    1    3    3    0  502  0.62396700380E+02 -0.30903187469E+02  0.11716259051E+03  0.13635578547E+03  0.41800000000E+01 0.  1.
        -11    1    1    2    0    0 -0.24319082767E+02  0.75443521962E+02  0.19255189641E+03  0.20822914206E+03  0.00000000000E+00 0.  1.
         11    1    1    2    0    0  0.23405640997E+02 -0.17032453352E+02  0.61175036504E+02  0.67678014073E+02  0.00000000000E+00 0. -1.
</event>
<event>
 7    1  0.2490079E-009  0.9971792E+02  0.7561462E-02  0.1280890E+00
          2   -1    0    0  501    0  0.00000000000E+00  0.00000000000E+00  0.47782217628E+03  0.47782217628E+03  0.00000000000E+00 0. -1.
         -2   -1    0    0    0  501 -0.00000000000E+00 -0.00000000000E+00 -0.42996876481E+02  0.42996876481E+02  0.00000000000E+00 0.  1.
         25    2    1    2    0    0 -0.42574028087E+02 -0.65070077361E+02  0.33749597194E+03  0.36823585810E+03  0.12508978086E+03 0.  0.
          5    1    3    3  502    0 -0.57708154278E+02 -0.56566672561E+02  0.34062855509E+03  0.35010756127E+03  0.41800000000E+01 0.  1.
         -5    1    3    3    0  502  0.15134126190E+02 -0.85034047999E+01 -0.31325831469E+01  0.18128296829E+02  0.41800000000E+01 0.  1.
        -11    1    1    2    0    0  0.37244070465E+02  0.19247088090E+01  0.10350156086E+01  0.37308129759E+02  0.00000000000E+00 0.  1.
         11    1    1    2    0    0  0.53299576228E+01  0.63145368552E+02  0.96294312244E+02  0.11527506490E+03  0.00000000000E+00 0. -1.
</event>
<event>
 7    1  0.2490079E-009  0.8793719E+02  0.7561462E-02  0.1307925E+00
         -4   -1    0    0    0  501 -0.00000000000E+00  0.00000000000E+00  0.25686174610E+03  0.25686174610E+03  0.00000000000E+00 0.  1.
          4   -1    0    0  501    0  0.00000000000E+00 -0.00000000000E+00 -0.51556007102E+02  0.51556007102E+02  0.00000000000E+00 0. -1.
         25    2    1    2    0    0 -0.63066179920E+01  0.42794399616E+02  0.14459497296E+03  0.19602602534E+03  0.12508941738E+03 0.  0.
          5    1    3    3  502    0  0.79176454788E+01 -0.19428483269E+02  0.12822846033E+03  0.13000063658E+03  0.41800000000E+01 0.  1.
         -5    1    3    3    0  502 -0.14224263471E+02  0.62222882885E+02  0.16366512621E+02  0.66025388762E+02  0.41800000000E+01 0.  1.
        -11    1    1    2    0    0  0.35352580930E+02 -0.49383631477E+02  0.55264217904E+02  0.82113834503E+02  0.00000000000E+00 0.  1.
         11    1    1    2    0    0 -0.29045962938E+02  0.65892318607E+01  0.54465481401E+01  0.30277893357E+02  0.00000000000E+00 0. -1.
</event>
<event>
 7    1  0.2490079E-009  0.9005480E+02  0.7561462E-02  0.1302719E+00
         -1   -1    0    0    0  501 -0.00000000000E+00  0.00000000000E+00  0.73061755427E+02  0.73061755427E+02  0.00000000000E+00 0.  1.
          1   -1    0    0  501    0  0.00000000000E+00 -0.00000000000E+00 -0.21790419656E+03  0.21790419656E+03  0.00000000000E+00 0. -1.
         25    2    1    2    0    0 -0.31848860990E+02 -0.58540396197E+02 -0.66600205974E+02  0.15660100434E+03  0.12508780593E+03 0.  0.
          5    1    3    3  502    0  0.27541142033E+02 -0.39223741913E+02  0.17997474456E+02  0.51365337738E+02  0.41800000000E+01 0. -1.
         -5    1    3    3    0  502 -0.59390003023E+02 -0.19316654283E+02 -0.84597680430E+02  0.10523566661E+03  0.41800000000E+01 0. -1.
        -11    1    1    2    0    0  0.29660986493E+02  0.35482996753E+02  0.63300658060E+01  0.46678548729E+02  0.00000000000E+00 0.  1.
         11    1    1    2    0    0  0.21878744970E+01  0.23057399443E+02 -0.84572300966E+02  0.87686398914E+02  0.00000000000E+00 0. -1.
</event>
<event>
 7    1  0.2490079E-009  0.1437161E+03  0.7561462E-02  0.1208414E+00
         -3   -1    0    0    0  501 -0.00000000000E+00  0.00000000000E+00  0.10127222879E+03  0.10127222879E+03  0.00000000000E+00 0.  1.
          3   -1    0    0  501    0  0.00000000000E+00 -0.00000000000E+00 -0.21372931470E+03  0.21372931470E+03  0.00000000000E+00 0. -1.
         25    2    1    2    0    0 -0.64069537606E+02  0.75362481647E+02 -0.73567832366E+02  0.17562579298E+03  0.12509110244E+03 0.  0.
          5    1    3    3  502    0 -0.82253500732E+02  0.12969069836E+01 -0.29799615524E+02  0.87594576521E+02  0.41800000000E+01 0.  1.
         -5    1    3    3    0  502  0.18183963126E+02  0.74065574663E+02 -0.43768216842E+02  0.88031216456E+02  0.41800000000E+01 0.  1.
        -11    1    1    2    0    0  0.91017926476E+01  0.18097035805E+02 -0.21543386124E+02  0.29571317522E+02  0.00000000000E+00 0. -1.
         11    1    1    2    0    0  0.54967744958E+02 -0.93459517452E+02 -0.17345867416E+02  0.10980443299E+03  0.00000000000E+00 0.  1.
</event>
<event>
 7    1  0.2490079E-009  0.1278581E+03  0.7561462E-02  0.1230669E+00
         -2   -1    0    0    0  501 -0.00000000000E+00  0.00000000000E+00  0.89536512089E+02  0.89536512089E+02  0.00000000000E+00 0.  1.
          2   -1    0    0  501    0  0.00000000000E+00 -0.00000000000E+00 -0.23394583676E+03  0.23394583676E+03  0.00000000000E+00 0. -1.
         25    2    1    2    0    0 -0.61668140465E+02  0.31732684502E+02 -0.58523933895E+01  0.14314719016E+03  0.12508774812E+03 0.  0.
          5    1    3    3  502    0 -0.15352328021E+02 -0.47699804539E+02  0.46867439132E+01  0.50501517772E+02  0.41800000000E+01 0. -1.
         -5    1    3    3    0  502 -0.46315812445E+02  0.79432489041E+02 -0.10539137303E+02  0.92645672391E+02  0.41800000000E+01 0. -1.
        -11    1    1    2    0    0  0.47255066954E+02  0.25964332273E+02 -0.49164284447E+02  0.72967902316E+02  0.00000000000E+00 0.  1.
         11    1    1    2    0    0  0.14413073511E+02 -0.57697016774E+02 -0.89392646837E+02  0.10736725637E+03  0.00000000000E+00 0. -1.
</event>
<event>
 7    1  0.2490079E-009  0.1869139E+03  0.7561462E-02  0.1161275E+00
          2   -1    0    0  501    0  0.00000000000E+00  0.00000000000E+00  0.24728548848E+03  0.24728548848E+03  0.00000000000E+00 0. -1.
         -2   -1    0    0    0  501 -0.00000000000E+00 -0.00000000000E+00 -0.15401440866E+03  0.15401440866E+03  0.00000000000E+00 0.  1.
         25    2    1    2    0    0  0.78479376984E+02 -0.13864883002E+03  0.81337448953E+02  0.21827942315E+03  0.12509042845E+03 0.  0.
          5    1    3    3  502    0  0.72610327159E+02 -0.24090967769E+02 -0.16556812649E+01  0.76634509319E+02  0.41800000000E+01 0. -1.
         -5    1    3    3    0  502  0.58690498252E+01 -0.11455786226E+03  0.82993130218E+02  0.14164491383E+03  0.41800000000E+01 0. -1.
        -11    1    1    2    0    0 -0.98131426414E+02  0.10710940379E+03  0.60092219650E+01  0.14539020592E+03  0.00000000000E+00 0.  1.
         11    1    1    2    0    0  0.19652049430E+02  0.31539426237E+02  0.59244088985E+01  0.37630268069E+02  0.00000000000E+00 0. -1.
</event>
<event>
 7    1  0.2490079E-009  0.8233417E+02  0.7561462E-02  0.1322555E+00
         -2   -1    0    0    0  501 -0.00000000000E+00  0.00000000000E+00  0.76634764048E+02  0.76634764048E+02  0.00000000000E+00 0.  1.
          2   -1    0    0  501    0  0.00000000000E+00 -0.00000000000E+00 -0.23393691522E+03  0.23393691522E+03  0.00000000000E+00 0. -1.
         25    2    1    2    0    0 -0.30466626181E+02  0.84284179342E+01 -0.14646469289E+01  0.12902887993E+03  0.12508818139E+03 0.  0.
          5    1    3    3  502    0 -0.42855320691E+02 -0.14816192530E+02 -0.53682633532E+02  0.70394570923E+02  0.41800000000E+01 0.  1.
         -5    1    3    3    0  502  0.12388694510E+02  0.23244610464E+02  0.52217986603E+02  0.58634309002E+02  0.41800000000E+01 0.  1.
        -11    1    1    2    0    0 -0.45587075880E+01 -0.43004636500E+02 -0.83753866159E+02  0.94259698026E+02  0.00000000000E+00 0.  1.
         11    1    1    2    0    0  0.35025333769E+02  0.34576218566E+02 -0.72083638079E+02  0.87283101312E+02  0.00000000000E+00 0. -1.
</event>
<event>
 7    1  0.2490079E-009  0.2546428E+03  0.7561462E-02  0.1110405E+00
          1   -1    0    0  501    0  0.00000000000E+00  0.00000000000E+00  0.15346708061E+04  0.15346708061E+04  0.00000000000E+00 0. -1.
         -1   -1    0    0    0  501 -0.00000000000E+00 -0.00000000000E+00 -0.45855058796E+02  0.45855058796E+02  0.00000000000E+00 0.  1.
         25    2    1    2    0    0  0.23459982643E+03 -0.36353767166E+02  0.62514037280E+03  0.68029846514E+03  0.12508733356E+03 0.  0.
          5    1    3    3  502    0 -0.17616740075E+01  0.23431143301E+02  0.70291741195E+02  0.74232898717E+02  0.41800000000E+01 0. -1.
         -5    1    3    3    0  502  0.23636150044E+03 -0.59784910468E+02  0.55484863161E+03  0.60606556643E+03  0.41800000000E+01 0. -1.
        -11    1    1    2    0    0 -0.91341424024E+02 -0.77898510277E+01  0.47253055920E+03  0.48134090508E+03  0.00000000000E+00 0. -1.
         11    1    1    2    0    0 -0.14325840241E+03  0.44143618194E+02  0.39114481534E+03  0.41888649471E+03  0.00000000000E+00 0.  1.
</event>
<event>
 7    1  0.2490079E-009  0.2507136E+03  0.7561462E-02  0.1112855E+00
          2   -1    0    0  501    0  0.00000000000E+00  0.00000000000E+00  0.10700645201E+04  0.10700645201E+04  0.00000000000E+00 0. -1.
         -2   -1    0    0    0  501 -0.00000000000E+00 -0.00000000000E+00 -0.69250992377E+02  0.69250992377E+02  0.00000000000E+00 0.  1.
         25    2    1    2    0    0 -0.11884857893E+03  0.19926365090E+03  0.70979489520E+03  0.75715727923E+03  0.12508942781E+03 0.  0.
          5    1    3    3  502    0 -0.11851426875E+03  0.77504296157E+02  0.37188668474E+03  0.39795694052E+03  0.41800000000E+01 0.  1.
         -5    1    3    3    0  502 -0.33431017419E+00  0.12175935474E+03  0.33790821047E+03  0.35920033871E+03  0.41800000000E+01 0.  1.
        -11    1    1    2    0    0  0.24482334316E+02 -0.10006717718E+02  0.57763459951E+01  0.27071853762E+02  0.00000000000E+00 0.  1.
         11    1    1    2    0    0  0.94366244611E+02 -0.18925693318E+03  0.28524228654E+03  0.35508637950E+03  0.00000000000E+00 0. -1.
</event>
<event>
 7    1  0.2490079E-009  0.8366145E+02  0.7561462E-02  0.1318971E+00
          1   -1    0    0  501    0  0.00000000000E+00  0.00000000000E+00  0.27467407544E+03  0.27467407544E+03  0.00000000000E+00 0. -1.
         -1   -1    0    0    0  501 -0.00000000000E+00 -0.00000000000E+00 -0.44259206283E+02  0.44259206283E+02  0.00000000000E+00 0.  1.
         25    2    1    2    0    0 -0.57477973213E+01 -0.95633317931E+01  0.17433912617E+03  0.21486413646E+03  0.12509185318E+03 0.  0.
          5    1    3    3  502    0 -0.63872186696E+02  0.55968241830E+01  0.10426417589E+03  0.12247232932E+03  0.41800000000E+01 0. -1.
         -5    1    3    3    0  502  0.58124389375E+02 -0.15160155976E+02  0.70074950283E+02  0.92391807140E+02  0.41800000000E+01 0. -1.
        -11    1    1    2    0    0  0.22043248360E+02  0.13815147916E+02 -0.15672519275E+02  0.30370890185E+02  0.00000000000E+00 0.  1.
         11    1    1    2    0    0 -0.16295451039E+02 -0.42518161230E+01  0.71748262255E+02  0.73698255078E+02  0.00000000000E+00 0. -1.
</event>
<event>
 7    1  0.2490079E-009  0.1220457E+03  0.7561462E-02  0.1239760E+00
         -3   -1    0    0    0  501 -0.00000000000E+00  0.00000000000E+00  0.24482560734E+02  0.24482560734E+02  0.00000000000E+00 0.  1.
          3   -1    0    0  501    0  0.00000000000E+00 -0.00000000000E+00 -0.64946844408E+03  0.64946844408E+03  0.00000000000E+00 0. -1.
         25    2    1    2    0    0  0.63530723116E+02 -0.14886185931E+01 -0.39973789902E+03  0.42364689353E+03  0.12509170123E+03 0.  0.
          5    1    3    3  502    0 -0.13496062164E+02 -0.47667428313E+02 -0.16292510711E+03  0.17034198057E+03  0.41800000000E+01 0.  1.
         -5    1    3    3    0  502  0.77026785281E+02  0.46178809720E+02 -0.23681279191E+03  0.25330491296E+03  0.41800000000E+01 0.  1.
        -11    1    1    2    0    0 -0.41671510718E+02  0.41540260263E+02 -0.16169275276E+03  0.17206584299E+03  0.00000000000E+00 0. -1.
         11    1    1    2    0    0 -0.21859212398E+02 -0.40051641670E+02 -0.63555231564E+02  0.78238268298E+02  0.00000000000E+00 0.  1.
</event>
<event>
 7    1  0.3057561E-009  0.1538069E+03  0.7561462E-02  0.1195872E+00
          1   -1    0    0  501    0  0.00000000000E+00  0.00000000000E+00  0.61737800257E+03  0.61737800257E+03  0.00000000000E+00 0. -1.
         -1   -1    0    0    0  501 -0.00000000000E+00 -0.00000000000E+00 -0.54426704837E+02  0.54426704837E+02  0.00000000000E+00 0.  1.
         25    2    1    2    0    0 -0.93199752354E+02  0.87893532453E+02  0.42961754010E+03  0.46543960541E+03  0.12510527021E+03 0.  0.
          5    1    3    3  502    0 -0.12134238817E+03  0.60874167282E+02  0.28687437463E+03  0.31740198271E+03  0.41800000000E+01 0. -1.
         -5    1    3    3    0  502  0.28142635818E+02  0.27019365170E+02  0.14274316547E+03  0.14803762270E+03  0.41800000000E+01 0. -1.
        -11    1    1    2    0    0  0.35911382996E+02 -0.57267885690E+02  0.12332858221E+03  0.14063846327E+03  0.00000000000E+00 0. -1.
         11    1    1    2    0    0  0.57288369358E+02 -0.30625646763E+02  0.10005175418E+02  0.65726638728E+02  0.00000000000E+00 0.  1.
</event>
<event>
 7    1  0.2490079E-009  0.1987644E+03  0.7561462E-02  0.1150786E+00
         -2   -1    0    0    0  501 -0.00000000000E+00  0.00000000000E+00  0.14541312656E+03  0.14541312656E+03  0.00000000000E+00 0.  1.
          2   -1    0    0  501    0  0.00000000000E+00 -0.00000000000E+00 -0.29993939299E+03  0.29993939299E+03  0.00000000000E+00 0. -1.
         25    2    1    2    0    0  0.11126383532E+02  0.17676282695E+03 -0.63407281163E+02  0.22591384066E+03  0.12509071387E+03 0.  0.
          5    1    3    3  502    0 -0.21443827772E+02 -0.79053335024E+01 -0.25609692419E+02  0.34578328374E+02  0.41800000000E+01 0.  1.
         -5    1    3    3    0  502  0.32570211304E+02  0.18466816045E+03 -0.37797588744E+02  0.19133551229E+03  0.41800000000E+01 0.  1.
        -11    1    1    2    0    0 -0.34636379211E+02 -0.80448951957E+02 -0.43616926592E+01  0.87696847142E+02  0.00000000000E+00 0.  1.
         11    1    1    2    0    0  0.23509995678E+02 -0.96313874989E+02 -0.86757292604E+02  0.13174183175E+03  0.00000000000E+00 0. -1.
</event>
<event>
 7    1  0.2583951E-009  0.1159464E+03  0.7561462E-02  0.1249938E+00
          1   -1    0    0  501    0  0.00000000000E+00  0.00000000000E+00  0.28216146613E+03  0.28216146613E+03  0.00000000000E+00 0. -1.
         -1   -1    0    0    0  501 -0.00000000000E+00 -0.00000000000E+00 -0.69113599886E+02  0.69113599886E+02  0.00000000000E+00 0.  1.
         25    2    1    2    0    0  0.37000627411E+02  0.51604943902E+02  0.40513467482E+02  0.14601701019E+03  0.12509000582E+03 0.  0.
          5    1    3    3  502    0  0.17595801424E+02  0.83724125624E+02  0.58967885449E+02  0.10399050607E+03  0.41800000000E+01 0. -1.
         -5    1    3    3    0  502  0.19404825987E+02 -0.32119181722E+02 -0.18454417968E+02  0.42026504120E+02  0.41800000000E+01 0. -1.
        -11    1    1    2    0    0 -0.58859332590E+02 -0.76042071843E+01  0.11641963335E+03  0.13067431282E+03  0.00000000000E+00 0. -1.
         11    1    1    2    0    0  0.21858705179E+02 -0.44000736718E+02  0.56114765407E+02  0.74583743004E+02  0.00000000000E+00 0.  1.
</event>
<event>
 7    1  0.2490079E-009  0.1348885E+03  0.7561462E-02  0.1220377E+00
         -1   -1    0    0    0  501 -0.00000000000E+00  0.00000000000E+00  0.10593599474E+03  0.10593599474E+03  0.00000000000E+00 0.  1.
          1   -1    0    0  501    0  0.00000000000E+00 -0.00000000000E+00 -0.24217140246E+03  0.24217140246E+03  0.00000000000E+00 0. -1.
         25    2    1    2    0    0 -0.37192432561E+02 -0.80547551037E+02  0.10826244106E+02  0.15373919702E+03  0.12508936055E+03 0.  0.
          5    1    3    3  502    0 -0.96952266504E+01 -0.10522408786E+03 -0.17246761090E+02  0.10714956488E+03  0.41800000000E+01 0. -1.
         -5    1    3    3    0  502 -0.27497205910E+02  0.24676536823E+02  0.28073005196E+02  0.46589632142E+02  0.41800000000E+01 0. -1.
        -11    1    1    2    0    0 -0.20580409362E+02  0.63282767652E+02 -0.83192642520E+02  0.10653298879E+03  0.00000000000E+00 0.  1.
         11    1    1    2    0    0  0.57772841923E+02  0.17264783385E+02 -0.63869009309E+02  0.87835211387E+02  0.00000000000E+00 0. -1.
</event>
<event>
 7    1  0.2490079E-009  0.5649107E+02  0.7561462E-02  0.1413176E+00
          1   -1    0    0  501    0  0.00000000000E+00  0.00000000000E+00  0.41729393732E+02  0.41729393732E+02  0.00000000000E+00 0. -1.
         -1   -1    0    0    0  501 -0.00000000000E+00 -0.00000000000E+00 -0.28360014581E+03  0.28360014581E+03  0.00000000000E+00 0.  1.
         25    2    1    2    0    0 -0.80749006259E+00  0.80906692398E+00 -0.14160691493E+03  0.18894572787E+03  0.12508662236E+03 0.  0.
          5    1    3    3  502    0 -0.35805504438E+02  0.99718114847E+01  0.51340161710E+01  0.37753168004E+02  0.41800000000E+01 0.  1.
         -5    1    3    3    0  502  0.34998014375E+02 -0.91627445607E+01 -0.14674093110E+03  0.15119255986E+03  0.41800000000E+01 0.  1.
        -11    1    1    2    0    0 -0.18125577665E+02  0.59203940918E+01 -0.11166487445E+03  0.11328120682E+03  0.00000000000E+00 0.  1.
         11    1    1    2    0    0  0.18933067727E+02 -0.67294610158E+01  0.11401037308E+02  0.23102604849E+02  0.00000000000E+00 0. -1.
</event>
<event>
 7    1  0.2490079E-009  0.8197875E+02  0.7561462E-02  0.1323528E+00
         -1   -1    0    0    0  501 -0.00000000000E+00  0.00000000000E+00  0.11816036633E+02  0.11816036633E+02  0.00000000000E+00 0.  1.
          1   -1    0    0  501    0  0.00000000000E+00 -0.00000000000E+00 -0.10839397505E+04  0.10839397505E+04  0.00000000000E+00 0. -1.
         25    2    1    2    0    0  0.17177235551E+02 -0.18755808455E+01 -0.72252920330E+03  0.73348207289E+03  0.12509566905E+03 0.  0.
          5    1    3    3  502    0  0.43532559668E+02 -0.11555120131E+01 -0.69007273326E+03  0.69145807433E+03  0.41800000000E+01 0.  1.
         -5    1    3    3    0  502 -0.26355324117E+02 -0.72006883245E+00 -0.32456470035E+02  0.42023998567E+02  0.41800000000E+01 0.  1.
        -11    1    1    2    0    0 -0.37920868965E+02  0.36834089586E+02 -0.22860791479E+03  0.23464083439E+03  0.00000000000E+00 0.  1.
         11    1    1    2    0    0  0.20743633414E+02 -0.34958508740E+02 -0.12098659579E+03  0.12763287986E+03  0.00000000000E+00 0. -1.
</event>
<event>
 7    1  0.2490079E-009  0.1270991E+03  0.7561462E-02  0.1231825E+00
         -2   -1    0    0    0  501 -0.00000000000E+00  0.00000000000E+00  0.13623041364E+02  0.13623041364E+02  0.00000000000E+00 0.  1.
          2   -1    0    0  501    0  0.00000000000E+00 -0.00000000000E+00 -0.12051753443E+04  0.12051753443E+04  0.00000000000E+00 0. -1.
         25    2    1    2    0    0  0.47547028299E+02  0.47510581213E+02 -0.59820556969E+03  0.61483130013E+03  0.12509855627E+03 0.  0.
          5    1    3    3  502    0  0.71712611277E+02 -0.15796754877E+02 -0.33847878644E+03  0.34637782456E+03  0.41800000000E+01 0. -1.
         -5    1    3    3    0  502 -0.24165582978E+02  0.63307336090E+02 -0.25972678325E+03  0.26845347556E+03  0.41800000000E+01 0. -1.
        -11    1    1    2    0    0 -0.28870286703E+02 -0.74520550210E+02 -0.42397231708E+03  0.43143867642E+03  0.00000000000E+00 0.  1.
         11    1    1    2    0    0 -0.18676741596E+02  0.27009968996E+02 -0.16937441614E+03  0.17252840910E+03  0.00000000000E+00 0. -1.
</event>
<event>
 7    1  0.2490079E-009  0.1172160E+03  0.7561462E-02  0.1247762E+00
         -4   -1    0    0    0  501 -0.00000000000E+00  0.00000000000E+00  0.37987475801E+03  0.37987475801E+03  0.00000000000E+00 0.  1.
          4   -1    0    0  501    0  0.00000000000E+00 -0.00000000000E+00 -0.61167296324E+02  0.61167296324E+02  0.00000000000E+00 0. -1.
         25    2    1    2    0    0 -0.68337146392E+02 -0.23453110247E+01  0.58939493809E+02  0.15425942133E+03  0.12508652636E+03 0.  0.
          5    1    3    3  502    0 -0.10337245748E+03 -0.31029173510E+01  0.58651704938E+02  0.11896633117E+03  0.41800000000E+01 0. -1.
         -5    1    3    3    0  502  0.35035311086E+02  0.75760632628E+00  0.28778887103E+00  0.35293090155E+02  0.41800000000E+01 0. -1.
        -11    1    1    2    0    0  0.35833287465E+02  0.34623959487E+02  0.22167169145E+03  0.22720295300E+03  0.00000000000E+00 0.  1.
         11    1    1    2    0    0  0.32503858927E+02 -0.32278648462E+02  0.38096276420E+02  0.59579679999E+02  0.00000000000E+00 0. -1.
</event>
<event>
 7    1  0.2490079E-009  0.1208531E+03  0.7561462E-02  0.1241696E+00
          1   -1    0    0  501    0  0.00000000000E+00  0.00000000000E+00  0.76209402779E+02  0.76209402779E+02  0.00000000000E+00 0. -1.
         -1   -1    0    0    0  501 -0.00000000000E+00 -0.00000000000E+00 -0.26756759710E+03  0.26756759710E+03  0.00000000000E+00 0.  1.
         25    2    1    2    0    0  0.34522409592E+02  0.83775735089E+02 -0.80391458091E+02  0.17413264293E+03  0.12509684347E+03 0.  0.
          5    1    3    3  502    0 -0.81032097286E+01  0.72294734093E+02 -0.10156028926E+03  0.12499662132E+03  0.41800000000E+01 0. -1.
         -5    1    3    3    0  502  0.42625619321E+02  0.11481000996E+02  0.21168831174E+02  0.49136021609E+02  0.41800000000E+01 0. -1.
        -11    1    1    2    0    0 -0.24850027250E+02  0.12444207714E+02 -0.92410795646E+01  0.29287876527E+02  0.00000000000E+00 0. -1.
         11    1    1    2    0    0 -0.96723823417E+01 -0.96219942803E+02 -0.10172565667E+03  0.14035648043E+03  0.00000000000E+00 0.  1.
</event>
<event>
 7    1  0.2490079E-009  0.1506068E+03  0.7561462E-02  0.1199729E+00
         -2   -1    0    0    0  501 -0.00000000000E+00  0.00000000000E+00  0.26074655297E+02  0.26074655297E+02  0.00000000000E+00 0. -1.
          2   -1    0    0  501    0  0.00000000000E+00 -0.00000000000E+00 -0.16557986900E+04  0.16557986900E+04  0.00000000000E+00 0.  1.
         25    2    1    2    0    0  0.11345892855E+03  0.52967658204E+02 -0.13600473185E+04  0.13715153681E+04  0.12508874921E+03 0.  0.
          5    1    3    3  502    0  0.34059041096E+02  0.81968297485E+02 -0.56035958275E+03  0.56736157295E+03  0.41800000000E+01 0.  1.
         -5    1    3    3    0  502  0.79399887457E+02 -0.29000639281E+02 -0.79968773576E+03  0.80415379520E+03  0.41800000000E+01 0.  1.
        -11    1    1    2    0    0 -0.24719985139E+02 -0.23785210929E+02 -0.17127938344E+03  0.17468096953E+03  0.00000000000E+00 0.  1.
         11    1    1    2    0    0 -0.88738943414E+02 -0.29182447275E+02 -0.98397332778E+02  0.13567700765E+03  0.00000000000E+00 0. -1.
</event>
<event>
 7    1  0.2490079E-009  0.6963544E+02  0.7561462E-02  0.1361337E+00
         -2   -1    0    0    0  501 -0.00000000000E+00  0.00000000000E+00  0.24529698705E+02  0.24529698705E+02  0.00000000000E+00 0.  1.
          2   -1    0    0  501    0  0.00000000000E+00 -0.00000000000E+00 -0.50488957276E+03  0.50488957276E+03  0.00000000000E+00 0. -1.
         25    2    1    2    0    0 -0.38582214986E+01 -0.86700419419E+01 -0.21336555335E+03  0.24751149402E+03  0.12508806824E+03 0.  0.
          5    1    3    3  502    0  0.22080375770E+02 -0.26675773184E+01  0.83816261035E+01  0.24132613183E+02  0.41800000000E+01 0. -1.
         -5    1    3    3    0  502 -0.25938597269E+02 -0.60024646235E+01 -0.22174717945E+03  0.22337888084E+03  0.41800000000E+01 0. -1.
        -11    1    1    2    0    0 -0.29959108284E+02  0.35550831557E+02 -0.11978122165E+03  0.12848716222E+03  0.00000000000E+00 0. -1.
         11    1    1    2    0    0  0.33817329782E+02 -0.26880789615E+02 -0.14721309906E+03  0.15342061523E+03  0.00000000000E+00 0.  1.
</event>
<event>
 7    1  0.2490079E-009  0.8467461E+02  0.7561462E-02  0.1316286E+00
         -2   -1    0    0    0  501 -0.00000000000E+00  0.00000000000E+00  0.69390290168E+03  0.69390290168E+03  0.00000000000E+00 0.  1.
          2   -1    0    0  501    0  0.00000000000E+00 -0.00000000000E+00 -0.20506338832E+02  0.20506338832E+02  0.00000000000E+00 0. -1.
         25    2    1    2    0    0  0.48066647579E+02  0.65764745856E+01  0.44576696235E+03  0.46551969403E+03  0.12508696246E+03 0.  0.
          5    1    3    3  502    0 -0.10037294188E+02  0.67887356029E+01  0.36865036643E+03  0.36887314794E+03  0.41800000000E+01 0. -1.
         -5    1    3    3    0  502  0.58103941767E+02 -0.21226101736E+00  0.77116595924E+02  0.96646546087E+02  0.41800000000E+01 0. -1.
        -11    1    1    2    0    0 -0.59782153775E+02  0.24847048806E+02  0.17381788573E+03  0.18548298883E+03  0.00000000000E+00 0. -1.
         11    1    1    2    0    0  0.11715506196E+02 -0.31423523392E+02  0.53811714764E+02  0.63406557655E+02  0.00000000000E+00 0.  1.
</event>
<event>
 7    1  0.2490079E-009  0.1032075E+03  0.7561462E-02  0.1273692E+00
          1   -1    0    0  501    0  0.00000000000E+00  0.00000000000E+00  0.77493016487E+02  0.77493016487E+02  0.00000000000E+00 0. -1.
         -1   -1    0    0    0  501 -0.00000000000E+00 -0.00000000000E+00 -0.28891469359E+03  0.28891469359E+03  0.00000000000E+00 0.  1.
         25    2    1    2    0    0  0.72452978877E+02 -0.53144539803E+02 -0.17519980312E+03  0.23327320354E+03  0.12509052809E+03 0.  0.
          5    1    3    3  502    0  0.55498586063E+02 -0.60675231271E+00 -0.16856123323E+03  0.17751288108E+03  0.41800000000E+01 0. -1.
         -5    1    3    3    0  502  0.16954392814E+02 -0.52537787490E+02 -0.66385698891E+01  0.55760322455E+02  0.41800000000E+01 0. -1.
        -11    1    1    2    0    0 -0.60921173009E+02  0.26646865181E+02 -0.64546474947E+02  0.92669801839E+02  0.00000000000E+00 0.  1.
         11    1    1    2    0    0 -0.11531805868E+02  0.26497674622E+02  0.28324600960E+02  0.40464704701E+02  0.00000000000E+00 0. -1.
</event>
<event>
 7    1  0.2490079E-009  0.1524368E+03  0.7561462E-02  0.1197510E+00
         -1   -1    0    0    0  501 -0.00000000000E+00  0.00000000000E+00  0.21590284199E+02  0.21590284199E+02  0.00000000000E+00 0.  1.
          1   -1    0    0  501    0  0.00000000000E+00 -0.00000000000E+00 -0.14577853587E+04  0.14577853587E+04  0.00000000000E+00 0. -1.
         25    2    1    2    0    0 -0.13303299094E+03 -0.29364771047E+02 -0.89344845010E+03  0.91239144082E+03  0.12509173370E+03 0.  0.
          5    1    3    3  502    0 -0.68534774523E+01 -0.36259109477E+02 -0.44242504087E+03  0.44398094820E+03  0.41800000000E+01 0.  1.
         -5    1    3    3    0  502 -0.12617951348E+03  0.68943384298E+01 -0.45102340923E+03  0.46841049262E+03  0.41800000000E+01 0.  1.
        -11    1    1    2    0    0  0.10372442775E+03  0.38440051233E+02 -0.51099431986E+03  0.52283036386E+03  0.00000000000E+00 0. -1.
         11    1    1    2    0    0  0.29308563184E+02 -0.90752801862E+01 -0.31752304588E+02  0.44153838259E+02  0.00000000000E+00 0.  1.
</event>
<event>
 7    1  0.2490079E-009  0.1112812E+03  0.7561462E-02  0.1258216E+00
          1   -1    0    0  501    0  0.00000000000E+00  0.00000000000E+00  0.37261147652E+02  0.37261147652E+02  0.00000000000E+00 0. -1.
         -1   -1    0    0    0  501 -0.00000000000E+00 -0.00000000000E+00 -0.36760621259E+03  0.36760621259E+03  0.00000000000E+00 0.  1.
         25    2    1    2    0    0  0.37800974116E+02 -0.20129882913E+02 -0.21003384324E+03  0.24818431495E+03  0.12508842092E+03 0.  0.
          5    1    3    3  502    0 -0.62250759086E+01 -0.61569792100E+02 -0.59674943732E+02  0.86070681295E+02  0.41800000000E+01 0.  1.
         -5    1    3    3    0  502  0.44026050025E+02  0.41439909187E+02 -0.15035889951E+03  0.16211363365E+03  0.41800000000E+01 0.  1.
        -11    1    1    2    0    0 -0.66651509832E+02  0.23962594538E+02 -0.91724126481E+02  0.11588763989E+03  0.00000000000E+00 0.  1.
         11    1    1    2    0    0  0.28850535716E+02 -0.38327116257E+01 -0.28587095214E+02  0.40795405406E+02  0.00000000000E+00 0. -1.
</event>
<event>
 7    1  0.2490079E-009  0.3431817E+03  0.7561462E-02  0.1065449E+00
          1   -1    0    0  501    0  0.00000000000E+00  0.00000000000E+00  0.16538853428E+04  0.16538853428E+04  0.00000000000E+00 0. -1.
         -1   -1    0    0    0  501 -0.00000000000E+00 -0.00000000000E+00 -0.80559907408E+02  0.80559907408E+02  0.00000000000E+00 0.  1.
         25    2    1    2    0    0  0.26407880425E+03  0.21833379031E+03  0.71515323324E+03  0.80280711781E+03  0.12509141679E+03 0.  0.
          5    1    3    3  502    0  0.17785957743E+03  0.14582265902E+03  0.33563268706E+03  0.40689685449E+03  0.41800000000E+01 0.  1.
         -5    1    3    3    0  502  0.86219226812E+02  0.72511131282E+02  0.37952054618E+03  0.39591026332E+03  0.41800000000E+01 0.  1.
        -11    1    1    2    0    0 -0.24677479005E+03 -0.21143703145E+03  0.85223055653E+03  0.91208570692E+03  0.00000000000E+00 0. -1.
         11    1    1    2    0    0 -0.17304014196E+02 -0.68967588533E+01  0.59416456354E+01  0.19552425497E+02  0.00000000000E+00 0.  1.
</event>
<event>
 7    1  0.2490079E-009  0.1123298E+03  0.7561462E-02  0.1256315E+00
          2   -1    0    0  501    0  0.00000000000E+00  0.00000000000E+00  0.27795974975E+03  0.27795974975E+03  0.00000000000E+00 0. -1.
         -2   -1    0    0    0  501 -0.00000000000E+00 -0.00000000000E+00 -0.58858537470E+02  0.58858537470E+02  0.00000000000E+00 0.  1.
         25    2    1    2    0    0 -0.32057101726E+01  0.56531405548E+02  0.71754762694E+02  0.15492255378E+03  0.12508467256E+03 0.  0.
          5    1    3    3  502    0  0.16217789510E+02  0.83796838834E+02  0.83229865029E+02  0.11928792784E+03  0.41800000000E+01 0.  1.
         -5    1    3    3    0  502 -0.19423499683E+02 -0.27265433286E+02 -0.11475102334E+02  0.35634625939E+02  0.41800000000E+01 0.  1.
        -11    1    1    2    0    0  0.45512014979E+02 -0.37965264157E+02  0.96017374644E+02  0.11283634620E+03  0.00000000000E+00 0. -1.
         11    1    1    2    0    0 -0.42306304806E+02 -0.18566141391E+02  0.51329074946E+02  0.69059387250E+02  0.00000000000E+00 0.  1.
</event>
<event>
 7    1  0.2490079E-009  0.1269819E+03  0.7561462E-02  0.1232004E+00
          1   -1    0    0  501    0  0.00000000000E+00  0.00000000000E+00  0.19399879490E+03  0.19399879490E+03  0.00000000000E+00 0.  1.
         -1   -1    0    0    0  501 -0.00000000000E+00 -0.00000000000E+00 -0.13360889722E+03  0.13360889722E+03  0.00000000000E+00 0. -1.
         25    2    1    2    0    0 -0.11340753511E+03  0.34298813371E+01 -0.16566978956E+01  0.16890152616E+03  0.12510774470E+03 0.  0.
          5    1    3    3  502    0 -0.37227967055E+02  0.21247085382E+02  0.56705304582E+02  0.71206208550E+02  0.41800000000E+01 0. -1.
         -5    1    3    3    0  502 -0.76179568059E+02 -0.17817204045E+02 -0.58362002478E+02  0.97695317610E+02  0.41800000000E+01 0. -1.
        -11    1    1    2    0    0  0.26191552162E+02  0.29385602954E+02  0.51653721643E+02  0.64943190753E+02  0.00000000000E+00 0. -1.
         11    1    1    2    0    0  0.87215982952E+02 -0.32815484292E+02  0.10392873926E+02  0.93762975208E+02  0.00000000000E+00 0.  1.
</event>
<event>
 7    1  0.2490079E-009  0.1423554E+03  0.7561462E-02  0.1210194E+00
         -1   -1    0    0    0  501 -0.00000000000E+00  0.00000000000E+00  0.18041860960E+02  0.18041860960E+02  0.00000000000E+00 0.  1.
          1   -1    0    0  501    0  0.00000000000E+00 -0.00000000000E+00 -0.13267077365E+04  0.13267077365E+04  0.00000000000E+00 0. -1.
         25    2    1    2    0    0 -0.92934170271E+02 -0.19792699309E+02 -0.86765778315E+03  0.88176214958E+03  0.12508376724E+03 0.  0.
          5    1    3    3  502    0 -0.46305355300E+02  0.48523101812E+02 -0.26258867373E+03  0.27105158423E+03  0.41800000000E+01 0.  1.
         -5    1    3    3    0  502 -0.46628814971E+02 -0.68315801120E+02 -0.60506910941E+03  0.61071056535E+03  0.41800000000E+01 0.  1.
        -11    1    1    2    0    0  0.53956494445E+02  0.58621737196E+02 -0.19014985446E+03  0.20616687055E+03  0.00000000000E+00 0. -1.
         11    1    1    2    0    0  0.38977675827E+02 -0.38829037888E+02 -0.25085823794E+03  0.25682057733E+03  0.00000000000E+00 0.  1.
</event>
<event>
 7    1  0.2490079E-009  0.9792479E+02  0.7561462E-02  0.1284721E+00
          2   -1    0    0  501    0  0.00000000000E+00  0.00000000000E+00  0.91094647469E+03  0.91094647469E+03  0.00000000000E+00 0. -1.
         -2   -1    0    0    0  501 -0.00000000000E+00 -0.00000000000E+00 -0.21330616962E+02  0.21330616962E+02  0.00000000000E+00 0.  1.
         25    2    1    2    0    0 -0.77214321668E+02 -0.46649775818E+02  0.67024002366E+03  0.68775577418E+03  0.12509221619E+03 0.  0.
          5    1    3    3  502    0 -0.46406671974E+02  0.33935732544E+01  0.56674275029E+03  0.56866502702E+03  0.41800000000E+01 0. -1.
         -5    1    3    3    0  502 -0.30807649693E+02 -0.50043349072E+02  0.10349727337E+03  0.11909074717E+03  0.41800000000E+01 0. -1.
        -11    1    1    2    0    0  0.16787039888E+02  0.10593855523E+02  0.74225127285E+01  0.21192644437E+02  0.00000000000E+00 0.  1.
         11    1    1    2    0    0  0.60427281780E+02  0.36055920295E+02  0.21195332134E+03  0.22332867303E+03  0.00000000000E+00 0. -1.
</event>
<event>
 7    1  0.2490079E-009  0.8936627E+02  0.7561462E-02  0.1304394E+00
          2   -1    0    0  501    0  0.00000000000E+00  0.00000000000E+00  0.26969562038E+03  0.26969562038E+03  0.00000000000E+00 0. -1.
         -2   -1    0    0    0  501 -0.00000000000E+00 -0.00000000000E+00 -0.42497269973E+02  0.42497269973E+02  0.00000000000E+00 0.  1.
         25    2    1    2    0    0  0.12589330597E+00 -0.95382759093E+01  0.10753475124E+03  0.16524190247E+03  0.12510063570E+03 0.  0.
          5    1    3    3  502    0  0.40190416301E+02 -0.47185618008E+02  0.85908399099E+02  0.10601640225E+03  0.41800000000E+01 0. -1.
         -5    1    3    3    0  502 -0.40064522995E+02  0.37647342099E+02  0.21626352136E+02  0.59225500223E+02  0.41800000000E+01 0. -1.
        -11    1    1    2    0    0  0.15950453637E+02  0.30879190506E+02  0.13186719148E+02  0.37172986689E+02  0.00000000000E+00 0.  1.
         11    1    1    2    0    0 -0.16076346943E+02 -0.21340914596E+02  0.10647688002E+03  0.10977800119E+03  0.00000000000E+00 0. -1.
</event>
<event>
 7    1  0.2490079E-009  0.7999334E+02  0.7561462E-02  0.1329070E+00
          3   -1    0    0  501    0  0.00000000000E+00  0.00000000000E+00  0.14602539598E+03  0.14602539598E+03  0.00000000000E+00 0. -1.
         -3   -1    0    0    0  501 -0.00000000000E+00 -0.00000000000E+00 -0.11959625541E+03  0.11959625541E+03  0.00000000000E+00 0.  1.
         25    2    1    2    0    0 -0.12632238223E+02  0.53608271906E+02 -0.42042770054E+02  0.14299811033E+03  0.12508974692E+03 0.  0.
          5    1    3    3  502    0  0.35339419140E+02  0.12642023886E+02  0.29208446220E+02  0.47742025969E+02  0.41800000000E+01 0.  1.
         -5    1    3    3    0  502 -0.47971657363E+02  0.40966248020E+02 -0.71251216274E+02  0.95256084360E+02  0.41800000000E+01 0.  1.
        -11    1    1    2    0    0  0.24119044893E+01 -0.46473311626E+02  0.87947672177E+02  0.99500648330E+02  0.00000000000E+00 0. -1.
         11    1    1    2    0    0  0.10220333734E+02 -0.71349602801E+01 -0.19475761560E+02  0.23122892729E+02  0.00000000000E+00 0.  1.
</event>
<event>
 7    1  0.2490079E-009  0.1708080E+03  0.7561462E-02  0.1177008E+00
          1   -1    0    0  501    0  0.00000000000E+00  0.00000000000E+00  0.21333229600E+03  0.21333229600E+03  0.00000000000E+00 0. -1.
         -1   -1    0    0    0  501 -0.00000000000E+00 -0.00000000000E+00 -0.24228004929E+03  0.24228004929E+03  0.00000000000E+00 0.  1.
         25    2    1    2    0    0  0.11075777561E+02  0.14913873365E+03  0.11599596285E+03  0.22686621095E+03  0.12509268384E+03 0.  0.
          5    1    3    3  502    0  0.61100365493E+02  0.11664911715E+03  0.59350691466E+02  0.14449999367E+03  0.41800000000E+01 0. -1.
         -5    1    3    3    0  502 -0.50024587932E+02  0.32489616502E+02  0.56645271381E+02  0.82366217274E+02  0.41800000000E+01 0. -1.
        -11    1    1    2    0    0 -0.10183290206E+02 -0.55369899132E+02 -0.11869307000E+03  0.13136807069E+03  0.00000000000E+00 0.  1.
         11    1    1    2    0    0 -0.89248735537E+00 -0.93768834516E+02 -0.26250646135E+02  0.97378063663E+02  0.00000000000E+00 0. -1.
</event>
<event>
 7    1  0.2490079E-009  0.1590262E+03  0.7561462E-02  0.1189801E+00
         -1   -1    0    0    0  501 -0.00000000000E+00  0.00000000000E+00  0.17766959507E+03  0.17766959507E+03  0.00000000000E+00 0. -1.
          1   -1    0    0  501    0  0.00000000000E+00 -0.00000000000E+00 -0.17769670255E+03  0.17769670255E+03  0.00000000000E+00 0.  1.
         25    2    1    2    0    0  0.13920611726E+03  0.70560820115E+01 -0.74571812508E+01  0.18743484257E+03  0.12509228306E+03 0.  0.
          5    1    3    3  502    0  0.15833318457E+03  0.25703085012E+01  0.12777587929E+02  0.15892370174E+03  0.41800000000E+01 0.  1.
         -5    1    3    3    0  502 -0.19127067307E+02  0.44857735104E+01 -0.20234769179E+02  0.28511140831E+02  0.41800000000E+01 0.  1.
        -11    1    1    2    0    0 -0.60047586026E+02  0.39673110685E+00 -0.42929508773E+02  0.73816073498E+02  0.00000000000E+00 0. -1.
         11    1    1    2    0    0 -0.79158531234E+02 -0.74528131184E+01  0.50359582550E+02  0.94115381554E+02  0.00000000000E+00 0.  1.
</event>
<event>
 7    1  0.2490079E-009  0.9747229E+02  0.7561462E-02  0.1285703E+00
         -2   -1    0    0    0  501 -0.00000000000E+00  0.00000000000E+00  0.11318770601E+03  0.11318770601E+03  0.00000000000E+00 0.  1.
          2   -1    0    0  501    0  0.00000000000E+00 -0.00000000000E+00 -0.14328217411E+03  0.14328217411E+03  0.00000000000E+00 0. -1.
         25    2    1    2    0    0 -0.58246934499E+02 -0.26385718153E+02 -0.32654456030E+02  0.14422312016E+03  0.12508030775E+03 0.  0.
          5    1    3    3  502    0  0.16358136989E+02  0.31414620404E+02  0.14670399019E+02  0.38563713880E+02  0.41800000000E+01 0. -1.
         -5    1    3    3    0  502 -0.74605071487E+02 -0.57800338557E+02 -0.47324855049E+02  0.10565940627E+03  0.41800000000E+01 0. -1.
        -11    1    1    2    0    0  0.46822584624E+02  0.25591838598E+02  0.44057559811E+02  0.69198014496E+02  0.00000000000E+00 0.  1.
         11    1    1    2    0    0  0.11424349875E+02  0.79387955550E+00 -0.41497571876E+02  0.43048745469E+02  0.00000000000E+00 0. -1.
</event>
<event>
 7    1  0.2490079E-009  0.1530451E+03  0.7561462E-02  0.1196780E+00
         -2   -1    0    0    0  501 -0.00000000000E+00  0.00000000000E+00  0.62091177726E+02  0.62091177726E+02  0.00000000000E+00 0.  1.
          2   -1    0    0  501    0  0.00000000000E+00 -0.00000000000E+00 -0.44290192741E+03  0.44290192741E+03  0.00000000000E+00 0. -1.
         25    2    1    2    0    0 -0.77920745754E+02 -0.72584910039E+02 -0.29770918034E+03  0.34002799253E+03  0.12509223743E+03 0.  0.
          5    1    3    3  502    0 -0.57715077510E+02  0.26007344490E+02 -0.12117547447E+03  0.13677858075E+03  0.41800000000E+01 0.  1.
         -5    1    3    3    0  502 -0.20205668244E+02 -0.98592254529E+02 -0.17653370587E+03  0.20324941178E+03  0.41800000000E+01 0.  1.
        -11    1    1    2    0    0  0.80374659658E+02  0.11976577339E+02 -0.40147764241E+02  0.90638663348E+02  0.00000000000E+00 0.  1.
         11    1    1    2    0    0 -0.24539139045E+01  0.60608332700E+02 -0.42953805109E+02  0.74326449259E+02  0.00000000000E+00 0. -1.
</event>
<event>
 7    1  0.2490079E-009  0.6500381E+02  0.7561462E-02  0.1377957E+00
         -2   -1    0    0    0  501 -0.00000000000E+00  0.00000000000E+00  0.31860278100E+02  0.31860278100E+02  0.00000000000E+00 0.  1.
          2   -1    0    0  501    0  0.00000000000E+00 -0.00000000000E+00 -0.45424871630E+03  0.45424871630E+03  0.00000000000E+00 0. -1.
         25    2    1    2    0    0 -0.37425606454E+02  0.17701396857E+01 -0.21948605353E+03  0.25539856634E+03  0.12510192078E+03 0.  0.
          5    1    3    3  502    0  0.74478312310E+01 -0.10935739375E+01 -0.20882001327E+03  0.20899745558E+03  0.41800000000E+01 0. -1.
         -5    1    3    3    0  502 -0.44873437685E+02  0.28637136233E+01 -0.10666040253E+02  0.46401110763E+02  0.41800000000E+01 0. -1.
        -11    1    1    2    0    0 -0.19193255225E+02  0.29701492685E+01  0.59433411241E+00  0.19430801986E+02  0.00000000000E+00 0.  1.
         11    1    1    2    0    0  0.56618861678E+02 -0.47402889542E+01 -0.20349671879E+03  0.21127962608E+03  0.00000000000E+00 0. -1.
</event>
<event>
 7    1  0.2490079E-009  0.1327220E+03  0.7561462E-02  0.1223472E+00
         -1   -1    0    0    0  501 -0.00000000000E+00  0.00000000000E+00  0.53101428934E+02  0.53101428934E+02  0.00000000000E+00 0.  1.
          1   -1    0    0  501    0  0.00000000000E+00 -0.00000000000E+00 -0.42821967900E+03  0.42821967900E+03  0.00000000000E+00 0. -1.
         25    2    1    2    0    0  0.99181900021E+02 -0.21465487322E+02 -0.16153705884E+03  0.22812173281E+03  0.12508991632E+03 0.  0.
          5    1    3    3  502    0  0.59786225576E+02 -0.68722586681E+02 -0.59442512285E+02  0.10884884637E+03  0.41800000000E+01 0.  1.
         -5    1    3    3    0  502  0.39395674445E+02  0.47257099359E+02 -0.10209454655E+03  0.11927288644E+03  0.41800000000E+01 0.  1.
        -11    1    1    2    0    0 -0.54118087012E+02  0.36283224964E+02 -0.47919671697E+02  0.80879754520E+02  0.00000000000E+00 0. -1.
         11    1    1    2    0    0 -0.45063813009E+02 -0.14817737642E+02 -0.16566151953E+03  0.17231962061E+03  0.00000000000E+00 0.  1.
</event>
<event>
 7    1  0.2490079E-009  0.1271295E+03  0.7561462E-02  0.1231778E+00
         -2   -1    0    0    0  501 -0.00000000000E+00  0.00000000000E+00  0.14604369112E+03  0.14604369112E+03  0.00000000000E+00 0. -1.
          2   -1    0    0  501    0  0.00000000000E+00 -0.00000000000E+00 -0.13414939623E+03  0.13414939623E+03  0.00000000000E+00 0.  1.
         25    2    1    2    0    0 -0.86822358408E+02 -0.16456269613E+02 -0.32252463271E+01  0.15318811288E+03  0.12508902823E+03 0.  0.
          5    1    3    3  502    0 -0.52596538080E+01  0.46192771270E+02  0.14203102875E+02  0.48791767821E+02  0.41800000000E+01 0.  1.
         -5    1    3    3    0  502 -0.81562704600E+02 -0.62649040883E+02 -0.17428349202E+02  0.10439634506E+03  0.41800000000E+01 0.  1.
        -11    1    1    2    0    0  0.20023179867E+02  0.30407802412E+02  0.40259712298E+02  0.54280812575E+02  0.00000000000E+00 0. -1.
         11    1    1    2    0    0  0.66799178541E+02 -0.13951532798E+02 -0.25140171087E+02  0.72724161896E+02  0.00000000000E+00 0.  1.
</event>
<event>
 7    1  0.2490079E-009  0.1527161E+03  0.7561462E-02  0.1197175E+00
          2   -1    0    0  501    0  0.00000000000E+00  0.00000000000E+00  0.21755186674E+04  0.21755186674E+04  0.00000000000E+00 0. -1.
         -2   -1    0    0    0  501 -0.00000000000E+00 -0.00000000000E+00 -0.13643841044E+02  0.13643841044E+02  0.00000000000E+00 0.  1.
         25    2    1    2    0    0  0.11185320098E+03  0.63517705105E+02  0.13856665612E+04  0.13972348156E+04  0.12509066213E+03 0.  0.
          5    1    3    3  502    0  0.32289089535E+02  0.65114537733E+02  0.10381023348E+04  0.10406519198E+04  0.41800000000E+01 0. -1.
         -5    1    3    3    0  502  0.79564111448E+02 -0.15968326278E+01  0.34756422637E+03  0.35658289578E+03  0.41800000000E+01 0. -1.
        -11    1    1    2    0    0 -0.12438934672E+03 -0.48827673745E+02  0.72471975215E+03  0.73693661224E+03  0.00000000000E+00 0. -1.
         11    1    1    2    0    0  0.12536145733E+02 -0.14690031360E+02  0.51488513002E+02  0.54991080571E+02  0.00000000000E+00 0.  1.
</event>
<event>
 7    1  0.2490079E-009  0.1154527E+03  0.7561462E-02  0.1250793E+00
          4   -1    0    0  501    0  0.00000000000E+00  0.00000000000E+00  0.40924476914E+02  0.40924476914E+02  0.00000000000E+00 0. -1.
         -4   -1    0    0    0  501 -0.00000000000E+00 -0.00000000000E+00 -0.48274368902E+03  0.48274368902E+03  0.00000000000E+00 0.  1.
         25    2    1    2    0    0  0.72379408963E+02  0.35890199837E+02 -0.31276617354E+03  0.34640667742E+03  0.12509205236E+03 0.  0.
          5    1    3    3  502    0 -0.10301539667E+02  0.24556007315E+02 -0.21964251595E+03  0.22129036677E+03  0.41800000000E+01 0.  1.
         -5    1    3    3    0  502  0.82680948629E+02  0.11334192522E+02 -0.93123657596E+02  0.12511631065E+03  0.41800000000E+01 0.  1.
        -11    1    1    2    0    0 -0.28372608186E+02 -0.62728169780E+02 -0.85553948077E+02  0.10981487245E+03  0.00000000000E+00 0.  1.
         11    1    1    2    0    0 -0.44006800776E+02  0.26837969943E+02 -0.43499090481E+02  0.67446616060E+02  0.00000000000E+00 0. -1.
</event>
<event>
 7    1  0.2504549E-009  0.1124535E+03  0.7561462E-02  0.1256093E+00
          3   -1    0    0  501    0  0.00000000000E+00  0.00000000000E+00  0.28130962218E+03  0.28130962218E+03  0.00000000000E+00 0. -1.
         -3   -1    0    0    0  501 -0.00000000000E+00 -0.00000000000E+00 -0.72355350556E+02  0.72355350556E+02  0.00000000000E+00 0.  1.
         25    2    1    2    0    0  0.37587004217E+02 -0.66434031304E+02  0.17747115585E+03  0.23015003323E+03  0.12508702266E+03 0.  0.
          5    1    3    3  502    0  0.45446705399E+02 -0.10099228215E+03  0.13241281888E+03  0.17267157001E+03  0.41800000000E+01 0.  1.
         -5    1    3    3    0  502 -0.78597011821E+01  0.34558250848E+02  0.45058336969E+02  0.57478463225E+02  0.41800000000E+01 0.  1.
        -11    1    1    2    0    0 -0.60393429928E+01  0.28134104127E+02 -0.31938329103E+02  0.42989049125E+02  0.00000000000E+00 0.  1.
         11    1    1    2    0    0 -0.31547661224E+02  0.38299927177E+02  0.63421444879E+02  0.80525890377E+02  0.00000000000E+00 0. -1.
</event>
<event>
 7    1  0.2490079E-009  0.1208531E+03  0.7561462E-02  0.1241696E+00
          1   -1    0    0  501    0  0.00000000000E+00  0.00000000000E+00  0.64142508916E+02  0.64142508916E+02  0.00000000000E+00 0. -1.
         -1   -1    0    0    0  501 -0.00000000000E+00 -0.00000000000E+00 -0.34672864855E+03  0.34672864855E+03  0.00000000000E+00 0.  1.
         25    2    1    2    0    0  0.39505520599E+02 -0.91096256857E+02 -0.12373090651E+03  0.20202941149E+03  0.12508929495E+03 0.  0.
          5    1    3    3  502    0  0.61792868995E+02 -0.81527144242E+02 -0.13932059910E+03  0.17289515794E+03  0.41800000000E+01 0.  1.
         -5    1    3    3    0  502 -0.22287348396E+02 -0.95691126152E+01  0.15589692590E+02  0.29134253548E+02  0.41800000000E+01 0.  1.
        -11    1    1    2    0    0  0.12931056667E+02  0.37766579343E+02 -0.11592525084E+03  0.12260583398E+03  0.00000000000E+00 0.  1.
         11    1    1    2    0    0 -0.52436577265E+02  0.53329677514E+02 -0.42929982275E+02  0.86235911993E+02  0.00000000000E+00 0. -1.
</event>
<event>
 7    1  0.2490079E-009  0.1160015E+03  0.7561462E-02  0.1249843E+00
          2   -1    0    0  501    0  0.00000000000E+00  0.00000000000E+00  0.27991196339E+03  0.27991196339E+03  0.00000000000E+00 0.  1.
         -2   -1    0    0    0  501 -0.00000000000E+00 -0.00000000000E+00 -0.61452373186E+02  0.61452373186E+02  0.00000000000E+00 0. -1.
         25    2    1    2    0    0  0.64675196105E+02  0.18511018120E+01  0.58287180235E+02  0.15241800613E+03  0.12509015007E+03 0.  0.
          5    1    3    3  502    0  0.25606318336E+02  0.61402738756E+02  0.43379113439E+02  0.79531124399E+02  0.41800000000E+01 0.  1.
         -5    1    3    3    0  502  0.39068877770E+02 -0.59551636944E+02  0.14908066796E+02  0.72886881731E+02  0.41800000000E+01 0.  1.
        -11    1    1    2    0    0 -0.47678550779E+02  0.31097538171E+02  0.62823563731E+02  0.84776773025E+02  0.00000000000E+00 0. -1.
         11    1    1    2    0    0 -0.16996645327E+02 -0.32948639983E+02  0.97348846234E+02  0.10416955742E+03  0.00000000000E+00 0.  1.
</event>
<event>
 7    1  0.2490079E-009  0.1546822E+03  0.7561462E-02  0.1194835E+00
         -1   -1    0    0    0  501 -0.00000000000E+00  0.00000000000E+00  0.96493658054E+02  0.96493658054E+02  0.00000000000E+00 0.  1.
          1   -1    0    0  501    0  0.00000000000E+00 -0.00000000000E+00 -0.34925971880E+03  0.34925971880E+03  0.00000000000E+00 0. -1.
         25    2    1    2    0    0 -0.98793601878E+02 -0.86929061675E+02 -0.49919827343E+02  0.18829556712E+03  0.12508554632E+03 0.  0.
          5    1    3    3  502    0  0.16706949071E+02  0.13533338713E+02 -0.24843718048E+02  0.33120328054E+02  0.41800000000E+01 0.  1.
         -5    1    3    3    0  502 -0.11550055095E+03 -0.10046240039E+03 -0.25076109295E+02  0.15517523906E+03  0.41800000000E+01 0.  1.
        -11    1    1    2    0    0  0.47539945781E+02  0.59610156084E+02 -0.17920513669E+03  0.19475086179E+03  0.00000000000E+00 0. -1.
         11    1    1    2    0    0  0.51253656097E+02  0.27318905591E+02 -0.23641096710E+02  0.62706947938E+02  0.00000000000E+00 0.  1.
</event>
<event>
 7    1  0.2490079E-009  0.1334203E+03  0.7561462E-02  0.1222467E+00
         -2   -1    0    0    0  501 -0.00000000000E+00  0.00000000000E+00  0.56703077368E+03  0.56703077368E+03  0.00000000000E+00 0.  1.
          2   -1    0    0  501    0  0.00000000000E+00 -0.00000000000E+00 -0.47591725049E+02  0.47591725049E+02  0.00000000000E+00 0. -1.
         25    2    1    2    0    0  0.31093459768E+01 -0.11665038259E+03  0.20235265440E+03  0.26497431128E+03  0.12509120316E+03 0.  0.
          5    1    3    3  502    0  0.45791476214E+02 -0.65301580479E+02  0.39886648899E+02  0.89272464217E+02  0.41800000000E+01 0. -1.
         -5    1    3    3    0  502 -0.42682130237E+02 -0.51348802114E+02  0.16246600550E+03  0.17570184707E+03  0.41800000000E+01 0. -1.
        -11    1    1    2    0    0 -0.13699464075E+02  0.32665898557E+02  0.21088122454E+03  0.21383551415E+03  0.00000000000E+00 0.  1.
         11    1    1    2    0    0  0.10590118098E+02  0.83984484036E+02  0.10620516969E+03  0.13581267330E+03  0.00000000000E+00 0. -1.
</event>
<event>
 7    1  0.2490079E-009  0.1112087E+03  0.7561462E-02  0.1258348E+00
         -2   -1    0    0    0  501 -0.00000000000E+00  0.00000000000E+00  0.76753118633E+02  0.76753118633E+02  0.00000000000E+00 0.  1.
          2   -1    0    0  501    0  0.00000000000E+00 -0.00000000000E+00 -0.35049350865E+03  0.35049350865E+03  0.00000000000E+00 0. -1.
         25    2    1    2    0    0  0.27954521424E+02 -0.84803383159E+02 -0.25469559978E+03  0.29747276048E+03  0.12508847116E+03 0.  0.
          5    1    3    3  502    0 -0.37132065385E+02 -0.30806695715E+02 -0.29072174181E+02  0.56484568620E+02  0.41800000000E+01 0. -1.
         -5    1    3    3    0  502  0.65086586809E+02 -0.53996687444E+02 -0.22562342560E+03  0.24098819186E+03  0.41800000000E+01 0. -1.
        -11    1    1    2    0    0 -0.47245060287E+01  0.16999666456E+02 -0.49010041964E+02  0.52089287095E+02  0.00000000000E+00 0. -1.
         11    1    1    2    0    0 -0.23230015395E+02  0.67803716703E+02  0.29965251723E+02  0.77684579711E+02  0.00000000000E+00 0.  1.
</event>
<event>
 7    1  0.2490079E-009  0.2061671E+03  0.7561462E-02  0.1144638E+00
         -1   -1    0    0    0  501 -0.00000000000E+00  0.00000000000E+00  0.47543342924E+03  0.47543342924E+03  0.00000000000E+00 0.  1.
          1   -1    0    0  501    0  0.00000000000E+00 -0.00000000000E+00 -0.10980331220E+03  0.10980331220E+03  0.00000000000E+00 0. -1.
         25    2    1    2    0    0  0.10235909794E+03  0.15134166949E+03  0.29541349077E+03  0.36918682782E+03  0.12509235570E+03 0.  0.
          5    1    3    3  502    0 -0.26339627199E+02  0.65239628480E+01  0.31864244793E+02  0.42061152487E+02  0.41800000000E+01 0.  1.
         -5    1    3    3    0  502  0.12869872514E+03  0.14481770664E+03  0.26354924598E+03  0.32712567534E+03  0.41800000000E+01 0.  1.
        -11    1    1    2    0    0 -0.65742881562E+02 -0.47845253415E+02  0.68397435215E+02  0.10625207713E+03  0.00000000000E+00 0.  1.
         11    1    1    2    0    0 -0.36616216378E+02 -0.10349641607E+03  0.18191910626E+01  0.10979783649E+03  0.00000000000E+00 0. -1.
</event>
<event>
 7    1  0.2490079E-009  0.9582976E+02  0.7561462E-02  0.1289318E+00
          4   -1    0    0  501    0  0.00000000000E+00  0.00000000000E+00  0.52563739631E+02  0.52563739631E+02  0.00000000000E+00 0. -1.
         -4   -1    0    0    0  501 -0.00000000000E+00 -0.00000000000E+00 -0.24180789461E+03  0.24180789461E+03  0.00000000000E+00 0.  1.
         25    2    1    2    0    0 -0.44623484591E+00 -0.35272366108E+02 -0.11485979326E+03  0.17345212427E+03  0.12509407807E+03 0.  0.
          5    1    3    3  502    0  0.26750295481E+01 -0.79744305520E+02 -0.95911503836E+02  0.12483108192E+03  0.41800000000E+01 0. -1.
         -5    1    3    3    0  502 -0.31212643940E+01  0.44471939412E+02 -0.18948289423E+02  0.48621042343E+02  0.41800000000E+01 0. -1.
        -11    1    1    2    0    0 -0.29714954483E+01 -0.15658861740E+02  0.12428487408E+02  0.20211309592E+02  0.00000000000E+00 0. -1.
         11    1    1    2    0    0  0.34177302942E+01  0.50931227848E+02 -0.86812849132E+02  0.10070820039E+03  0.00000000000E+00 0.  1.
</event>
<event>
 7    1  0.2490079E-009  0.1208768E+03  0.7561462E-02  0.1241658E+00
          2   -1    0    0  501    0  0.00000000000E+00  0.00000000000E+00  0.43575100991E+03  0.43575100991E+03  0.00000000000E+00 0. -1.
         -2   -1    0    0    0  501 -0.00000000000E+00 -0.00000000000E+00 -0.38821362158E+02  0.38821362158E+02  0.00000000000E+00 0.  1.
         25    2    1    2    0    0  0.67187869277E+02 -0.37324932574E+01  0.17222336874E+03  0.22324066560E+03  0.12508942703E+03 0.  0.
          5    1    3    3  502    0  0.99191394212E+02 -0.24620553644E+02  0.11095389871E+03  0.15090839733E+03  0.41800000000E+01 0.  1.
         -5    1    3    3    0  502 -0.32003524935E+02  0.20888060386E+02  0.61269470033E+02  0.72332268270E+02  0.41800000000E+01 0.  1.
        -11    1    1    2    0    0 -0.81812254440E+02  0.14202626085E+02  0.12533397032E+03  0.15034481594E+03  0.00000000000E+00 0.  1.
         11    1    1    2    0    0  0.14624385162E+02 -0.10470132827E+02  0.99372308697E+02  0.10098689053E+03  0.00000000000E+00 0. -1.
</event>
<event>
 7    1  0.2490079E-009  0.9876022E+02  0.7561462E-02  0.1282925E+00
         -1   -1    0    0    0  501 -0.00000000000E+00  0.00000000000E+00  0.12747253362E+03  0.12747253362E+03  0.00000000000E+00 0.  1.
          1   -1    0    0  501    0  0.00000000000E+00 -0.00000000000E+00 -0.99972265493E+02  0.99972265493E+02  0.00000000000E+00 0. -1.
         25    2    1    2    0    0 -0.21473320176E+02  0.19566207308E+02 -0.69842067021E+01  0.12860859950E+03  0.12508977886E+03 0.  0.
          5    1    3    3  502    0  0.48869253864E+02  0.29499127497E+02 -0.19775549948E+01  0.57269412604E+02  0.41800000000E+01 0. -1.
         -5    1    3    3    0  502 -0.70342574039E+02 -0.99329201885E+01 -0.50066517073E+01  0.71339186898E+02  0.41800000000E+01 0. -1.
        -11    1    1    2    0    0  0.19878758376E+01  0.22591546227E+02  0.45735603118E+02  0.51049730693E+02  0.00000000000E+00 0.  1.
         11    1    1    2    0    0  0.19485444338E+02 -0.42157753535E+02 -0.11251128286E+02  0.47786468921E+02  0.00000000000E+00 0. -1.
</event>
<event>
 7    1  0.2490079E-009  0.1193523E+03  0.7561462E-02  0.1244169E+00
          2   -1    0    0  501    0  0.00000000000E+00  0.00000000000E+00  0.85410262523E+02  0.85410262523E+02  0.00000000000E+00 0.  1.
         -2   -1    0    0    0  501 -0.00000000000E+00 -0.00000000000E+00 -0.18246687040E+03  0.18246687040E+03  0.00000000000E+00 0. -1.
         25    2    1    2    0    0  0.48355415967E+02  0.33779241258E+02 -0.24116657255E+02  0.14037990650E+03  0.12508245919E+03 0.  0.
          5    1    3    3  502    0 -0.40249160834E+02 -0.56733527037E+01 -0.11730003858E+02  0.42511730960E+02  0.41800000000E+01 0.  1.
         -5    1    3    3    0  502  0.88604576801E+02  0.39452593962E+02 -0.12386653397E+02  0.97868175536E+02  0.41800000000E+01 0.  1.
        -11    1    1    2    0    0 -0.15843122015E+02  0.27302620061E+02 -0.79161074275E+01  0.32543852479E+02  0.00000000000E+00 0.  1.
         11    1    1    2    0    0 -0.32512293952E+02 -0.61081861319E+02 -0.65023843193E+02  0.94953373947E+02  0.00000000000E+00 0. -1.
</event>
<event>
 7    1  0.2490079E-009  0.1559205E+03  0.7561462E-02  0.1193381E+00
         -1   -1    0    0    0  501 -0.00000000000E+00  0.00000000000E+00  0.23317070862E+02  0.23317070862E+02  0.00000000000E+00 0.  1.
          1   -1    0    0  501    0  0.00000000000E+00 -0.00000000000E+00 -0.13415353677E+04  0.13415353677E+04  0.00000000000E+00 0. -1.
         25    2    1    2    0    0  0.12763560765E+03 -0.44374368480E+02 -0.80993879483E+03  0.83060696164E+03  0.12508853036E+03 0.  0.
          5    1    3    3  502    0 -0.48559260394E+01 -0.22627943668E+02 -0.25258823638E+02  0.34512090981E+02  0.41800000000E+01 0.  1.
         -5    1    3    3    0  502  0.13249153369E+03 -0.21746424812E+02 -0.78467997119E+03  0.79609487066E+03  0.41800000000E+01 0.  1.
        -11    1    1    2    0    0 -0.57702937556E+02  0.59023726875E+02 -0.17633720278E+03  0.19470038115E+03  0.00000000000E+00 0.  1.
         11    1    1    2    0    0 -0.69932670094E+02 -0.14649358395E+02 -0.33194229926E+03  0.33954509581E+03  0.00000000000E+00 0. -1.
</event>
<event>
 7    1  0.2490079E-009  0.1235133E+03  0.7561462E-02  0.1237411E+00
         -3   -1    0    0    0  501 -0.00000000000E+00  0.00000000000E+00  0.12906376276E+03  0.12906376276E+03  0.00000000000E+00 0.  1.
          3   -1    0    0  501    0  0.00000000000E+00 -0.00000000000E+00 -0.18792392502E+03  0.18792392502E+03  0.00000000000E+00 0. -1.
         25    2    1    2    0    0 -0.61561348132E+02  0.76379908418E+02  0.22147285208E+02  0.16050627502E+03  0.12509225429E+03 0.  0.
          5    1    3    3  502    0 -0.91766388881E+02  0.68813669209E+02  0.43253990268E+02  0.12265712891E+03  0.41800000000E+01 0.  1.
         -5    1    3    3    0  502  0.30205040750E+02  0.75662392084E+01 -0.21106705059E+02  0.37849146105E+02  0.41800000000E+01 0.  1.
        -11    1    1    2    0    0  0.31736243202E+02 -0.57071310234E+02  0.28952952771E+01  0.65365941583E+02  0.00000000000E+00 0.  1.
         11    1    1    2    0    0  0.29825104930E+02 -0.19308598184E+02 -0.83902742743E+02  0.91115471177E+02  0.00000000000E+00 0. -1.
</event>
<event>
 7    1  0.2490079E-009  0.6978140E+02  0.7561462E-02  0.1360838E+00
          3   -1    0    0  501    0  0.00000000000E+00  0.00000000000E+00  0.78888376985E+03  0.78888376985E+03  0.00000000000E+00 0. -1.
         -3   -1    0    0    0  501 -0.00000000000E+00 -0.00000000000E+00 -0.17011673197E+02  0.17011673197E+02  0.00000000000E+00 0.  1.
         25    2    1    2    0    0  0.24943914251E+02 -0.14845945254E+02  0.56966378142E+03  0.58395797389E+03  0.12508992947E+03 0.  0.
          5    1    3    3  502    0  0.50159611260E+02  0.11886386309E+02  0.51713526380E+03  0.51971494711E+03  0.41800000000E+01 0.  1.
         -5    1    3    3    0  502 -0.25215697009E+02 -0.26732331563E+02  0.52528517623E+02  0.64243026782E+02  0.41800000000E+01 0.  1.
        -11    1    1    2    0    0 -0.36428088831E+02  0.14945614394E+02  0.20608763237E+03  0.20981536946E+03  0.00000000000E+00 0. -1.
         11    1    1    2    0    0  0.11484174579E+02 -0.99669140148E-01 -0.38793171385E+01  0.12122099701E+02  0.00000000000E+00 0.  1.
</event>
<event>
 7    1  0.2490079E-009  0.1212473E+03  0.7561462E-02  0.1241053E+00
          1   -1    0    0  501    0  0.00000000000E+00  0.00000000000E+00  0.30647914447E+03  0.30647914447E+03  0.00000000000E+00 0. -1.
         -1   -1    0    0    0  501 -0.00000000000E+00 -0.00000000000E+00 -0.63381053089E+02  0.63381053089E+02  0.00000000000E+00 0.  1.
         25    2    1    2    0    0  0.81009620606E+02  0.63794370477E+01  0.91496475311E+02  0.17499423752E+03  0.12509245510E+03 0.  0.
          5    1    3    3  502    0  0.10348624336E+03  0.37826853415E+02  0.66165297558E+02  0.12859079440E+03  0.41800000000E+01 0. -1.
         -5    1    3    3    0  502 -0.22476622755E+02 -0.31447416367E+02  0.25331177752E+02  0.46403443115E+02  0.41800000000E+01 0. -1.
        -11    1    1    2    0    0 -0.81748986742E+02  0.50452123918E+01  0.16061644929E+03  0.18029418955E+03  0.00000000000E+00 0. -1.
         11    1    1    2    0    0  0.73936613519E+00 -0.11424649440E+02 -0.90148332262E+01  0.14571770489E+02  0.00000000000E+00 0.  1.
</event>
<event>
 7    1  0.2490079E-009  0.1048906E+03  0.7561462E-02  0.1270335E+00
          2   -1    0    0  501    0  0.00000000000E+00  0.00000000000E+00  0.22007515787E+03  0.22007515787E+03  0.00000000000E+00 0. -1.
         -2   -1    0    0    0  501 -0.00000000000E+00 -0.00000000000E+00 -0.10431052214E+03  0.10431052214E+03  0.00000000000E+00 0.  1.
         25    2    1    2    0    0  0.77720141114E+02 -0.24801860147E+01 -0.14952437848E+02  0.14804160874E+03  0.12508465479E+03 0.  0.
          5    1    3    3  502    0  0.10399368198E+03 -0.74111901579E+01 -0.39442326288E+02  0.11154721482E+03  0.41800000000E+01 0.  1.
         -5    1    3    3    0  502 -0.26273540868E+02  0.49310041432E+01  0.24489888440E+02  0.36494393918E+02  0.41800000000E+01 0.  1.
        -11    1    1    2    0    0 -0.50541253067E+02 -0.31031396557E+01  0.13854996757E+03  0.14751319009E+03  0.00000000000E+00 0. -1.
         11    1    1    2    0    0 -0.27178888047E+02  0.55833256704E+01 -0.78328939881E+01  0.28830881174E+02  0.00000000000E+00 0.  1.
</event>
<event>
 7    1  0.2490079E-009  0.2126877E+03  0.7561462E-02  0.1139455E+00
         -2   -1    0    0    0  501 -0.00000000000E+00  0.00000000000E+00  0.41469695871E+02  0.41469695871E+02  0.00000000000E+00 0.  1.
          2   -1    0    0  501    0  0.00000000000E+00 -0.00000000000E+00 -0.18944121891E+04  0.18944121891E+04  0.00000000000E+00 0. -1.
         25    2    1    2    0    0  0.34227111585E+02 -0.19758226379E+03 -0.15071893965E+04  0.15256069304E+04  0.12508550267E+03 0.  0.
          5    1    3    3  502    0  0.16244236499E+02 -0.12136750766E+02 -0.28534958535E+02  0.35254676246E+02  0.41800000000E+01 0. -1.
         -5    1    3    3    0  502  0.17982875086E+02 -0.18544551303E+03 -0.14786544380E+04  0.14903522542E+04  0.41800000000E+01 0. -1.
        -11    1    1    2    0    0 -0.62049560361E+02  0.15951497688E+03 -0.24308120296E+03  0.29729387317E+03  0.00000000000E+00 0.  1.
         11    1    1    2    0    0  0.27822448776E+02  0.38067286915E+02 -0.10267189377E+03  0.11298108142E+03  0.00000000000E+00 0. -1.
</event>
<event>
 7    1  0.2490079E-009  0.1860203E+03  0.7561462E-02  0.1162101E+00
          1   -1    0    0  501    0  0.00000000000E+00  0.00000000000E+00  0.51844975722E+03  0.51844975722E+03  0.00000000000E+00 0. -1.
         -1   -1    0    0    0  501 -0.00000000000E+00 -0.00000000000E+00 -0.69919820824E+02  0.69919820824E+02  0.00000000000E+00 0.  1.
         25    2    1    2    0    0 -0.15202052981E+03  0.59342367717E+01  0.24334479183E+03  0.31306427316E+03  0.12508834785E+03 0.  0.
          5    1    3    3  502    0 -0.91782518115E+02  0.64795120578E+02  0.13193132014E+03  0.17333719715E+03  0.41800000000E+01 0.  1.
         -5    1    3    3    0  502 -0.60238011693E+02 -0.58860883806E+02  0.11141347169E+03  0.13972707600E+03  0.41800000000E+01 0.  1.
        -11    1    1    2    0    0  0.85367131886E+02 -0.46550992275E+02  0.15344927468E+03  0.18166238462E+03  0.00000000000E+00 0.  1.
         11    1    1    2    0    0  0.66653397922E+02  0.40616755504E+02  0.51735869886E+02  0.93642920261E+02  0.00000000000E+00 0. -1.
</event>
<event>
 7    1  0.2490079E-009  0.8926962E+02  0.7561462E-02  0.1304630E+00
         -1   -1    0    0    0  501 -0.00000000000E+00  0.00000000000E+00  0.78309368850E+02  0.78309368850E+02  0.00000000000E+00 0.  1.
          1   -1    0    0  501    0  0.00000000000E+00 -0.00000000000E+00 -0.21441372643E+03  0.21441372643E+03  0.00000000000E+00 0. -1.
         25    2    1    2    0    0 -0.39392502369E+02  0.23436965139E+02 -0.16365550042E+02  0.13422413257E+03  0.12508887224E+03 0.  0.
          5    1    3    3  502    0 -0.96506482867E+00 -0.18143337768E+02  0.46152285944E+02  0.49775676322E+02  0.41800000000E+01 0. -1.
         -5    1    3    3    0  502 -0.38427437540E+02  0.41580302906E+02 -0.62517835986E+02  0.84448456245E+02  0.41800000000E+01 0. -1.
        -11    1    1    2    0    0  0.40660297533E+02  0.29460239072E+02 -0.67668112868E+02  0.84262322427E+02  0.00000000000E+00 0. -1.
         11    1    1    2    0    0 -0.12677951641E+01 -0.52897204210E+02 -0.52070694671E+02  0.74236640289E+02  0.00000000000E+00 0.  1.
</event>
<event>
 7    1  0.2490079E-009  0.9458286E+02  0.7561462E-02  0.1292118E+00
          1   -1    0    0  501    0  0.00000000000E+00  0.00000000000E+00  0.23293675958E+03  0.23293675958E+03  0.00000000000E+00 0. -1.
         -1   -1    0    0    0  501 -0.00000000000E+00 -0.00000000000E+00 -0.61372214005E+02  0.61372214005E+02  0.00000000000E+00 0.  1.
         25    2    1    2    0    0  0.23253610335E+02  0.72345200333E+01  0.14900759275E+03  0.19606737074E+03  0.12508430156E+03 0.  0.
          5    1    3    3  502    0  0.10674652822E+02  0.50280123666E+02  0.14124235117E+03  0.15036260577E+03  0.41800000000E+01 0.  1.
         -5    1    3    3    0  502  0.12578957514E+02 -0.43045603633E+02  0.77652415769E+01  0.45704764970E+02  0.41800000000E+01 0.  1.
        -11    1    1    2    0    0  0.41124890570E+01 -0.45403473107E+02 -0.12086085087E+01  0.45605357920E+02  0.00000000000E+00 0.  1.
         11    1    1    2    0    0 -0.27366099392E+02  0.38168953074E+02  0.23765561341E+02  0.52636244932E+02  0.00000000000E+00 0. -1.
</event>
<event>
 7    1  0.2490079E-009  0.1157283E+03  0.7561462E-02  0.1250315E+00
         -2   -1    0    0    0  501 -0.00000000000E+00  0.00000000000E+00  0.12426876006E+03  0.12426876006E+03  0.00000000000E+00 0.  1.
          2   -1    0    0  501    0  0.00000000000E+00 -0.00000000000E+00 -0.11157643356E+03  0.11157643356E+03  0.00000000000E+00 0. -1.
         25    2    1    2    0    0  0.35583866681E+02 -0.28985625735E+02  0.17673899936E+02  0.13440987623E+03  0.12508904837E+03 0.  0.
          5    1    3    3  502    0 -0.46537201942E+02 -0.23167918915E+01  0.51867597716E+01  0.47068604889E+02  0.41800000000E+01 0. -1.
         -5    1    3    3    0  502  0.82121068623E+02 -0.26668833844E+02  0.12487140164E+02  0.87341271343E+02  0.41800000000E+01 0. -1.
        -11    1    1    2    0    0 -0.62195110927E+02  0.34399373904E+02  0.76503823328E+01  0.71484803266E+02  0.00000000000E+00 0.  1.
         11    1    1    2    0    0  0.26611244246E+02 -0.54137481681E+01 -0.12631955776E+02  0.29950514124E+02  0.00000000000E+00 0. -1.
</event>
<event>
 7    1  0.3454142E-009  0.9315692E+02  0.7561462E-02  0.1295382E+00
          1   -1    0    0  501    0  0.00000000000E+00  0.00000000000E+00  0.91460971507E+03  0.91460971507E+03  0.00000000000E+00 0. -1.
         -1   -1    0    0    0  501 -0.00000000000E+00 -0.00000000000E+00 -0.18533895776E+02  0.18533895776E+02  0.00000000000E+00 0.  1.
         25    2    1    2    0    0  0.39466062398E+01  0.71730305302E+02  0.51524901579E+03  0.53506328378E+03  0.12510138680E+03 0.  0.
          5    1    3    3  502    0  0.10705271749E+02  0.65730060744E+01  0.41515476203E+03  0.41536580997E+03  0.41800000000E+01 0. -1.
         -5    1    3    3    0  502 -0.67586655093E+01  0.65157299227E+02  0.10009425376E+03  0.11969747382E+03  0.41800000000E+01 0. -1.
        -11    1    1    2    0    0  0.32378411694E+02 -0.61813308329E+02  0.31116321249E+03  0.31889150418E+03  0.00000000000E+00 0. -1.
         11    1    1    2    0    0 -0.36325017933E+02 -0.99169969727E+01  0.69663591003E+02  0.79188822875E+02  0.00000000000E+00 0.  1.
</event>
<event>
 7    1  0.2490079E-009  0.1116242E+03  0.7561462E-02  0.1257591E+00
          2   -1    0    0  501    0  0.00000000000E+00  0.00000000000E+00  0.43391104978E+03  0.43391104978E+03  0.00000000000E+00 0. -1.
         -2   -1    0    0    0  501 -0.00000000000E+00 -0.00000000000E+00 -0.36926265301E+02  0.36926265301E+02  0.00000000000E+00 0.  1.
         25    2    1    2    0    0 -0.94663317764E+01  0.53745604023E+02  0.18068401147E+03  0.22643282780E+03  0.12508761775E+03 0.  0.
          5    1    3    3  502    0 -0.65538198765E+01 -0.31002698516E+02  0.11422736597E+03  0.11861485323E+03  0.41800000000E+01 0.  1.
         -5    1    3    3    0  502 -0.29125118999E+01  0.84748302539E+02  0.66456645496E+02  0.10781797457E+03  0.41800000000E+01 0.  1.
        -11    1    1    2    0    0 -0.40492948107E+02 -0.15076478730E+02  0.47722770523E+02  0.64377339831E+02  0.00000000000E+00 0.  1.
         11    1    1    2    0    0  0.49959279884E+02 -0.38669125293E+02  0.16857800249E+03  0.18002714745E+03  0.00000000000E+00 0. -1.
</event>
<event>
 7    1  0.2490079E-009  0.1033502E+03  0.7561462E-02  0.1273405E+00
         -1   -1    0    0    0  501 -0.00000000000E+00  0.00000000000E+00  0.69803493614E+02  0.69803493614E+02  0.00000000000E+00 0.  1.
          1   -1    0    0  501    0  0.00000000000E+00 -0.00000000000E+00 -0.26596506834E+03  0.26596506834E+03  0.00000000000E+00 0. -1.
         25    2    1    2    0    0  0.27054568297E+02 -0.29390803425E+02 -0.21740114864E+02  0.13309196980E+03  0.12508025759E+03 0.  0.
          5    1    3    3  502    0  0.16207922777E+02 -0.67285978999E+02 -0.49071487512E+02  0.84944587922E+02  0.41800000000E+01 0. -1.
         -5    1    3    3    0  502  0.10846645520E+02  0.37895175574E+02  0.27331372649E+02  0.48147381878E+02  0.41800000000E+01 0. -1.
        -11    1    1    2    0    0 -0.54601942166E+02 -0.36308773151E+01 -0.64166878969E+02  0.84332340860E+02  0.00000000000E+00 0.  1.
         11    1    1    2    0    0  0.27547373870E+02  0.33021680740E+02 -0.11025458089E+03  0.11834425129E+03  0.00000000000E+00 0. -1.
</event>
<event>
 7    1  0.2490079E-009  0.8044481E+02  0.7561462E-02  0.1327794E+00
         -2   -1    0    0    0  501 -0.00000000000E+00  0.00000000000E+00  0.16925888902E+03  0.16925888902E+03  0.00000000000E+00 0.  1.
          2   -1    0    0  501    0  0.00000000000E+00 -0.00000000000E+00 -0.80830956263E+02  0.80830956263E+02  0.00000000000E+00 0. -1.
         25    2    1    2    0    0 -0.23491033193E+02 -0.25432066506E+02  0.22947632319E+02  0.13180696677E+03  0.12509142262E+03 0.  0.
          5    1    3    3  502    0 -0.36031237531E+02  0.28940365552E+02 -0.29604194981E+02  0.55042489013E+02  0.41800000000E+01 0. -1.
         -5    1    3    3    0  502  0.12540204338E+02 -0.54372432058E+02  0.52551827300E+02  0.76764477757E+02  0.41800000000E+01 0. -1.
        -11    1    1    2    0    0 -0.74102516720E+01 -0.93980517762E+01  0.70447252346E+02  0.71456634193E+02  0.00000000000E+00 0.  1.
         11    1    1    2    0    0  0.30901284865E+02  0.34830118282E+02 -0.49669519071E+01  0.46826244320E+02  0.00000000000E+00 0. -1.
</event>
<event>
 7    1  0.2490079E-009  0.1019298E+03  0.7561462E-02  0.1276289E+00
         -2   -1    0    0    0  501 -0.00000000000E+00  0.00000000000E+00  0.87342133941E+02  0.87342133941E+02  0.00000000000E+00 0.  1.
          2   -1    0    0  501    0  0.00000000000E+00 -0.00000000000E+00 -0.23894758286E+03  0.23894758286E+03  0.00000000000E+00 0. -1.
         25    2    1    2    0    0  0.41391118803E+02 -0.18368095559E+02  0.11931250810E+02  0.13356903868E+03  0.12509085378E+03 0.  0.
          5    1    3    3  502    0 -0.41717283682E+02  0.40835171113E+01 -0.12579069270E+02  0.43962623369E+02  0.41800000000E+01 0.  1.
         -5    1    3    3    0  502  0.83108402485E+02 -0.22451612670E+02  0.24510320080E+02  0.89606415315E+02  0.41800000000E+01 0.  1.
        -11    1    1    2    0    0 -0.24257371091E+02  0.40710861733E+02 -0.15675168436E+03  0.16375861768E+03  0.00000000000E+00 0. -1.
         11    1    1    2    0    0 -0.17133747712E+02 -0.22342766174E+02 -0.67850153669E+01  0.28962060432E+02  0.00000000000E+00 0.  1.
</event>
<event>
 7    1  0.2490079E-009  0.1094959E+03  0.7561462E-02  0.1261506E+00
         -1   -1    0    0    0  501 -0.00000000000E+00  0.00000000000E+00  0.13479979602E+02  0.13479979602E+02  0.00000000000E+00 0.  1.
          1   -1    0    0  501    0  0.00000000000E+00 -0.00000000000E+00 -0.96609563352E+03  0.96609563352E+03  0.00000000000E+00 0. -1.
         25    2    1    2    0    0  0.25357990513E+02  0.46995117263E+01 -0.61938369620E+03  0.63241508078E+03  0.12509020020E+03 0.  0.
          5    1    3    3  502    0 -0.12530632325E+02 -0.54583479362E+02 -0.31606427916E+03  0.32101475656E+03  0.41800000000E+01 0.  1.
         -5    1    3    3    0  502  0.37888622838E+02  0.59282991088E+02 -0.30331941704E+03  0.31140032422E+03  0.41800000000E+01 0.  1.
        -11    1    1    2    0    0 -0.35626104422E+02 -0.41181313767E+02 -0.24759304778E+03  0.25351023102E+03  0.00000000000E+00 0.  1.
         11    1    1    2    0    0  0.10268113909E+02  0.36481802041E+02 -0.85638909935E+02  0.93650301325E+02  0.00000000000E+00 0. -1.
</event>
<event>
 7    1  0.2490079E-009  0.8820784E+02  0.7561462E-02  0.1307251E+00
         -3   -1    0    0    0  501 -0.00000000000E+00  0.00000000000E+00  0.14241466749E+03  0.14241466749E+03  0.00000000000E+00 0.  1.
          3   -1    0    0  501    0  0.00000000000E+00 -0.00000000000E+00 -0.86657496901E+02  0.86657496901E+02  0.00000000000E+00 0. -1.
         25    2    1    2    0    0 -0.61167867439E+01 -0.23273351180E+02  0.41770091968E+02  0.13405323565E+03  0.12508583233E+03 0.  0.
          5    1    3    3  502    0  0.30176944136E+02  0.31949693383E+02 -0.15214489212E+02  0.46694581556E+02  0.41800000000E+01 0.  1.
         -5    1    3    3    0  502 -0.36293730880E+02 -0.55223044563E+02  0.56984581181E+02  0.87358654090E+02  0.41800000000E+01 0.  1.
        -11    1    1    2    0    0  0.15331529452E+02  0.42257598889E+02  0.40930469094E+02  0.60795260995E+02  0.00000000000E+00 0.  1.
         11    1    1    2    0    0 -0.92147427082E+01 -0.18984247709E+02 -0.26943390472E+02  0.34223667751E+02  0.00000000000E+00 0. -1.
</event>
<event>
 7    1  0.2490079E-009  0.8330705E+02  0.7561462E-02  0.1319920E+00
         -2   -1    0    0    0  501 -0.00000000000E+00  0.00000000000E+00  0.26530875785E+02  0.26530875785E+02  0.00000000000E+00 0. -1.
          2   -1    0    0  501    0  0.00000000000E+00 -0.00000000000E+00 -0.52099662642E+03  0.52099662642E+03  0.00000000000E+00 0.  1.
         25    2    1    2    0    0  0.30614346115E+02  0.25866627073E+02 -0.33425205226E+03  0.35913802312E+03  0.12509742052E+03 0.  0.
          5    1    3    3  502    0  0.59398754521E+02  0.31474347306E+02 -0.86538386807E+02  0.10965952475E+03  0.41800000000E+01 0. -1.
         -5    1    3    3    0  502 -0.28784408406E+02 -0.56077202330E+01 -0.24771366546E+03  0.24947849837E+03  0.41800000000E+01 0. -1.
        -11    1    1    2    0    0  0.60267918440E+01 -0.31935835203E+02 -0.14441806579E+03  0.14802971835E+03  0.00000000000E+00 0.  1.
         11    1    1    2    0    0 -0.36641137959E+02  0.60692081305E+01 -0.15795632590E+02  0.40359760742E+02  0.00000000000E+00 0. -1.
</event>
<event>
 7    1  0.2490079E-009  0.1911733E+03  0.7561462E-02  0.1157407E+00
         -1   -1    0    0    0  501 -0.00000000000E+00  0.00000000000E+00  0.10086981480E+03  0.10086981480E+03  0.00000000000E+00 0.  1.
          1   -1    0    0  501    0  0.00000000000E+00 -0.00000000000E+00 -0.38770145917E+03  0.38770145917E+03  0.00000000000E+00 0. -1.
         25    2    1    2    0    0 -0.67931750012E+02 -0.14791262475E+03 -0.11242213662E+03  0.23405311593E+03  0.12509699059E+03 0.  0.
          5    1    3    3  502    0  0.15537146692E+02 -0.10168585028E+03 -0.28269454024E+02  0.10676164810E+03  0.41800000000E+01 0. -1.
         -5    1    3    3    0  502 -0.83468896703E+02 -0.46226774473E+02 -0.84152682595E+02  0.12729146783E+03  0.41800000000E+01 0. -1.
        -11    1    1    2    0    0  0.54707072506E+02  0.15803456471E+03 -0.14812982035E+03  0.22340597821E+03  0.00000000000E+00 0.  1.
         11    1    1    2    0    0  0.13224677506E+02 -0.10121939963E+02 -0.26279687404E+02  0.31112179830E+02  0.00000000000E+00 0. -1.
</event>
<event>
 7    1  0.2490079E-009  0.1078524E+03  0.7561462E-02  0.1264599E+00
          2   -1    0    0  501    0  0.00000000000E+00  0.00000000000E+00  0.26474149118E+03  0.26474149118E+03  0.00000000000E+00 0. -1.
         -2   -1    0    0    0  501 -0.00000000000E+00 -0.00000000000E+00 -0.54550237557E+02  0.54550237557E+02  0.00000000000E+00 0.  1.
         25    2    1    2    0    0  0.19365977801E+02 -0.49137567328E+02  0.12580926827E+03  0.18510871842E+03  0.12509086312E+03 0.  0.
          5    1    3    3  502    0  0.59592490203E+02 -0.17383068204E+01  0.10236794619E+03  0.11853672598E+03  0.41800000000E+01 0. -1.
         -5    1    3    3    0  502 -0.40226512401E+02 -0.47399260507E+02  0.23441322072E+02  0.66571992438E+02  0.41800000000E+01 0. -1.
        -11    1    1    2    0    0  0.16132243339E+02  0.55298263152E+02  0.21067169492E+02  0.61334923276E+02  0.00000000000E+00 0. -1.
         11    1    1    2    0    0 -0.35498221140E+02 -0.61606958248E+01  0.63314815860E+02  0.72848087035E+02  0.00000000000E+00 0.  1.
</event>
<event>
 7    1  0.2490079E-009  0.8824129E+02  0.7561462E-02  0.1307167E+00
          1   -1    0    0  501    0  0.00000000000E+00  0.00000000000E+00  0.13042061765E+04  0.13042061765E+04  0.00000000000E+00 0. -1.
         -1   -1    0    0    0  501 -0.00000000000E+00 -0.00000000000E+00 -0.11409850823E+02  0.11409850823E+02  0.00000000000E+00 0.  1.
         25    2    1    2    0    0 -0.15862257821E+01 -0.42361643923E+01  0.10316453802E+04  0.10392113242E+04  0.12509006596E+03 0.  0.
          5    1    3    3  502    0 -0.27537308304E+02  0.35878293789E+02  0.16206778456E+03  0.16831219357E+03  0.41800000000E+01 0. -1.
         -5    1    3    3    0  502  0.25951082522E+02 -0.40114458181E+02  0.86957759564E+03  0.87089913060E+03  0.41800000000E+01 0. -1.
        -11    1    1    2    0    0 -0.26265987057E+00  0.43647337226E+02  0.81289220215E+02  0.92266442222E+02  0.00000000000E+00 0.  1.
         11    1    1    2    0    0  0.18488856526E+01 -0.39411172834E+02  0.17986172521E+03  0.18413826088E+03  0.00000000000E+00 0. -1.
</event>
<event>
 7    1  0.2490079E-009  0.1792158E+03  0.7561462E-02  0.1168564E+00
          1   -1    0    0  501    0  0.00000000000E+00  0.00000000000E+00  0.45821361206E+03  0.45821361206E+03  0.00000000000E+00 0.  1.
         -1   -1    0    0    0  501 -0.00000000000E+00 -0.00000000000E+00 -0.85064282905E+02  0.85064282905E+02  0.00000000000E+00 0. -1.
         25    2    1    2    0    0 -0.10085107365E+03  0.12105754630E+03  0.12905879336E+03  0.23901732540E+03  0.12508893286E+03 0.  0.
          5    1    3    3  502    0 -0.23163386984E+02 -0.25547973836E+02  0.16336312147E+02  0.38387354145E+02  0.41800000000E+01 0. -1.
         -5    1    3    3    0  502 -0.77687686663E+02  0.14660552013E+03  0.11272248122E+03  0.20062997125E+03  0.41800000000E+01 0. -1.
        -11    1    1    2    0    0  0.62800746002E+02 -0.80706084235E+02  0.22225965979E+03  0.24465641643E+03  0.00000000000E+00 0.  1.
         11    1    1    2    0    0  0.38050327644E+02 -0.40351462062E+02  0.21830876003E+02  0.59604153139E+02  0.00000000000E+00 0. -1.
</event>
<event>
 7    1  0.2490079E-009  0.8420685E+02  0.7561462E-02  0.1317520E+00
         -2   -1    0    0    0  501 -0.00000000000E+00  0.00000000000E+00  0.51395084429E+03  0.51395084429E+03  0.00000000000E+00 0.  1.
          2   -1    0    0  501    0  0.00000000000E+00 -0.00000000000E+00 -0.24789185439E+02  0.24789185439E+02  0.00000000000E+00 0. -1.
         25    2    1    2    0    0 -0.15831984277E+02  0.22155459272E+02  0.25555493616E+03  0.28582414579E+03  0.12508237613E+03 0.  0.
          5    1    3    3  502    0 -0.39523343699E+02  0.44578056331E+02  0.24362845032E+03  0.25084176688E+03  0.41800000000E+01 0.  1.
         -5    1    3    3    0  502  0.23691359422E+02 -0.22422597059E+02  0.11926485841E+02  0.34982378917E+02  0.41800000000E+01 0.  1.
        -11    1    1    2    0    0 -0.11201045191E+02 -0.41226885552E+02  0.47475503508E+02  0.63867385566E+02  0.00000000000E+00 0. -1.
         11    1    1    2    0    0  0.27033029468E+02  0.19071426280E+02  0.18613121918E+03  0.18904849837E+03  0.00000000000E+00 0.  1.
</event>
<event>
 7    1  0.2490079E-009  0.1161505E+03  0.7561462E-02  0.1249586E+00
         -2   -1    0    0    0  501 -0.00000000000E+00  0.00000000000E+00  0.21905064001E+02  0.21905064001E+02  0.00000000000E+00 0.  1.
          2   -1    0    0  501    0  0.00000000000E+00 -0.00000000000E+00 -0.78066687171E+03  0.78066687171E+03  0.00000000000E+00 0. -1.
         25    2    1    2    0    0  0.19267129640E+02 -0.76232939476E+02 -0.54920114357E+03  0.56872776855E+03  0.12508675099E+03 0.  0.
          5    1    3    3  502    0  0.26704186208E+02 -0.10588130990E+03 -0.48923649903E+03  0.50129212016E+03  0.41800000000E+01 0. -1.
         -5    1    3    3    0  502 -0.74370565689E+01  0.29648370426E+02 -0.59964644537E+02  0.67435648390E+02  0.41800000000E+01 0. -1.
        -11    1    1    2    0    0 -0.14506033656E+02 -0.12351854808E+01 -0.55710829003E+01  0.15588061466E+02  0.00000000000E+00 0.  1.
         11    1    1    2    0    0 -0.47610959836E+01  0.77468124956E+02 -0.20398958125E+03  0.21825610570E+03  0.00000000000E+00 0. -1.
</event>
<event>
 7    1  0.2490079E-009  0.4689056E+02  0.7561462E-02  0.1462873E+00
         -2   -1    0    0    0  501 -0.00000000000E+00  0.00000000000E+00  0.98958321712E+02  0.98958321712E+02  0.00000000000E+00 0.  1.
          2   -1    0    0  501    0  0.00000000000E+00 -0.00000000000E+00 -0.24327284044E+03  0.24327284044E+03  0.00000000000E+00 0. -1.
         25    2    1    2    0    0  0.17721476793E+01 -0.15425448921E+02 -0.19826125355E+03  0.23493806998E+03  0.12508911657E+03 0.  0.
          5    1    3    3  502    0 -0.16046135509E+02  0.96189572685E+01  0.11858491653E+02  0.22541052061E+02  0.41800000000E+01 0. -1.
         -5    1    3    3    0  502  0.17818283189E+02 -0.25044406189E+02 -0.21011974520E+03  0.21239701792E+03  0.41800000000E+01 0. -1.
        -11    1    1    2    0    0  0.13385457187E+02  0.23027493360E+02  0.75389108567E+02  0.79955947903E+02  0.00000000000E+00 0.  1.
         11    1    1    2    0    0 -0.15157604866E+02 -0.76020444394E+01 -0.21442373748E+02  0.27337144271E+02  0.00000000000E+00 0. -1.
</event>
<event>
 7    1  0.2490079E-009  0.1362234E+03  0.7561462E-02  0.1218503E+00
          2   -1    0    0  501    0  0.00000000000E+00  0.00000000000E+00  0.99423912451E+03  0.99423912451E+03  0.00000000000E+00 0.  1.
         -2   -1    0    0    0  501 -0.00000000000E+00 -0.00000000000E+00 -0.23755900625E+02  0.23755900625E+02  0.00000000000E+00 0. -1.
         25    2    1    2    0    0 -0.89864081037E+02  0.82586863572E+01  0.72440082084E+03  0.74064003125E+03  0.12508935883E+03 0.  0.
          5    1    3    3  502    0  0.25074557652E+02 -0.20697668285E+02  0.10543576568E+03  0.11041422009E+03  0.41800000000E+01 0. -1.
         -5    1    3    3    0  502 -0.11493863869E+03  0.28956354642E+02  0.61896505516E+03  0.63022581116E+03  0.41800000000E+01 0. -1.
        -11    1    1    2    0    0  0.31206755787E+02  0.35954079066E+02  0.55583555441E+02  0.73185306201E+02  0.00000000000E+00 0. -1.
         11    1    1    2    0    0  0.58657325250E+02 -0.44212765423E+02  0.19049884760E+03  0.20416968768E+03  0.00000000000E+00 0.  1.
</event>
<event>
 7    1  0.2490079E-009  0.1191823E+03  0.7561462E-02  0.1244452E+00
         -1   -1    0    0    0  501 -0.00000000000E+00  0.00000000000E+00  0.10903478825E+02  0.10903478825E+02  0.00000000000E+00 0.  1.
          1   -1    0    0  501    0  0.00000000000E+00 -0.00000000000E+00 -0.16773955620E+04  0.16773955620E+04  0.00000000000E+00 0. -1.
         25    2    1    2    0    0  0.16566343432E+01  0.57017383698E+02 -0.12810395962E+04  0.12883957827E+04  0.12509004584E+03 0.  0.
          5    1    3    3  502    0 -0.36010028342E+02  0.79776410302E+02 -0.66110220944E+03  0.66688424896E+03  0.41800000000E+01 0. -1.
         -5    1    3    3    0  502  0.37666662686E+02 -0.22759026604E+02 -0.61993738671E+03  0.62151153378E+03  0.41800000000E+01 0. -1.
        -11    1    1    2    0    0  0.42069312641E+02 -0.44075627657E+02 -0.21984112817E+03  0.22812849374E+03  0.00000000000E+00 0.  1.
         11    1    1    2    0    0 -0.43725946984E+02 -0.12941756041E+02 -0.16561135889E+03  0.17177476439E+03  0.00000000000E+00 0. -1.
</event>
<event>
 7    1  0.3090341E-009  0.1490635E+03  0.7561462E-02  0.1201628E+00
         -2   -1    0    0    0  501 -0.00000000000E+00  0.00000000000E+00  0.61690616373E+02  0.61690616373E+02  0.00000000000E+00 0.  1.
          2   -1    0    0  501    0  0.00000000000E+00 -0.00000000000E+00 -0.53681287868E+03  0.53681287868E+03  0.00000000000E+00 0. -1.
         25    2    1    2    0    0  0.66245441441E+02  0.11816862680E+03 -0.16268238721E+03  0.24589872202E+03  0.12509332320E+03 0.  0.
          5    1    3    3  502    0  0.57403623124E+02  0.62670925406E+02 -0.13149835881E+02  0.86100008262E+02  0.41800000000E+01 0. -1.
         -5    1    3    3    0  502  0.88418183169E+01  0.55497701393E+02 -0.14953255133E+03  0.15979871375E+03  0.41800000000E+01 0. -1.
        -11    1    1    2    0    0 -0.84562847637E+02 -0.96342830584E+02 -0.28731789474E+03  0.31461784571E+03  0.00000000000E+00 0. -1.
         11    1    1    2    0    0  0.18317406196E+02 -0.21825796215E+02 -0.25121980364E+02  0.37986927325E+02  0.00000000000E+00 0.  1.
</event>
<event>
 7    1  0.2490079E-009  0.8736946E+02  0.7561462E-02  0.1309350E+00
          2   -1    0    0  501    0  0.00000000000E+00  0.00000000000E+00  0.76991636764E+02  0.76991636764E+02  0.00000000000E+00 0. -1.
         -2   -1    0    0    0  501 -0.00000000000E+00 -0.00000000000E+00 -0.20161319720E+03  0.20161319720E+03  0.00000000000E+00 0.  1.
         25    2    1    2    0    0 -0.14793149684E+02  0.12108120470E+02 -0.13481882191E+03  0.18490179081E+03  0.12508842331E+03 0.  0.
          5    1    3    3  502    0  0.16914854162E+02 -0.46060397917E+02 -0.96282878742E+02  0.10814590925E+03  0.41800000000E+01 0.  1.
         -5    1    3    3    0  502 -0.31708003846E+02  0.58168518387E+02 -0.38535943167E+02  0.76755881566E+02  0.41800000000E+01 0.  1.
        -11    1    1    2    0    0 -0.10987662912E+02  0.16991658333E+02  0.39926655872E+02  0.44761401210E+02  0.00000000000E+00 0. -1.
         11    1    1    2    0    0  0.25780812596E+02 -0.29099778803E+02 -0.29729394394E+02  0.48941641937E+02  0.00000000000E+00 0.  1.
</event>
<event>
 7    1  0.2490079E-009  0.1046573E+03  0.7561462E-02  0.1270796E+00
          2   -1    0    0  501    0  0.00000000000E+00  0.00000000000E+00  0.84394484354E+02  0.84394484354E+02  0.00000000000E+00 0.  1.
         -2   -1    0    0    0  501 -0.00000000000E+00 -0.00000000000E+00 -0.19994742044E+03  0.19994742044E+03  0.00000000000E+00 0. -1.
         25    2    1    2    0    0 -0.49168832027E+02 -0.41504875421E+02 -0.10002584608E+03  0.17260662743E+03  0.12509056408E+03 0.  0.
          5    1    3    3  502    0  0.35716035755E+00  0.37749986011E+02 -0.34317185661E+01  0.38137096110E+02  0.41800000000E+01 0. -1.
         -5    1    3    3    0  502 -0.49525992384E+02 -0.79254861432E+02 -0.96594127514E+02  0.13446953132E+03  0.41800000000E+01 0. -1.
        -11    1    1    2    0    0  0.39494257441E+02  0.50813221234E+02 -0.45551350123E+02  0.78846086276E+02  0.00000000000E+00 0. -1.
         11    1    1    2    0    0  0.96745745859E+01 -0.93083458130E+01  0.30024260116E+02  0.32889191092E+02  0.00000000000E+00 0.  1.
</event>
<event>
 7    1  0.2490079E-009  0.1771451E+03  0.7561462E-02  0.1170595E+00
         -1   -1    0    0    0  501 -0.00000000000E+00  0.00000000000E+00  0.42111241063E+02  0.42111241063E+02  0.00000000000E+00 0.  1.
          1   -1    0    0  501    0  0.00000000000E+00 -0.00000000000E+00 -0.97812199379E+03  0.97812199379E+03  0.00000000000E+00 0. -1.
         25    2    1    2    0    0  0.46793500992E+01  0.15615952565E+03 -0.31336190842E+03  0.37181991377E+03  0.12508664542E+03 0.  0.
          5    1    3    3  502    0 -0.14594760063E+02  0.17194422953E+03 -0.28959498228E+03  0.33713580535E+03  0.41800000000E+01 0. -1.
         -5    1    3    3    0  502  0.19274110162E+02 -0.15784703877E+02 -0.23766926138E+02  0.34684108422E+02  0.41800000000E+01 0. -1.
        -11    1    1    2    0    0 -0.49671530729E+01 -0.48053022874E+02 -0.68521167847E+02  0.83838631072E+02  0.00000000000E+00 0.  1.
         11    1    1    2    0    0  0.28780297378E+00 -0.10810650278E+03 -0.55412767647E+03  0.56457469001E+03  0.00000000000E+00 0. -1.
</event>
<event>
 7    1  0.2490079E-009  0.1239187E+03  0.7561462E-02  0.1236769E+00
          1   -1    0    0  501    0  0.00000000000E+00  0.00000000000E+00  0.90797621983E+03  0.90797621983E+03  0.00000000000E+00 0.  1.
         -1   -1    0    0    0  501 -0.00000000000E+00 -0.00000000000E+00 -0.30152124191E+02  0.30152124191E+02  0.00000000000E+00 0. -1.
         25    2    1    2    0    0 -0.77070480804E+02 -0.95156700594E+02  0.52683694786E+03  0.55515746448E+03  0.12509190246E+03 0.  0.
          5    1    3    3  502    0 -0.12504460484E+02 -0.13695073394E+02  0.34608331873E+03  0.34660503815E+03  0.41800000000E+01 0. -1.
         -5    1    3    3    0  502 -0.64566020320E+02 -0.81461627200E+02  0.18075362912E+03  0.20855242633E+03  0.41800000000E+01 0. -1.
        -11    1    1    2    0    0  0.66267504438E+02  0.92295760966E+02  0.35367400006E+03  0.37147703557E+03  0.00000000000E+00 0.  1.
         11    1    1    2    0    0  0.10802976366E+02  0.28609396281E+01 -0.26868522827E+01  0.11493843966E+02  0.00000000000E+00 0. -1.
</event>
<event>
 7    1  0.2490079E-009  0.1391993E+03  0.7561462E-02  0.1214410E+00
         -1   -1    0    0    0  501 -0.00000000000E+00  0.00000000000E+00  0.12959225263E+03  0.12959225263E+03  0.00000000000E+00 0.  1.
          1   -1    0    0  501    0  0.00000000000E+00 -0.00000000000E+00 -0.20310092853E+03  0.20310092853E+03  0.00000000000E+00 0. -1.
         25    2    1    2    0    0 -0.12983004834E+03 -0.36201134954E+02 -0.50521121247E+02  0.19069936129E+03  0.12508996395E+03 0.  0.
          5    1    3    3  502    0 -0.12346693923E+03 -0.26495564161E+02 -0.86198206759E+02  0.15295000245E+03  0.41800000000E+01 0. -1.
         -5    1    3    3    0  502 -0.63631091158E+01 -0.97055707930E+01  0.35677085513E+02  0.37749358839E+02  0.41800000000E+01 0. -1.
        -11    1    1    2    0    0  0.50794624371E+02 -0.41729942242E+01 -0.32130661545E+01  0.51066931961E+02  0.00000000000E+00 0.  1.
         11    1    1    2    0    0  0.79035423972E+02  0.40374129179E+02 -0.19774488503E+02  0.90926887909E+02  0.00000000000E+00 0. -1.
</event>
<event>
 7    1  0.2490079E-009  0.1585536E+03  0.7561462E-02  0.1190340E+00
         -2   -1    0    0    0  501 -0.00000000000E+00  0.00000000000E+00  0.99025749680E+02  0.99025749680E+02  0.00000000000E+00 0.  1.
          2   -1    0    0  501    0  0.00000000000E+00 -0.00000000000E+00 -0.32220013723E+03  0.32220013723E+03  0.00000000000E+00 0. -1.
         25    2    1    2    0    0 -0.41724000720E+02 -0.11379768595E+03 -0.20396540064E+03  0.26821318040E+03  0.12508245248E+03 0.  0.
          5    1    3    3  502    0 -0.72864119137E+02 -0.35323100587E+02 -0.58545415107E+02  0.10000969614E+03  0.41800000000E+01 0.  1.
         -5    1    3    3    0  502  0.31140118417E+02 -0.78474585363E+02 -0.14541998554E+03  0.16820348426E+03  0.41800000000E+01 0.  1.
        -11    1    1    2    0    0 -0.28264894846E+02  0.46391069826E+02 -0.22238005846E+01  0.54368933494E+02  0.00000000000E+00 0.  1.
         11    1    1    2    0    0  0.69988895566E+02  0.67406616124E+02 -0.16985186319E+02  0.98643773013E+02  0.00000000000E+00 0. -1.
</event>
<event>
 7    1  0.2490079E-009  0.1178468E+03  0.7561462E-02  0.1246692E+00
         -2   -1    0    0    0  501 -0.00000000000E+00  0.00000000000E+00  0.27631366430E+02  0.27631366430E+02  0.00000000000E+00 0.  1.
          2   -1    0    0  501    0  0.00000000000E+00 -0.00000000000E+00 -0.58655517070E+03  0.58655517070E+03  0.00000000000E+00 0. -1.
         25    2    1    2    0    0  0.31243038062E+02 -0.49911444260E+02 -0.35562277923E+03  0.38155244377E+03  0.12508967401E+03 0.  0.
          5    1    3    3  502    0 -0.20883167485E+01  0.36085411336E+02 -0.47138005228E+02  0.59548147872E+02  0.41800000000E+01 0.  1.
         -5    1    3    3    0  502  0.33331354811E+02 -0.85996855596E+02 -0.30848477400E+03  0.32200429590E+03  0.41800000000E+01 0.  1.
        -11    1    1    2    0    0 -0.61631262999E+02  0.21200899211E+02 -0.15839601105E+03  0.17128101769E+03  0.00000000000E+00 0.  1.
         11    1    1    2    0    0  0.30388224937E+02  0.28710545050E+02 -0.44905013984E+02  0.61353075659E+02  0.00000000000E+00 0. -1.
</event>
<event>
 7    1  0.2490079E-009  0.8934339E+02  0.7561462E-02  0.1304450E+00
         -1   -1    0    0    0  501 -0.00000000000E+00  0.00000000000E+00  0.81246401604E+02  0.81246401604E+02  0.00000000000E+00 0.  1.
          1   -1    0    0  501    0  0.00000000000E+00 -0.00000000000E+00 -0.11616958389E+03  0.11616958389E+03  0.00000000000E+00 0. -1.
         25    2    1    2    0    0  0.77892080268E+01 -0.44846927868E+02 -0.44613416940E+02  0.14039150962E+03  0.12508996883E+03 0.  0.
          5    1    3    3  502    0  0.59096869924E+02 -0.41541560633E+02 -0.25481171199E+00  0.72357989356E+02  0.41800000000E+01 0. -1.
         -5    1    3    3    0  502 -0.51307661897E+02 -0.33053672358E+01 -0.44358605228E+02  0.68033520265E+02  0.41800000000E+01 0. -1.
        -11    1    1    2    0    0 -0.17538560816E+02  0.14141687095E+02 -0.23063219154E+01  0.22647462334E+02  0.00000000000E+00 0.  1.
         11    1    1    2    0    0  0.97493527889E+01  0.30705240774E+02  0.11996556565E+02  0.34377013544E+02  0.00000000000E+00 0. -1.
</event>
<event>
 7    1  0.2490079E-009  0.8851308E+02  0.7561462E-02  0.1306493E+00
         -2   -1    0    0    0  501 -0.00000000000E+00  0.00000000000E+00  0.43693119130E+02  0.43693119130E+02  0.00000000000E+00 0.  1.
          2   -1    0    0  501    0  0.00000000000E+00 -0.00000000000E+00 -0.36005592145E+03  0.36005592145E+03  0.00000000000E+00 0. -1.
         25    2    1    2    0    0  0.13936883267E+02  0.15152941808E+02 -0.27773365213E+03  0.30529988283E+03  0.12509271988E+03 0.  0.
          5    1    3    3  502    0 -0.24272732888E+02 -0.22124719335E+02 -0.23353281815E+03  0.23586801038E+03  0.41800000000E+01 0. -1.
         -5    1    3    3    0  502  0.38209616154E+02  0.37277661142E+02 -0.44200833985E+02  0.69431872449E+02  0.41800000000E+01 0. -1.
        -11    1    1    2    0    0 -0.50398201520E+02  0.12000972418E+01 -0.18450307351E+02  0.53682704768E+02  0.00000000000E+00 0.  1.
         11    1    1    2    0    0  0.36461318254E+02 -0.16353039050E+02 -0.20178842842E+02  0.44766452991E+02  0.00000000000E+00 0. -1.
</event>
<event>
 7    1  0.2490079E-009  0.2205519E+03  0.7561462E-02  0.1133472E+00
          2   -1    0    0  501    0  0.00000000000E+00  0.00000000000E+00  0.43697325560E+03  0.43697325560E+03  0.00000000000E+00 0.  1.
         -2   -1    0    0    0  501 -0.00000000000E+00 -0.00000000000E+00 -0.12952558436E+03  0.12952558436E+03  0.00000000000E+00 0. -1.
         25    2    1    2    0    0  0.10332411515E+03 -0.16824411520E+03  0.72585810560E+02  0.24474151970E+03  0.12509099287E+03 0.  0.
          5    1    3    3  502    0  0.12419358600E+03 -0.93419712530E+02  0.40979973685E+02  0.16077350571E+03  0.41800000000E+01 0. -1.
         -5    1    3    3    0  502 -0.20869470851E+02 -0.74824402674E+02  0.31605836875E+02  0.83968013991E+02  0.41800000000E+01 0. -1.
        -11    1    1    2    0    0 -0.41933498601E+02  0.18166179152E+02  0.14061183411E+02  0.47813651281E+02  0.00000000000E+00 0. -1.
         11    1    1    2    0    0 -0.61390616551E+02  0.15007793605E+03  0.22080067727E+03  0.27394366898E+03  0.00000000000E+00 0.  1.
</event>
<event>
 7    1  0.2490079E-009  0.1541212E+03  0.7561462E-02  0.1195498E+00
          2   -1    0    0  501    0  0.00000000000E+00  0.00000000000E+00  0.13154953962E+03  0.13154953962E+03  0.00000000000E+00 0. -1.
         -2   -1    0    0    0  501 -0.00000000000E+00 -0.00000000000E+00 -0.30567673490E+03  0.30567673490E+03  0.00000000000E+00 0.  1.
         25    2    1    2    0    0  0.55324244398E+02  0.12627266037E+03  0.13449531622E+02  0.18663660782E+03  0.12508707648E+03 0.  0.
          5    1    3    3  502    0  0.49470573260E+02  0.37203458074E+02  0.59629657379E+02  0.86050004942E+02  0.41800000000E+01 0.  1.
         -5    1    3    3    0  502  0.58536711383E+01  0.89069202292E+02 -0.46180125757E+02  0.10058660287E+03  0.41800000000E+01 0.  1.
        -11    1    1    2    0    0  0.99287547666E+01  0.43417179726E+01 -0.45833474549E+02  0.47097113238E+02  0.00000000000E+00 0.  1.
         11    1    1    2    0    0 -0.65252999165E+02 -0.13061437834E+03 -0.14174325235E+03  0.20349255347E+03  0.00000000000E+00 0. -1.
</event>
<event>
 7    1  0.2490079E-009  0.9586394E+02  0.7561462E-02  0.1289242E+00
          4   -1    0    0  501    0  0.00000000000E+00  0.00000000000E+00  0.97387378241E+02  0.97387378241E+02  0.00000000000E+00 0. -1.
         -4   -1    0    0    0  501 -0.00000000000E+00 -0.00000000000E+00 -0.13606319381E+03  0.13606319381E+03  0.00000000000E+00 0.  1.
         25    2    1    2    0    0 -0.26996760908E+02 -0.30727224255E+02 -0.13606745485E+02  0.13230741877E+03  0.12508845722E+03 0.  0.
          5    1    3    3  502    0  0.50299374632E+02 -0.10580714767E+02 -0.70834133352E+01  0.52054065719E+02  0.41800000000E+01 0.  1.
         -5    1    3    3    0  502 -0.77296135540E+02 -0.20146509488E+02 -0.65233321501E+01  0.80253353053E+02  0.41800000000E+01 0.  1.
        -11    1    1    2    0    0  0.65427483047E+01  0.37926126165E+02 -0.53177180844E+02  0.65643058763E+02  0.00000000000E+00 0.  1.
         11    1    1    2    0    0  0.20454012603E+02 -0.71989019103E+01  0.28108110759E+02  0.35500094517E+02  0.00000000000E+00 0. -1.
</event>
<event>
 7    1  0.2490079E-009  0.8018614E+02  0.7561462E-02  0.1328524E+00
          1   -1    0    0  501    0  0.00000000000E+00  0.00000000000E+00  0.98026542192E+03  0.98026542192E+03  0.00000000000E+00 0. -1.
         -1   -1    0    0    0  501 -0.00000000000E+00 -0.00000000000E+00 -0.18513944088E+02  0.18513944088E+02  0.00000000000E+00 0.  1.
         25    2    1    2    0    0 -0.99675986115E+01 -0.40977239518E+02  0.77432072344E+03  0.78549253566E+03  0.12508978238E+03 0.  0.
          5    1    3    3  502    0  0.20079026052E+02 -0.16551274254E+02  0.29122702150E+02  0.39277425414E+02  0.41800000000E+01 0. -1.
         -5    1    3    3    0  502 -0.30046624664E+02 -0.24425965264E+02  0.74519802129E+03  0.74621511025E+03  0.41800000000E+01 0. -1.
        -11    1    1    2    0    0 -0.91308952868E+01 -0.24878267296E+02  0.22843732137E+02  0.34987676835E+02  0.00000000000E+00 0.  1.
         11    1    1    2    0    0  0.19098493898E+02  0.65855506814E+02  0.16458702226E+03  0.17829915351E+03  0.00000000000E+00 0. -1.
</event>
<event>
 7    1  0.2490079E-009  0.9625262E+02  0.7561462E-02  0.1288380E+00
         -2   -1    0    0    0  501 -0.00000000000E+00  0.00000000000E+00  0.47062563503E+03  0.47062563503E+03  0.00000000000E+00 0. -1.
          2   -1    0    0  501    0  0.00000000000E+00 -0.00000000000E+00 -0.29721323924E+02  0.29721323924E+02  0.00000000000E+00 0.  1.
         25    2    1    2    0    0 -0.29953309476E+02 -0.46590936259E+02  0.25008105051E+03  0.28505453657E+03  0.12509053082E+03 0.  0.
          5    1    3    3  502    0 -0.21525205763E+02  0.19631252307E+02  0.19828462149E+03  0.20045693820E+03  0.41800000000E+01 0.  1.
         -5    1    3    3    0  502 -0.84281037132E+01 -0.66222188566E+02  0.51796429022E+02  0.84597598371E+02  0.41800000000E+01 0.  1.
        -11    1    1    2    0    0 -0.18305142455E+02 -0.10760200476E+02  0.69613828496E+02  0.72780115914E+02  0.00000000000E+00 0.  1.
         11    1    1    2    0    0  0.48258451932E+02  0.57351136734E+02  0.12120943209E+03  0.14251230647E+03  0.00000000000E+00 0. -1.
</event>
<event>
 7    1  0.2490079E-009  0.8660706E+02  0.7561462E-02  0.1311283E+00
          1   -1    0    0  501    0  0.00000000000E+00  0.00000000000E+00  0.11346840603E+03  0.11346840603E+03  0.00000000000E+00 0. -1.
         -1   -1    0    0    0  501 -0.00000000000E+00 -0.00000000000E+00 -0.10675389891E+03  0.10675389891E+03  0.00000000000E+00 0.  1.
         25    2    1    2    0    0 -0.52045072159E+01 -0.88325300433E+01 -0.18107016879E+02  0.12680121423E+03  0.12508230646E+03 0.  0.
          5    1    3    3  502    0  0.18674909422E+02 -0.50466926958E+02 -0.46186586623E+02  0.71037568528E+02  0.41800000000E+01 0. -1.
         -5    1    3    3    0  502 -0.23879416638E+02  0.41634396915E+02  0.28079569744E+02  0.55763645706E+02  0.41800000000E+01 0. -1.
        -11    1    1    2    0    0 -0.32430398027E+02  0.11194940315E+00 -0.16892236998E+02  0.36566253837E+02  0.00000000000E+00 0.  1.
         11    1    1    2    0    0  0.37634905243E+02  0.87205806401E+01  0.41713760993E+02  0.56854836870E+02  0.00000000000E+00 0. -1.
</event>
<event>
 7    1  0.2590092E-009  0.2186035E+03  0.7561462E-02  0.1134929E+00
          2   -1    0    0  501    0  0.00000000000E+00  0.00000000000E+00  0.62887980816E+03  0.62887980816E+03  0.00000000000E+00 0. -1.
         -2   -1    0    0    0  501 -0.00000000000E+00 -0.00000000000E+00 -0.92503399660E+02  0.92503399660E+02  0.00000000000E+00 0.  1.
         25    2    1    2    0    0  0.17820776099E+03  0.93591274215E+02  0.16330735838E+03  0.28780795325E+03  0.12508713750E+03 0.  0.
          5    1    3    3  502    0 -0.64714254153E+01 -0.25130149832E+01 -0.12761769662E+02  0.15117200671E+02  0.41800000000E+01 0. -1.
         -5    1    3    3    0  502  0.18467918641E+03  0.96104289198E+02  0.17606912804E+03  0.27269075258E+03  0.41800000000E+01 0. -1.
        -11    1    1    2    0    0 -0.16474662103E+03 -0.45472713606E+02  0.28476673487E+03  0.33211641048E+03  0.00000000000E+00 0.  1.
         11    1    1    2    0    0 -0.13461139963E+02 -0.48118560609E+02  0.88302315250E+02  0.10145884408E+03  0.00000000000E+00 0. -1.
</event>
<event>
 7    1  0.2490079E-009  0.1188949E+03  0.7561462E-02  0.1244931E+00
         -2   -1    0    0    0  501 -0.00000000000E+00  0.00000000000E+00  0.29025072038E+03  0.29025072038E+03  0.00000000000E+00 0.  1.
          2   -1    0    0  501    0  0.00000000000E+00 -0.00000000000E+00 -0.49680289232E+02  0.49680289232E+02  0.00000000000E+00 0. -1.
         25    2    1    2    0    0 -0.16492533113E+02 -0.49591087442E+02  0.13164697209E+03  0.18897152008E+03  0.12509208824E+03 0.  0.
          5    1    3    3  502    0  0.52218374984E+02 -0.43153709243E+01  0.60173768847E+02  0.79898285147E+02  0.41800000000E+01 0. -1.
         -5    1    3    3    0  502 -0.68710908097E+02 -0.45275716518E+02  0.71473203240E+02  0.10907323493E+03  0.41800000000E+01 0. -1.
        -11    1    1    2    0    0  0.52858270283E+02  0.36269954758E+02  0.54373338985E+02  0.84059302566E+02  0.00000000000E+00 0. -1.
         11    1    1    2    0    0 -0.36365737169E+02  0.13321132684E+02  0.54550120078E+02  0.66900186969E+02  0.00000000000E+00 0.  1.
</event>
<event>
 7    1  0.2490079E-009  0.1506822E+03  0.7561462E-02  0.1199637E+00
         -1   -1    0    0    0  501 -0.00000000000E+00  0.00000000000E+00  0.42898571850E+02  0.42898571850E+02  0.00000000000E+00 0.  1.
          1   -1    0    0  501    0  0.00000000000E+00 -0.00000000000E+00 -0.58877321212E+03  0.58877321212E+03  0.00000000000E+00 0. -1.
         25    2    1    2    0    0 -0.10336345358E+03  0.23391575092E+02 -0.20270431289E+03  0.26070511148E+03  0.12508775865E+03 0.  0.
          5    1    3    3  502    0 -0.76857758781E+02 -0.45323106886E+02 -0.12414191977E+03  0.15293785583E+03  0.41800000000E+01 0. -1.
         -5    1    3    3    0  502 -0.26505694796E+02  0.68714681979E+02 -0.78562393123E+02  0.10776725564E+03  0.41800000000E+01 0. -1.
        -11    1    1    2    0    0  0.10584727471E+03  0.85893239442E+01 -0.22989838370E+03  0.25324037765E+03  0.00000000000E+00 0.  1.
         11    1    1    2    0    0 -0.24838211292E+01 -0.31980899036E+02 -0.11327194369E+03  0.11772629484E+03  0.00000000000E+00 0. -1.
</event>
<event>
 7    1  0.2490079E-009  0.1104741E+03  0.7561462E-02  0.1259694E+00
          1   -1    0    0  501    0  0.00000000000E+00  0.00000000000E+00  0.25055379567E+03  0.25055379567E+03  0.00000000000E+00 0. -1.
         -1   -1    0    0    0  501 -0.00000000000E+00 -0.00000000000E+00 -0.70698961104E+02  0.70698961104E+02  0.00000000000E+00 0.  1.
         25    2    1    2    0    0 -0.39738249507E+02 -0.45996248310E+02  0.15617111625E+03  0.20912902888E+03  0.12510295695E+03 0.  0.
          5    1    3    3  502    0 -0.72654708211E+02 -0.57124859531E+02  0.14571264929E+03  0.17260244716E+03  0.41800000000E+01 0.  1.
         -5    1    3    3    0  502  0.32916458704E+02  0.11128611220E+02  0.10458466957E+02  0.36526581723E+02  0.41800000000E+01 0.  1.
        -11    1    1    2    0    0 -0.24437672271E+01  0.50908115718E+02  0.41837471128E+02  0.65939231377E+02  0.00000000000E+00 0. -1.
         11    1    1    2    0    0  0.42182016734E+02 -0.49118674075E+01 -0.18153752811E+02  0.46184496515E+02  0.00000000000E+00 0.  1.
</event>
<event>
 7    1  0.2490079E-009  0.9524181E+02  0.7561462E-02  0.1290632E+00
          2   -1    0    0  501    0  0.00000000000E+00  0.00000000000E+00  0.76575339047E+03  0.76575339047E+03  0.00000000000E+00 0. -1.
         -2   -1    0    0    0  501 -0.00000000000E+00 -0.00000000000E+00 -0.32876109220E+02  0.32876109220E+02  0.00000000000E+00 0.  1.
         25    2    1    2    0    0 -0.23019526432E+02 -0.48772991586E+02  0.63514967771E+03  0.64959473448E+03  0.12509797227E+03 0.  0.
          5    1    3    3  502    0 -0.26525346721E+02  0.54445648979E+01  0.53398797779E+03  0.53469044328E+03  0.41800000000E+01 0.  1.
         -5    1    3    3    0  502  0.35058202891E+01 -0.54217556484E+02  0.10116169992E+03  0.11490429120E+03  0.41800000000E+01 0.  1.
        -11    1    1    2    0    0  0.59976511896E+02  0.27887867884E+02  0.39717825414E+02  0.77151933287E+02  0.00000000000E+00 0. -1.
         11    1    1    2    0    0 -0.36956985464E+02  0.20885123702E+02  0.58009778121E+02  0.71882831916E+02  0.00000000000E+00 0.  1.
</event>
<event>
 7    1  0.2490079E-009  0.8027023E+02  0.7561462E-02  0.1328286E+00
          2   -1    0    0  501    0  0.00000000000E+00  0.00000000000E+00  0.65985086278E+03  0.65985086278E+03  0.00000000000E+00 0. -1.
         -2   -1    0    0    0  501 -0.00000000000E+00 -0.00000000000E+00 -0.27966174158E+02  0.27966174158E+02  0.00000000000E+00 0.  1.
         25    2    1    2    0    0 -0.23617977399E+02  0.21512870788E+01  0.54216724623E+03  0.55691577201E+03  0.12508963722E+03 0.  0.
          5    1    3    3  502    0 -0.23987148243E+02 -0.55340822506E+02  0.38061469197E+03  0.38538682653E+03  0.41800000000E+01 0.  1.
         -5    1    3    3    0  502  0.36917084333E+00  0.57492109584E+02  0.16155255425E+03  0.17152894548E+03  0.41800000000E+01 0.  1.
        -11    1    1    2    0    0 -0.44160234814E+01 -0.11948424054E+02 -0.16366277789E+02  0.20739362320E+02  0.00000000000E+00 0.  1.
         11    1    1    2    0    0  0.28034000881E+02  0.97971369756E+01  0.10608372018E+03  0.11016190261E+03  0.00000000000E+00 0. -1.
</event>
<event>
 7    1  0.2490079E-009  0.1097382E+03  0.7561462E-02  0.1261055E+00
         -1   -1    0    0    0  501 -0.00000000000E+00  0.00000000000E+00  0.39038373466E+03  0.39038373466E+03  0.00000000000E+00 0.  1.
          1   -1    0    0  501    0  0.00000000000E+00 -0.00000000000E+00 -0.33125993456E+02  0.33125993456E+02  0.00000000000E+00 0. -1.
         25    2    1    2    0    0 -0.33555071605E+02 -0.23452692580E+01  0.19623028257E+03  0.23512779759E+03  0.12508922530E+03 0.  0.
          5    1    3    3  502    0 -0.78858038272E+02 -0.12761069537E+02  0.14656621226E+03  0.16697473484E+03  0.41800000000E+01 0. -1.
         -5    1    3    3    0  502  0.45302966667E+02  0.10415800279E+02  0.49664070303E+02  0.68153062759E+02  0.41800000000E+01 0. -1.
        -11    1    1    2    0    0  0.17064634703E+02 -0.42088142524E+02  0.49370130877E+02  0.67082213153E+02  0.00000000000E+00 0.  1.
         11    1    1    2    0    0  0.16490436902E+02  0.44433411782E+02  0.11165732776E+03  0.12129971737E+03  0.00000000000E+00 0. -1.
</event>
<event>
 7    1  0.2490079E-009  0.7393104E+02  0.7561462E-02  0.1347214E+00
         -1   -1    0    0    0  501 -0.00000000000E+00  0.00000000000E+00  0.11702568566E+03  0.11702568566E+03  0.00000000000E+00 0.  1.
          1   -1    0    0  501    0  0.00000000000E+00 -0.00000000000E+00 -0.10262333839E+03  0.10262333839E+03  0.00000000000E+00 0. -1.
         25    2    1    2    0    0  0.70611355040E+01 -0.19063669300E+01  0.25271960624E+02  0.12782645093E+03  0.12508971058E+03 0.  0.
          5    1    3    3  502    0 -0.14340154763E+02  0.31334267835E+02  0.63694265417E+02  0.72539011755E+02  0.41800000000E+01 0.  1.
         -5    1    3    3    0  502  0.21401290267E+02 -0.33240634765E+02 -0.38422304793E+02  0.55287439173E+02  0.41800000000E+01 0.  1.
        -11    1    1    2    0    0 -0.37195692850E+02  0.15550654621E+02  0.21371684841E+02  0.45629939061E+02  0.00000000000E+00 0.  1.
         11    1    1    2    0    0  0.30134557346E+02 -0.13644287691E+02 -0.32241298194E+02  0.46192634070E+02  0.00000000000E+00 0. -1.
</event>
<event>
 7    1  0.2490079E-009  0.6356153E+02  0.7561462E-02  0.1383466E+00
          1   -1    0    0  501    0  0.00000000000E+00  0.00000000000E+00  0.70599923525E+02  0.70599923525E+02  0.00000000000E+00 0. -1.
         -1   -1    0    0    0  501 -0.00000000000E+00 -0.00000000000E+00 -0.21126935389E+03  0.21126935389E+03  0.00000000000E+00 0.  1.
         25    2    1    2    0    0 -0.18380399071E+02 -0.53400678395E+02 -0.75917884987E+02  0.15685572843E+03  0.12510284872E+03 0.  0.
          5    1    3    3  502    0 -0.14615986348E+02 -0.56599271115E+02  0.19083618319E+02  0.61634093129E+02  0.41800000000E+01 0.  1.
         -5    1    3    3    0  502 -0.37644127230E+01  0.31985927206E+01 -0.95001503306E+02  0.95221635298E+02  0.41800000000E+01 0.  1.
        -11    1    1    2    0    0  0.16398934972E+02  0.11336442490E+02 -0.78283339166E+02  0.80781936023E+02  0.00000000000E+00 0.  1.
         11    1    1    2    0    0  0.19814640994E+01  0.42064235904E+02  0.13531793789E+02  0.44231612963E+02  0.00000000000E+00 0. -1.
</event>
<event>
 7    1  0.2490079E-009  0.1003409E+03  0.7561462E-02  0.1279581E+00
          2   -1    0    0  501    0  0.00000000000E+00  0.00000000000E+00  0.45072619348E+02  0.45072619348E+02  0.00000000000E+00 0. -1.
         -2   -1    0    0    0  501 -0.00000000000E+00 -0.00000000000E+00 -0.32278188073E+03  0.32278188073E+03  0.00000000000E+00 0.  1.
         25    2    1    2    0    0 -0.33192107930E+02  0.14789345570E+02 -0.21906770591E+03  0.25486976307E+03  0.12508994997E+03 0.  0.
          5    1    3    3  502    0 -0.56919562586E+02 -0.40473615913E+02 -0.11901523962E+03  0.13805813939E+03  0.41800000000E+01 0. -1.
         -5    1    3    3    0  502  0.23727454656E+02  0.55262961483E+02 -0.10005246630E+03  0.11681162369E+03  0.41800000000E+01 0. -1.
        -11    1    1    2    0    0  0.13962880157E+02  0.23640356502E+02  0.12266720897E+02  0.30071596555E+02  0.00000000000E+00 0. -1.
         11    1    1    2    0    0  0.19229227773E+02 -0.38429702072E+02 -0.70908276364E+02  0.82913140448E+02  0.00000000000E+00 0.  1.
</event>
<event>
 7    1  0.2490079E-009  0.1186878E+03  0.7561462E-02  0.1245278E+00
         -1   -1    0    0    0  501 -0.00000000000E+00  0.00000000000E+00  0.84903520215E+02  0.84903520215E+02  0.00000000000E+00 0.  1.
          1   -1    0    0  501    0  0.00000000000E+00 -0.00000000000E+00 -0.18403813803E+03  0.18403813803E+03  0.00000000000E+00 0. -1.
         25    2    1    2    0    0 -0.38745613397E+01  0.61515778164E+02 -0.65920217926E+02  0.15424951161E+03  0.12509289952E+03 0.  0.
          5    1    3    3  502    0  0.13903233138E+02  0.92537185949E+02 -0.19791722148E+02  0.95737220247E+02  0.41800000000E+01 0.  1.
         -5    1    3    3    0  502 -0.17777794478E+02 -0.31021407785E+02 -0.46128495778E+02  0.58512291360E+02  0.41800000000E+01 0.  1.
        -11    1    1    2    0    0  0.37426635035E+02  0.23933167986E+00 -0.11575663805E+01  0.37445296762E+02  0.00000000000E+00 0.  1.
         11    1    1    2    0    0 -0.33552073695E+02 -0.61755109843E+02 -0.32056833508E+02  0.77246849875E+02  0.00000000000E+00 0. -1.
</event>
<event>
 7    1  0.2490079E-009  0.9541843E+02  0.7561462E-02  0.1290236E+00
         -1   -1    0    0    0  501 -0.00000000000E+00  0.00000000000E+00  0.15129420846E+02  0.15129420846E+02  0.00000000000E+00 0.  1.
          1   -1    0    0  501    0  0.00000000000E+00 -0.00000000000E+00 -0.79815894236E+03  0.79815894236E+03  0.00000000000E+00 0. -1.
         25    2    1    2    0    0  0.33425528735E+01 -0.13472308666E+02 -0.48961707969E+03  0.50553423509E+03  0.12508917764E+03 0.  0.
          5    1    3    3  502    0  0.56444663207E+01 -0.63682813089E+02 -0.37322185667E+03  0.37868111569E+03  0.41800000000E+01 0. -1.
         -5    1    3    3    0  502 -0.23019134472E+01  0.50210504424E+02 -0.11639522302E+03  0.12685311940E+03  0.41800000000E+01 0. -1.
        -11    1    1    2    0    0 -0.28064719814E+02 -0.20185168834E+02 -0.50011265089E+02  0.60796350013E+02  0.00000000000E+00 0.  1.
         11    1    1    2    0    0  0.24722166941E+02  0.33657477500E+02 -0.24340117674E+03  0.24695777810E+03  0.00000000000E+00 0. -1.
</event>
<event>
 7    1  0.2490079E-009  0.1281201E+03  0.7561462E-02  0.1230272E+00
         -4   -1    0    0    0  501 -0.00000000000E+00  0.00000000000E+00  0.24130989166E+03  0.24130989166E+03  0.00000000000E+00 0.  1.
          4   -1    0    0  501    0  0.00000000000E+00 -0.00000000000E+00 -0.87741868722E+02  0.87741868722E+02  0.00000000000E+00 0. -1.
         25    2    1    2    0    0  0.46216265200E+02 -0.50956785128E+02  0.15856653358E+03  0.21336222547E+03  0.12509019373E+03 0.  0.
          5    1    3    3  502    0 -0.19373469358E+02 -0.70363913639E+02  0.68421449755E+02  0.10012681381E+03  0.41800000000E+01 0. -1.
         -5    1    3    3    0  502  0.65589734559E+02  0.19407128511E+02  0.90145083822E+02  0.11323541166E+03  0.41800000000E+01 0. -1.
        -11    1    1    2    0    0 -0.10587079326E+02  0.72304156101E+02  0.40243396731E+01  0.73185876698E+02  0.00000000000E+00 0.  1.
         11    1    1    2    0    0 -0.35629185874E+02 -0.21347370973E+02 -0.90228503129E+01  0.42503658211E+02  0.00000000000E+00 0. -1.
</event>
<event>
 7    1  0.2490079E-009  0.1186517E+03  0.7561462E-02  0.1245338E+00
         -1   -1    0    0    0  501 -0.00000000000E+00  0.00000000000E+00  0.42951264098E+02  0.42951264098E+02  0.00000000000E+00 0.  1.
          1   -1    0    0  501    0  0.00000000000E+00 -0.00000000000E+00 -0.44506256030E+03  0.44506256030E+03  0.00000000000E+00 0. -1.
         25    2    1    2    0    0  0.71538637273E+02  0.47782774310E+02 -0.25656135889E+03  0.29811617199E+03  0.12509416846E+03 0.  0.
          5    1    3    3  502    0  0.63164914283E+02  0.87023633872E+02 -0.21364035532E+03  0.23921244339E+03  0.41800000000E+01 0.  1.
         -5    1    3    3    0  502  0.83737229901E+01 -0.39240859562E+02 -0.42921003565E+02  0.58903728600E+02  0.41800000000E+01 0.  1.
        -11    1    1    2    0    0 -0.38018817964E+02 -0.10985769550E+02 -0.39108853697E+01  0.39766979724E+02  0.00000000000E+00 0.  1.
         11    1    1    2    0    0 -0.33519819309E+02 -0.36797004760E+02 -0.14163905194E+03  0.15013067268E+03  0.00000000000E+00 0. -1.
</event>
<event>
 7    1  0.2490079E-009  0.1032167E+03  0.7561462E-02  0.1273674E+00
         -3   -1    0    0    0  501 -0.00000000000E+00  0.00000000000E+00  0.39651391253E+02  0.39651391253E+02  0.00000000000E+00 0.  1.
          3   -1    0    0  501    0  0.00000000000E+00 -0.00000000000E+00 -0.36101903284E+03  0.36101903284E+03  0.00000000000E+00 0. -1.
         25    2    1    2    0    0  0.27374292785E+01 -0.46532788973E+02 -0.15066968290E+03  0.20130517641E+03  0.12509846816E+03 0.  0.
          5    1    3    3  502    0  0.17919290021E+02 -0.81478304376E+02 -0.13729645659E+03  0.16070968991E+03  0.41800000000E+01 0.  1.
         -5    1    3    3    0  502 -0.15181860743E+02  0.34945515403E+02 -0.13373226309E+02  0.40595486502E+02  0.41800000000E+01 0.  1.
        -11    1    1    2    0    0 -0.10967286453E+02  0.64175515570E+02 -0.16740663505E+03  0.17962115585E+03  0.00000000000E+00 0. -1.
         11    1    1    2    0    0  0.82298571749E+01 -0.17642726597E+02 -0.32913236393E+01  0.19744091830E+02  0.00000000000E+00 0.  1.
</event>
<event>
 7    1  0.2490079E-009  0.2846236E+03  0.7561462E-02  0.1093190E+00
         -1   -1    0    0    0  501 -0.00000000000E+00  0.00000000000E+00  0.16008748582E+03  0.16008748582E+03  0.00000000000E+00 0.  1.
          1   -1    0    0  501    0  0.00000000000E+00 -0.00000000000E+00 -0.80602978424E+03  0.80602978424E+03  0.00000000000E+00 0. -1.
         25    2    1    2    0    0  0.21830246769E+03  0.16245300363E+03 -0.47753876961E+02  0.30327421483E+03  0.12509144987E+03 0.  0.
          5    1    3    3  502    0  0.22857668272E+03  0.15108659509E+03 -0.63088478178E+02  0.28119759525E+03  0.41800000000E+01 0.  1.
         -5    1    3    3    0  502 -0.10274215029E+02  0.11366408544E+02  0.15334601217E+02  0.22076619581E+02  0.41800000000E+01 0.  1.
        -11    1    1    2    0    0 -0.12728415989E+03 -0.13196746456E+03 -0.32321577871E+03  0.37159804718E+03  0.00000000000E+00 0.  1.
         11    1    1    2    0    0 -0.91018307795E+02 -0.30485539068E+02 -0.27497264276E+03  0.29124500804E+03  0.00000000000E+00 0. -1.
</event>
<event>
 7    1  0.2490079E-009  0.1623049E+03  0.7561462E-02  0.1186119E+00
         -2   -1    0    0    0  501 -0.00000000000E+00  0.00000000000E+00  0.71964330746E+02  0.71964330746E+02  0.00000000000E+00 0. -1.
          2   -1    0    0  501    0  0.00000000000E+00 -0.00000000000E+00 -0.60005442387E+03  0.60005442387E+03  0.00000000000E+00 0.  1.
         25    2    1    2    0    0 -0.11926684003E+03 -0.47383010344E+02 -0.47143025281E+03  0.50434530602E+03  0.12509186880E+03 0.  0.
          5    1    3    3  502    0  0.14642873627E+02 -0.42482777186E+02 -0.11547576840E+03  0.12398115015E+03  0.41800000000E+01 0. -1.
         -5    1    3    3    0  502 -0.13390971366E+03 -0.49002331575E+01 -0.35595448441E+03  0.38036415587E+03  0.41800000000E+01 0. -1.
        -11    1    1    2    0    0  0.62117688124E+02 -0.11706424369E+02  0.71436338109E+01  0.63613513136E+02  0.00000000000E+00 0. -1.
         11    1    1    2    0    0  0.57149151905E+02  0.59089434713E+02 -0.63803474128E+02  0.10405993546E+03  0.00000000000E+00 0.  1.
</event>
<event>
 7    1  0.2490079E-009  0.1400734E+03  0.7561462E-02  0.1213230E+00
         -1   -1    0    0    0  501 -0.00000000000E+00  0.00000000000E+00  0.19955733254E+03  0.19955733254E+03  0.00000000000E+00 0.  1.
          1   -1    0    0  501    0  0.00000000000E+00 -0.00000000000E+00 -0.12621839696E+03  0.12621839696E+03  0.00000000000E+00 0. -1.
         25    2    1    2    0    0  0.76039072081E+02 -0.29615803724E+02 -0.31906164747E+02  0.15272300475E+03  0.12508907434E+03 0.  0.
          5    1    3    3  502    0  0.79062956649E+02  0.32216555119E+02 -0.30190543008E+02  0.90652075679E+02  0.41800000000E+01 0. -1.
         -5    1    3    3    0  502 -0.30238845676E+01 -0.61832358843E+02 -0.17156217387E+01  0.62070929073E+02  0.41800000000E+01 0. -1.
        -11    1    1    2    0    0 -0.69157493782E+02  0.65997843931E+02  0.94682855768E+02  0.13454856939E+03  0.00000000000E+00 0.  1.
         11    1    1    2    0    0 -0.68815782993E+01 -0.36382040207E+02  0.10562244551E+02  0.38504155353E+02  0.00000000000E+00 0. -1.
</event>
<event>
 7    1  0.2490079E-009  0.8180957E+02  0.7561462E-02  0.1323993E+00
          3   -1    0    0  501    0  0.00000000000E+00  0.00000000000E+00  0.10782891524E+03  0.10782891524E+03  0.00000000000E+00 0. -1.
         -3   -1    0    0    0  501 -0.00000000000E+00 -0.00000000000E+00 -0.13655300254E+03  0.13655300254E+03  0.00000000000E+00 0.  1.
         25    2    1    2    0    0  0.10009715487E+02 -0.51874376004E+02 -0.32659768341E+02  0.13965720523E+03  0.12508528776E+03 0.  0.
          5    1    3    3  502    0 -0.49633640270E+01 -0.43703817383E+02  0.43198892009E+02  0.61792194549E+02  0.41800000000E+01 0.  1.
         -5    1    3    3    0  502  0.14973079514E+02 -0.81705586213E+01 -0.75858660350E+02  0.77865010682E+02  0.41800000000E+01 0.  1.
        -11    1    1    2    0    0 -0.36768512500E+02  0.62959929421E+02 -0.81016715186E+01  0.73358798420E+02  0.00000000000E+00 0.  1.
         11    1    1    2    0    0  0.26758797013E+02 -0.11085553417E+02  0.12037352562E+02  0.31365914124E+02  0.00000000000E+00 0. -1.
</event>
<event>
 7    1  0.2490079E-009  0.8757653E+02  0.7561462E-02  0.1308829E+00
          2   -1    0    0  501    0  0.00000000000E+00  0.00000000000E+00  0.75050683920E+02  0.75050683920E+02  0.00000000000E+00 0. -1.
         -2   -1    0    0    0  501 -0.00000000000E+00 -0.00000000000E+00 -0.31071940843E+03  0.31071940843E+03  0.00000000000E+00 0.  1.
         25    2    1    2    0    0 -0.27358743835E+01 -0.38225812057E+02 -0.97932892827E+00  0.13082999283E+03  0.12508729041E+03 0.  0.
          5    1    3    3  502    0  0.18537343556E+02 -0.48614734883E+02  0.51363376880E+02  0.73230420171E+02  0.41800000000E+01 0.  1.
         -5    1    3    3    0  502 -0.21273217939E+02  0.10388922826E+02 -0.52342705808E+02  0.57599572657E+02  0.41800000000E+01 0.  1.
        -11    1    1    2    0    0  0.98943926469E+01 -0.29344270261E+02 -0.60448623609E+02  0.67919226285E+02  0.00000000000E+00 0.  1.
         11    1    1    2    0    0 -0.71585182634E+01  0.67570082318E+02 -0.17424077197E+03  0.18702087324E+03  0.00000000000E+00 0. -1.
</event>
<event>
 7    1  0.2490079E-009  0.1038457E+03  0.7561462E-02  0.1272411E+00
         -1   -1    0    0    0  501 -0.00000000000E+00  0.00000000000E+00  0.28290637954E+03  0.28290637954E+03  0.00000000000E+00 0.  1.
          1   -1    0    0  501    0  0.00000000000E+00 -0.00000000000E+00 -0.67365217517E+02  0.67365217517E+02  0.00000000000E+00 0. -1.
         25    2    1    2    0    0 -0.35249841272E+02 -0.53653594165E+02  0.19088172938E+03  0.23707637582E+03  0.12509242138E+03 0.  0.
          5    1    3    3  502    0  0.24020261790E+02 -0.32523888140E+02  0.16323498928E+03  0.16821982761E+03  0.41800000000E+01 0. -1.
         -5    1    3    3    0  502 -0.59270103062E+02 -0.21129706025E+02  0.27646740098E+02  0.68856548212E+02  0.41800000000E+01 0. -1.
        -11    1    1    2    0    0  0.43833439516E+02 -0.55275739258E+01  0.29617730827E+02  0.53189608690E+02  0.00000000000E+00 0.  1.
         11    1    1    2    0    0 -0.85835982440E+01  0.59181168091E+02 -0.49582981861E+01  0.60005612540E+02  0.00000000000E+00 0. -1.
</event>
<event>
 7    1  0.2490079E-009  0.1145653E+03  0.7561462E-02  0.1252342E+00
          2   -1    0    0  501    0  0.00000000000E+00  0.00000000000E+00  0.59616194883E+02  0.59616194883E+02  0.00000000000E+00 0. -1.
         -2   -1    0    0    0  501 -0.00000000000E+00 -0.00000000000E+00 -0.28297167392E+03  0.28297167392E+03  0.00000000000E+00 0.  1.
         25    2    1    2    0    0  0.27544236575E+02 -0.66194754905E+02 -0.12163327564E+03  0.18863318818E+03  0.12508954950E+03 0.  0.
          5    1    3    3  502    0 -0.52739477142E+01  0.28729985750E+02 -0.69259207404E+02  0.75283044678E+02  0.41800000000E+01 0.  1.
         -5    1    3    3    0  502  0.32818184289E+02 -0.94924740655E+02 -0.52374068240E+02  0.11335014350E+03  0.41800000000E+01 0.  1.
        -11    1    1    2    0    0 -0.49708097022E+02  0.55444993438E+02 -0.10539718967E+03  0.12904886593E+03  0.00000000000E+00 0.  1.
         11    1    1    2    0    0  0.22163860447E+02  0.10749761467E+02  0.36749862765E+01  0.24905814695E+02  0.00000000000E+00 0. -1.
</event>
<event>
 7    1  0.2490079E-009  0.1680339E+03  0.7561462E-02  0.1179914E+00
         -2   -1    0    0    0  501 -0.00000000000E+00  0.00000000000E+00  0.39181100557E+02  0.39181100557E+02  0.00000000000E+00 0.  1.
          2   -1    0    0  501    0  0.00000000000E+00 -0.00000000000E+00 -0.94830360291E+03  0.94830360291E+03  0.00000000000E+00 0. -1.
         25    2    1    2    0    0  0.15058299034E+03 -0.22104852137E+02 -0.57869144570E+03  0.61130597535E+03  0.12508934688E+03 0.  0.
          5    1    3    3  502    0  0.45343151711E+02  0.10916322949E+02 -0.40493735232E+02  0.61906239644E+02  0.41800000000E+01 0. -1.
         -5    1    3    3    0  502  0.10523983863E+03 -0.33021175086E+02 -0.53819771047E+03  0.54939973570E+03  0.41800000000E+01 0. -1.
        -11    1    1    2    0    0 -0.10566954076E+03  0.58745166872E+02 -0.24064336430E+03  0.26930702786E+03  0.00000000000E+00 0.  1.
         11    1    1    2    0    0 -0.44913449583E+02 -0.36640314735E+02 -0.89787692353E+02  0.10687170026E+03  0.00000000000E+00 0. -1.
</event>
<event>
 7    1  0.2490079E-009  0.1182145E+03  0.7561462E-02  0.1246072E+00
          1   -1    0    0  501    0  0.00000000000E+00  0.00000000000E+00  0.10786939760E+04  0.10786939760E+04  0.00000000000E+00 0.  1.
         -1   -1    0    0    0  501 -0.00000000000E+00 -0.00000000000E+00 -0.30129409131E+02  0.30129409131E+02  0.00000000000E+00 0. -1.
         25    2    1    2    0    0 -0.16673246749E+02  0.83193880542E+02  0.91235027956E+03  0.92478618193E+03  0.12508889140E+03 0.  0.
          5    1    3    3  502    0 -0.48718271837E+02  0.25219538359E+02  0.15392496710E+03  0.16346211495E+03  0.41800000000E+01 0.  1.
         -5    1    3    3    0  502  0.32045025088E+02  0.57974342183E+02  0.75842531246E+03  0.76132406698E+03  0.41800000000E+01 0.  1.
        -11    1    1    2    0    0 -0.31243102593E+02 -0.28082783251E+02  0.19396984744E+02  0.46271126979E+02  0.00000000000E+00 0. -1.
         11    1    1    2    0    0  0.47916349342E+02 -0.55111097290E+02  0.11681730254E+03  0.13776607620E+03  0.00000000000E+00 0.  1.
</event>
<event>
 7    1  0.2490079E-009  0.7501131E+02  0.7561462E-02  0.1343836E+00
          1   -1    0    0  501    0  0.00000000000E+00  0.00000000000E+00  0.51312180052E+03  0.51312180052E+03  0.00000000000E+00 0. -1.
         -1   -1    0    0    0  501 -0.00000000000E+00 -0.00000000000E+00 -0.27218876004E+02  0.27218876004E+02  0.00000000000E+00 0.  1.
         25    2    1    2    0    0  0.13526475166E+02  0.15787055268E+02  0.37389588898E+03  0.39481415627E+03  0.12509150868E+03 0.  0.
          5    1    3    3  502    0 -0.16120578124E+02 -0.30657217334E+02  0.28566637369E+02  0.45091719686E+02  0.41800000000E+01 0. -1.
         -5    1    3    3    0  502  0.29647053290E+02  0.46444272602E+02  0.34532925161E+03  0.34972243658E+03  0.41800000000E+01 0. -1.
        -11    1    1    2    0    0  0.16009547332E+02 -0.24333763274E+02 -0.25579082783E+00  0.29129076020E+02  0.00000000000E+00 0.  1.
         11    1    1    2    0    0 -0.29536022498E+02  0.85467080052E+01  0.11226282636E+03  0.11639744424E+03  0.00000000000E+00 0. -1.
</event>
<event>
 7    1  0.2490079E-009  0.3422434E+03  0.7561462E-02  0.1065844E+00
          2   -1    0    0  501    0  0.00000000000E+00  0.00000000000E+00  0.58515483279E+03  0.58515483279E+03  0.00000000000E+00 0. -1.
         -2   -1    0    0    0  501 -0.00000000000E+00 -0.00000000000E+00 -0.21255264674E+03  0.21255264674E+03  0.00000000000E+00 0.  1.
         25    2    1    2    0    0 -0.17529526451E+03  0.28278613313E+03  0.25610204644E+03  0.43810106893E+03  0.12509141280E+03 0.  0.
          5    1    3    3  502    0 -0.77546709279E+01  0.84789691366E+02  0.11393182013E+03  0.14229321390E+03  0.41800000000E+01 0.  1.
         -5    1    3    3    0  502 -0.16754059359E+03  0.19799644177E+03  0.14217022631E+03  0.29580785503E+03  0.41800000000E+01 0.  1.
        -11    1    1    2    0    0  0.10345237423E+03 -0.10191535026E+03  0.41453998760E+02  0.15102174137E+03  0.00000000000E+00 0.  1.
         11    1    1    2    0    0  0.71842890279E+02 -0.18087078287E+03  0.75046140843E+02  0.20858466923E+03  0.00000000000E+00 0. -1.
</event>
<event>
 7    1  0.2490079E-009  0.9829706E+02  0.7561462E-02  0.1283918E+00
          1   -1    0    0  501    0  0.00000000000E+00  0.00000000000E+00  0.34368755649E+03  0.34368755649E+03  0.00000000000E+00 0. -1.
         -1   -1    0    0    0  501 -0.00000000000E+00 -0.00000000000E+00 -0.39181487768E+02  0.39181487768E+02  0.00000000000E+00 0.  1.
         25    2    1    2    0    0  0.67915429933E+01  0.54686969794E+01  0.24655709686E+03  0.27661004110E+03  0.12508669442E+03 0.  0.
          5    1    3    3  502    0  0.28534248819E+01 -0.59725304101E+02  0.11670324887E+03  0.13119594003E+03  0.41800000000E+01 0. -1.
         -5    1    3    3    0  502  0.39381181114E+01  0.65194001080E+02  0.12985384799E+03  0.14541410107E+03  0.41800000000E+01 0. -1.
        -11    1    1    2    0    0  0.10434160454E+02  0.30008241694E+02 -0.48147437336E+01  0.32133285409E+02  0.00000000000E+00 0.  1.
         11    1    1    2    0    0 -0.17225703448E+02 -0.35476938673E+02  0.62763715589E+02  0.74125717746E+02  0.00000000000E+00 0. -1.
</event>
<event>
 7    1  0.2490079E-009  0.1695339E+03  0.7561462E-02  0.1178335E+00
         -1   -1    0    0    0  501 -0.00000000000E+00  0.00000000000E+00  0.14029484632E+03  0.14029484632E+03  0.00000000000E+00 0.  1.
          1   -1    0    0  501    0  0.00000000000E+00 -0.00000000000E+00 -0.22634714964E+03  0.22634714964E+03  0.00000000000E+00 0. -1.
         25    2    1    2    0    0 -0.38620095309E+02  0.13204795991E+03 -0.79382258422E+02  0.20218203951E+03  0.12509140126E+03 0.  0.
          5    1    3    3  502    0 -0.69782954306E+02  0.37880422026E+02 -0.63253379265E+02  0.10160240880E+03  0.41800000000E+01 0. -1.
         -5    1    3    3    0  502  0.31162858998E+02  0.94167537880E+02 -0.16128879157E+02  0.10057963071E+03  0.41800000000E+01 0. -1.
        -11    1    1    2    0    0  0.24947833647E+02  0.24677674085E+01 -0.14613761874E+02  0.29018034319E+02  0.00000000000E+00 0. -1.
         11    1    1    2    0    0  0.13672261662E+02 -0.13451572731E+03  0.79437169778E+01  0.13544192214E+03  0.00000000000E+00 0.  1.
</event>
<event>
 7    1  0.2490079E-009  0.1367792E+03  0.7561462E-02  0.1217730E+00
         -1   -1    0    0    0  501 -0.00000000000E+00  0.00000000000E+00  0.69219157276E+03  0.69219157276E+03  0.00000000000E+00 0.  1.
          1   -1    0    0  501    0  0.00000000000E+00 -0.00000000000E+00 -0.27726527321E+02  0.27726527321E+02  0.00000000000E+00 0. -1.
         25    2    1    2    0    0 -0.56631557879E+01  0.10793802331E+03  0.43384798872E+03  0.46427668093E+03  0.12508425534E+03 0.  0.
          5    1    3    3  502    0 -0.57245266772E+02  0.96015453793E+02  0.30784882372E+03  0.32754291108E+03  0.41800000000E+01 0. -1.
         -5    1    3    3    0  502  0.51582110984E+02  0.11922569520E+02  0.12599916500E+03  0.13673376985E+03  0.41800000000E+01 0. -1.
        -11    1    1    2    0    0  0.85277356955E+01 -0.65409338552E+02  0.16131142696E+03  0.17427702176E+03  0.00000000000E+00 0.  1.
         11    1    1    2    0    0 -0.28645799076E+01 -0.42528684761E+02  0.69305629761E+02  0.81364397387E+02  0.00000000000E+00 0. -1.
</event>
<event>
 7    1  0.2490079E-009  0.1672583E+03  0.7561462E-02  0.1180738E+00
         -1   -1    0    0    0  501 -0.00000000000E+00  0.00000000000E+00  0.25094707182E+03  0.25094707182E+03  0.00000000000E+00 0.  1.
          1   -1    0    0  501    0  0.00000000000E+00 -0.00000000000E+00 -0.20068333557E+03  0.20068333557E+03  0.00000000000E+00 0. -1.
         25    2    1    2    0    0 -0.11493776561E+03  0.96374259280E+02  0.15325243968E+03  0.24826103603E+03  0.12509414027E+03 0.  0.
          5    1    3    3  502    0  0.29062733743E+01  0.18248880871E+02  0.92321304515E+02  0.94245231950E+02  0.41800000000E+01 0. -1.
         -5    1    3    3    0  502 -0.11784403898E+03  0.78125378409E+02  0.60931135163E+02  0.15401580408E+03  0.41800000000E+01 0. -1.
        -11    1    1    2    0    0 -0.14862509786E+02 -0.13794736030E+02 -0.20385037470E+02  0.28753064044E+02  0.00000000000E+00 0. -1.
         11    1    1    2    0    0  0.12980027539E+03 -0.82579523250E+02 -0.82603665951E+02  0.17461630732E+03  0.00000000000E+00 0.  1.
</event>
<event>
 7    1  0.2490079E-009  0.1267012E+03  0.7561462E-02  0.1232434E+00
         -2   -1    0    0    0  501 -0.00000000000E+00  0.00000000000E+00  0.58718961700E+03  0.58718961700E+03  0.00000000000E+00 0.  1.
          2   -1    0    0  501    0  0.00000000000E+00 -0.00000000000E+00 -0.47260011286E+02  0.47260011286E+02  0.00000000000E+00 0. -1.
         25    2    1    2    0    0 -0.55938988512E+02 -0.10609692560E+03  0.34262300625E+03  0.38395723052E+03  0.12508757894E+03 0.  0.
          5    1    3    3  502    0 -0.36394919713E+01 -0.52560471344E+02  0.26604465690E+02  0.59170254727E+02  0.41800000000E+01 0. -1.
         -5    1    3    3    0  502 -0.52299496540E+02 -0.53536454251E+02  0.31601854056E+03  0.32478697580E+03  0.41800000000E+01 0. -1.
        -11    1    1    2    0    0  0.38677293242E+02  0.34128296695E+02  0.14973182327E+02  0.53710984322E+02  0.00000000000E+00 0. -1.
         11    1    1    2    0    0  0.17261695270E+02  0.71968628901E+02  0.18233341714E+03  0.19678141344E+03  0.00000000000E+00 0.  1.
</event>
<event>
 7    1  0.2490079E-009  0.1355256E+03  0.7561462E-02  0.1219480E+00
         -1   -1    0    0    0  501 -0.00000000000E+00  0.00000000000E+00  0.58239867268E+02  0.58239867268E+02  0.00000000000E+00 0.  1.
          1   -1    0    0  501    0  0.00000000000E+00 -0.00000000000E+00 -0.39174661177E+03  0.39174661177E+03  0.00000000000E+00 0. -1.
         25    2    1    2    0    0 -0.65763022041E+02  0.79621770057E+02 -0.20765953397E+03  0.26350065838E+03  0.12508282689E+03 0.  0.
          5    1    3    3  502    0 -0.86281900573E+02  0.83982633381E+02 -0.20987445391E+03  0.24199671048E+03  0.41800000000E+01 0.  1.
         -5    1    3    3    0  502  0.20518878532E+02 -0.43608633242E+01  0.22149199397E+01  0.21503947904E+02  0.41800000000E+01 0.  1.
        -11    1    1    2    0    0  0.83353846886E+02 -0.71452711626E+02 -0.77479103423E+02  0.13437397537E+03  0.00000000000E+00 0.  1.
         11    1    1    2    0    0 -0.17590824846E+02 -0.81690584317E+01 -0.48368107106E+02  0.52111845289E+02  0.00000000000E+00 0. -1.
</event>
<event>
 7    1  0.2490079E-009  0.8121988E+02  0.7561462E-02  0.1325625E+00
          2   -1    0    0  501    0  0.00000000000E+00  0.00000000000E+00  0.11578977549E+03  0.11578977549E+03  0.00000000000E+00 0. -1.
         -2   -1    0    0    0  501 -0.00000000000E+00 -0.00000000000E+00 -0.13596165087E+03  0.13596165087E+03  0.00000000000E+00 0.  1.
         25    2    1    2    0    0  0.22449008927E+02 -0.56010156656E+02  0.91591430027E+01  0.13918074312E+03  0.12508514582E+03 0.  0.
          5    1    3    3  502    0  0.31834134165E+02  0.71118524172E+00 -0.48162024390E+02  0.57887570996E+02  0.41800000000E+01 0. -1.
         -5    1    3    3    0  502 -0.93851252384E+01 -0.56721341897E+02  0.57321167393E+02  0.81293172122E+02  0.41800000000E+01 0. -1.
        -11    1    1    2    0    0  0.10878455303E+02  0.55629390106E+01 -0.47811098054E+02  0.49347625853E+02  0.00000000000E+00 0.  1.
         11    1    1    2    0    0 -0.33327464230E+02  0.50447217645E+02  0.18480079674E+02  0.63223057383E+02  0.00000000000E+00 0. -1.
</event>
<event>
 7    1  0.2490079E-009  0.1109801E+03  0.7561462E-02  0.1258766E+00
         -4   -1    0    0    0  501 -0.00000000000E+00  0.00000000000E+00  0.21448435104E+02  0.21448435104E+02  0.00000000000E+00 0.  1.
          4   -1    0    0  501    0  0.00000000000E+00 -0.00000000000E+00 -0.77220691170E+03  0.77220691170E+03  0.00000000000E+00 0. -1.
         25    2    1    2    0    0  0.22724611194E+02  0.59257228082E+02 -0.51678614809E+03  0.53548296544E+03  0.12508499665E+03 0.  0.
          5    1    3    3  502    0  0.20574673683E+02  0.97960406527E+02 -0.40025282818E+03  0.41260072383E+03  0.41800000000E+01 0.  1.
         -5    1    3    3    0  502  0.21499375111E+01 -0.38703178445E+02 -0.11653331991E+03  0.12288224161E+03  0.41800000000E+01 0.  1.
        -11    1    1    2    0    0  0.17295307221E+02 -0.23067852792E+02 -0.14706858639E+02  0.32365802559E+02  0.00000000000E+00 0.  1.
         11    1    1    2    0    0 -0.40019918415E+02 -0.36189375290E+02 -0.21926546987E+03  0.22580657881E+03  0.00000000000E+00 0. -1.
</event>
<event>
 7    1  0.2490079E-009  0.1483108E+03  0.7561462E-02  0.1202564E+00
         -4   -1    0    0    0  501 -0.00000000000E+00  0.00000000000E+00  0.22538211151E+03  0.22538211151E+03  0.00000000000E+00 0.  1.
          4   -1    0    0  501    0  0.00000000000E+00 -0.00000000000E+00 -0.10892811590E+03  0.10892811590E+03  0.00000000000E+00 0. -1.
         25    2    1    2    0    0  0.10949568122E+03 -0.15462738343E+02  0.84091355668E+02  0.18694214599E+03  0.12509040478E+03 0.  0.
          5    1    3    3  502    0  0.13329664483E+03 -0.20134218720E+02  0.89336018972E+02  0.16177694203E+03  0.41800000000E+01 0. -1.
         -5    1    3    3    0  502 -0.23800963608E+02  0.46714803769E+01 -0.52446633040E+01  0.25165203968E+02  0.41800000000E+01 0. -1.
        -11    1    1    2    0    0 -0.56877270127E+02  0.48717573362E+02  0.39579205762E+02  0.84705013666E+02  0.00000000000E+00 0.  1.
         11    1    1    2    0    0 -0.52618411092E+02 -0.33254835020E+02 -0.72165658195E+01  0.62663067753E+02  0.00000000000E+00 0. -1.
</event>
<event>
 7    1  0.2490079E-009  0.1105595E+03  0.7561462E-02  0.1259537E+00
          2   -1    0    0  501    0  0.00000000000E+00  0.00000000000E+00  0.16006911216E+04  0.16006911216E+04  0.00000000000E+00 0. -1.
         -2   -1    0    0    0  501 -0.00000000000E+00 -0.00000000000E+00 -0.16210855399E+02  0.16210855399E+02  0.00000000000E+00 0.  1.
         25    2    1    2    0    0 -0.11481043914E+02 -0.63970133989E+02  0.13398591334E+04  0.13472543263E+04  0.12509088658E+03 0.  0.
          5    1    3    3  502    0  0.26325656210E+02 -0.71867120093E+02  0.44507186325E+03  0.45162413464E+03  0.41800000000E+01 0. -1.
         -5    1    3    3    0  502 -0.37806700124E+02  0.78969861037E+01  0.89478727015E+03  0.89563019164E+03  0.41800000000E+01 0. -1.
        -11    1    1    2    0    0 -0.32709388742E+02  0.49093715528E+02  0.85801417834E+02  0.10412483046E+03  0.00000000000E+00 0.  1.
         11    1    1    2    0    0  0.44190432656E+02  0.14876418461E+02  0.15881971492E+03  0.16552282021E+03  0.00000000000E+00 0. -1.
</event>
<event>
 7    1  0.2490079E-009  0.2433812E+03  0.7561462E-02  0.1117561E+00
         -1   -1    0    0    0  501 -0.00000000000E+00  0.00000000000E+00  0.12932234160E+03  0.12932234160E+03  0.00000000000E+00 0.  1.
          1   -1    0    0  501    0  0.00000000000E+00 -0.00000000000E+00 -0.54558341826E+03  0.54558341826E+03  0.00000000000E+00 0. -1.
         25    2    1    2    0    0  0.20984508344E+03  0.11048809959E+03 -0.27175071916E+03  0.38175615029E+03  0.12508687272E+03 0.  0.
          5    1    3    3  502    0  0.18916956468E+03  0.12184198355E+03 -0.27733420075E+03  0.35715868247E+03  0.41800000000E+01 0.  1.
         -5    1    3    3    0  502  0.20675518757E+02 -0.11353883960E+02  0.55834815863E+01  0.24597467827E+02  0.41800000000E+01 0.  1.
        -11    1    1    2    0    0 -0.84645467878E+02 -0.35277819947E+02 -0.60588278348E+01  0.91902607184E+02  0.00000000000E+00 0.  1.
         11    1    1    2    0    0 -0.12519961556E+03 -0.75210279642E+02 -0.13845152967E+03  0.20124700238E+03  0.00000000000E+00 0. -1.
</event>
<event>
 7    1  0.2490079E-009  0.1938436E+03  0.7561462E-02  0.1155040E+00
          2   -1    0    0  501    0  0.00000000000E+00  0.00000000000E+00  0.63132883722E+03  0.63132883722E+03  0.00000000000E+00 0. -1.
         -2   -1    0    0    0  501 -0.00000000000E+00 -0.00000000000E+00 -0.91334183163E+02  0.91334183163E+02  0.00000000000E+00 0.  1.
         25    2    1    2    0    0 -0.17270818145E+03  0.40687398868E+02  0.98118821340E+02  0.23824144523E+03  0.12509237690E+03 0.  0.
          5    1    3    3  502    0 -0.20782145517E+02  0.40929646356E+02 -0.15339649850E+02  0.48578912922E+02  0.41800000000E+01 0.  1.
         -5    1    3    3    0  502 -0.15192603593E+03 -0.24224748809E+00  0.11345847119E+03  0.18966253231E+03  0.41800000000E+01 0.  1.
        -11    1    1    2    0    0  0.68348511621E+02 -0.50221459496E+02  0.27108421892E+03  0.28404289779E+03  0.00000000000E+00 0. -1.
         11    1    1    2    0    0  0.10435966983E+03  0.95340606277E+01  0.17079161379E+03  0.20037867736E+03  0.00000000000E+00 0.  1.
</event>
<event>
 7    1  0.2490079E-009  0.1886994E+03  0.7561462E-02  0.1159640E+00
         -2   -1    0    0    0  501 -0.00000000000E+00  0.00000000000E+00  0.40953085018E+02  0.40953085018E+02  0.00000000000E+00 0.  1.
          2   -1    0    0  501    0  0.00000000000E+00 -0.00000000000E+00 -0.11251346708E+04  0.11251346708E+04  0.00000000000E+00 0. -1.
         25    2    1    2    0    0  0.16317552913E+03  0.69119544921E+02 -0.68590996254E+03  0.71939108850E+03  0.12508915500E+03 0.  0.
          5    1    3    3  502    0  0.41570935853E+02 -0.16288985167E+02 -0.33924054305E+03  0.34219160158E+03  0.41800000000E+01 0.  1.
         -5    1    3    3    0  502  0.12160459327E+03  0.85408530088E+02 -0.34666941949E+03  0.37719948691E+03  0.41800000000E+01 0.  1.
        -11    1    1    2    0    0 -0.50791971976E+02 -0.47315935237E+02 -0.68105900301E+02  0.97247291995E+02  0.00000000000E+00 0.  1.
         11    1    1    2    0    0 -0.11238355715E+03 -0.21803609684E+02 -0.33016572296E+03  0.34944937535E+03  0.00000000000E+00 0. -1.
</event>
<event>
 7    1  0.2490079E-009  0.9755320E+02  0.7561462E-02  0.1285527E+00
          2   -1    0    0  501    0  0.00000000000E+00  0.00000000000E+00  0.61842365208E+02  0.61842365208E+02  0.00000000000E+00 0. -1.
         -2   -1    0    0    0  501 -0.00000000000E+00 -0.00000000000E+00 -0.21084904426E+03  0.21084904426E+03  0.00000000000E+00 0.  1.
         25    2    1    2    0    0  0.16482142796E+02  0.16555131884E+02 -0.11514662007E+03  0.17162020119E+03  0.12509602680E+03 0.  0.
          5    1    3    3  502    0 -0.14096388238E+02 -0.36198757398E+02 -0.10182916303E+03  0.10906745179E+03  0.41800000000E+01 0.  1.
         -5    1    3    3    0  502  0.30578531033E+02  0.52753889283E+02 -0.13317457040E+02  0.62552749393E+02  0.41800000000E+01 0.  1.
        -11    1    1    2    0    0  0.45125225182E+01 -0.52820443947E+02 -0.22969614995E+02  0.57775127618E+02  0.00000000000E+00 0.  1.
         11    1    1    2    0    0 -0.20994665314E+02  0.36265312063E+02 -0.10890443993E+02  0.43296080666E+02  0.00000000000E+00 0. -1.
</event>
<event>
 7    1  0.2490079E-009  0.7892271E+02  0.7561462E-02  0.1332137E+00
          1   -1    0    0  501    0  0.00000000000E+00  0.00000000000E+00  0.20863766048E+03  0.20863766048E+03  0.00000000000E+00 0. -1.
         -1   -1    0    0    0  501 -0.00000000000E+00 -0.00000000000E+00 -0.55547823832E+02  0.55547823832E+02  0.00000000000E+00 0.  1.
         25    2    1    2    0    0 -0.30079594323E+02 -0.13296729657E+02  0.10301611183E+03  0.16534992862E+03  0.12508674823E+03 0.  0.
          5    1    3    3  502    0  0.25153956362E+02  0.25011038553E+02 -0.69613858558E+01  0.36389653244E+02  0.41800000000E+01 0.  1.
         -5    1    3    3    0  502 -0.55233550685E+02 -0.38307768210E+02  0.10997749769E+03  0.12896027537E+03  0.41800000000E+01 0.  1.
        -11    1    1    2    0    0  0.41207006087E+02  0.64328493648E+01 -0.52069425712E+01  0.42029884042E+02  0.00000000000E+00 0.  1.
         11    1    1    2    0    0 -0.11127411764E+02  0.68638802921E+01  0.55280667387E+02  0.56805671653E+02  0.00000000000E+00 0. -1.
</event>
<event>
 7    1  0.2490079E-009  0.1779885E+03  0.7561462E-02  0.1169764E+00
         -1   -1    0    0    0  501 -0.00000000000E+00  0.00000000000E+00  0.54330982541E+02  0.54330982541E+02  0.00000000000E+00 0.  1.
          1   -1    0    0  501    0  0.00000000000E+00 -0.00000000000E+00 -0.83070502684E+03  0.83070502684E+03  0.00000000000E+00 0. -1.
         25    2    1    2    0    0  0.10472520650E+03 -0.11841618726E+03 -0.59070988499E+03  0.62415997203E+03  0.12509092766E+03 0.  0.
          5    1    3    3  502    0  0.11004276380E+03 -0.13235805486E+03 -0.58075772392E+03  0.60574340347E+03  0.41800000000E+01 0.  1.
         -5    1    3    3    0  502 -0.53175573038E+01  0.13941867596E+02 -0.99521610673E+01  0.18416568564E+02  0.41800000000E+01 0.  1.
        -11    1    1    2    0    0 -0.13095081935E+02  0.55811973940E+02 -0.18518502285E+02  0.60244439850E+02  0.00000000000E+00 0.  1.
         11    1    1    2    0    0 -0.91630124563E+02  0.62604213319E+02 -0.16714565702E+03  0.20063159750E+03  0.00000000000E+00 0. -1.
</event>
<event>
 7    1  0.2490079E-009  0.1691151E+03  0.7561462E-02  0.1178774E+00
          1   -1    0    0  501    0  0.00000000000E+00  0.00000000000E+00  0.10464325380E+04  0.10464325380E+04  0.00000000000E+00 0. -1.
         -1   -1    0    0    0  501 -0.00000000000E+00 -0.00000000000E+00 -0.44884973161E+02  0.44884973161E+02  0.00000000000E+00 0.  1.
         25    2    1    2    0    0 -0.16382563979E+03  0.39407667489E+02  0.31469233007E+03  0.37824692829E+03  0.12509065372E+03 0.  0.
          5    1    3    3  502    0 -0.36967567244E+02  0.17496057699E+01  0.44330264705E+00  0.37246893367E+02  0.41800000000E+01 0. -1.
         -5    1    3    3    0  502 -0.12685807255E+03  0.37658061719E+02  0.31424902742E+03  0.34100003492E+03  0.41800000000E+01 0. -1.
        -11    1    1    2    0    0  0.13027357965E+03 -0.29015111365E+02  0.64388070306E+03  0.65756782313E+03  0.00000000000E+00 0. -1.
         11    1    1    2    0    0  0.33552060139E+02 -0.10392556124E+02  0.42974531695E+02  0.55502759722E+02  0.00000000000E+00 0.  1.
</event>
<event>
 7    1  0.2490079E-009  0.1334463E+03  0.7561462E-02  0.1222430E+00
          2   -1    0    0  501    0  0.00000000000E+00  0.00000000000E+00  0.74889056607E+03  0.74889056607E+03  0.00000000000E+00 0.  1.
         -2   -1    0    0    0  501 -0.00000000000E+00 -0.00000000000E+00 -0.27149267255E+02  0.27149267255E+02  0.00000000000E+00 0. -1.
         25    2    1    2    0    0  0.77082696874E+02  0.11663549097E+02  0.52453798379E+03  0.54485376184E+03  0.12509094617E+03 0.  0.
          5    1    3    3  502    0  0.11760010850E+02  0.62608606589E+02  0.20386482516E+03  0.21362695245E+03  0.41800000000E+01 0. -1.
         -5    1    3    3    0  502  0.65322686024E+02 -0.50945057492E+02  0.32067315863E+03  0.33122680939E+03  0.41800000000E+01 0. -1.
        -11    1    1    2    0    0 -0.76735792373E+02  0.27070857008E+02  0.12297977624E+03  0.14746266814E+03  0.00000000000E+00 0.  1.
         11    1    1    2    0    0 -0.34690450191E+00 -0.38734406105E+02  0.74223538782E+02  0.83723403349E+02  0.00000000000E+00 0. -1.
</event>
<event>
 7    1  0.2490079E-009  0.2277949E+03  0.7561462E-02  0.1128202E+00
         -2   -1    0    0    0  501 -0.00000000000E+00  0.00000000000E+00  0.23212858086E+03  0.23212858086E+03  0.00000000000E+00 0.  1.
          2   -1    0    0  501    0  0.00000000000E+00 -0.00000000000E+00 -0.24797537818E+03  0.24797537818E+03  0.00000000000E+00 0. -1.
         25    2    1    2    0    0 -0.17170570335E+03  0.11783705844E+03  0.35689946736E+02  0.24554918056E+03  0.12510878016E+03 0.  0.
          5    1    3    3  502    0 -0.16479798992E+03  0.57890517115E+02  0.53090614639E+02  0.18260825616E+03  0.41800000000E+01 0.  1.
         -5    1    3    3    0  502 -0.69077134281E+01  0.59946541324E+02 -0.17400667903E+02  0.62940924405E+02  0.41800000000E+01 0.  1.
        -11    1    1    2    0    0  0.13256638396E+03 -0.12307882047E+03 -0.16292031369E+02  0.18162508773E+03  0.00000000000E+00 0. -1.
         11    1    1    2    0    0  0.39139319388E+02  0.52417620325E+01 -0.35244712687E+02  0.52929690758E+02  0.00000000000E+00 0.  1.
</event>
<event>
 7    1  0.2490079E-009  0.1372726E+03  0.7561462E-02  0.1217047E+00
         -2   -1    0    0    0  501 -0.00000000000E+00  0.00000000000E+00  0.35351244787E+02  0.35351244787E+02  0.00000000000E+00 0. -1.
          2   -1    0    0  501    0  0.00000000000E+00 -0.00000000000E+00 -0.63949797088E+03  0.63949797088E+03  0.00000000000E+00 0.  1.
         25    2    1    2    0    0  0.26671688542E+02 -0.98818872650E+02 -0.28694819541E+03  0.32933822540E+03  0.12509137181E+03 0.  0.
          5    1    3    3  502    0 -0.12013796840E+02  0.14563455770E+02 -0.13212616450E+03  0.13353359616E+03  0.41800000000E+01 0.  1.
         -5    1    3    3    0  502  0.38685485382E+02 -0.11338232842E+03 -0.15482203091E+03  0.19580462924E+03  0.41800000000E+01 0.  1.
        -11    1    1    2    0    0  0.32133188544E+00  0.10710031177E+03 -0.27062569706E+03  0.29104784477E+03  0.00000000000E+00 0.  1.
         11    1    1    2    0    0 -0.26993020427E+02 -0.82814391199E+01 -0.46572833623E+02  0.54463145496E+02  0.00000000000E+00 0. -1.
</event>
<event>
 7    1  0.2490079E-009  0.7678566E+02  0.7561462E-02  0.1338429E+00
         -2   -1    0    0    0  501 -0.00000000000E+00  0.00000000000E+00  0.69598950206E+02  0.69598950206E+02  0.00000000000E+00 0. -1.
          2   -1    0    0  501    0  0.00000000000E+00 -0.00000000000E+00 -0.20618858435E+03  0.20618858435E+03  0.00000000000E+00 0.  1.
         25    2    1    2    0    0  0.38589866435E+02  0.77160547083E+01 -0.39681219326E+02  0.13700295750E+03  0.12508595406E+03 0.  0.
          5    1    3    3  502    0  0.47965937528E+02 -0.36499320647E+02 -0.61871120395E+02  0.86477971238E+02  0.41800000000E+01 0. -1.
         -5    1    3    3    0  502 -0.93760710925E+01  0.44215375355E+02  0.22189901069E+02  0.50524986258E+02  0.41800000000E+01 0. -1.
        -11    1    1    2    0    0 -0.14220113012E+02 -0.16567998578E+02 -0.10828975511E+03  0.11046891533E+03  0.00000000000E+00 0.  1.
         11    1    1    2    0    0 -0.24369753423E+02  0.88519438701E+01  0.11381340300E+02  0.28315661730E+02  0.00000000000E+00 0. -1.
</event>
<event>
 7    1  0.2490079E-009  0.9250116E+02  0.7561462E-02  0.1296905E+00
         -1   -1    0    0    0  501 -0.00000000000E+00  0.00000000000E+00  0.17230661162E+03  0.17230661162E+03  0.00000000000E+00 0.  1.
          1   -1    0    0  501    0  0.00000000000E+00 -0.00000000000E+00 -0.62268950279E+02  0.62268950279E+02  0.00000000000E+00 0. -1.
         25    2    1    2    0    0 -0.14462956387E+02 -0.29332830375E+02  0.36438660544E+02  0.13432999838E+03  0.12508869028E+03 0.  0.
          5    1    3    3  502    0  0.55537136560E+02 -0.13426507270E+02  0.13570972685E+02  0.58875192861E+02  0.41800000000E+01 0.  1.
         -5    1    3    3    0  502 -0.70000092947E+02 -0.15906323104E+02  0.22867687859E+02  0.75454805515E+02  0.41800000000E+01 0.  1.
        -11    1    1    2    0    0  0.15980964823E+02  0.41018947966E+02  0.25821483515E+02  0.51036206166E+02  0.00000000000E+00 0. -1.
         11    1    1    2    0    0 -0.15180084360E+01 -0.11686117591E+02  0.47777517279E+02  0.49209357355E+02  0.00000000000E+00 0.  1.
</event>
<event>
 7    1  0.2991725E-009  0.1566556E+03  0.7561462E-02  0.1192525E+00
         -2   -1    0    0    0  501 -0.00000000000E+00  0.00000000000E+00  0.51734295393E+02  0.51734295393E+02  0.00000000000E+00 0.  1.
          2   -1    0    0  501    0  0.00000000000E+00 -0.00000000000E+00 -0.49952601946E+03  0.49952601946E+03  0.00000000000E+00 0. -1.
         25    2    1    2    0    0 -0.10747478068E+03  0.45014213080E+02 -0.27680933941E+03  0.32534166678E+03  0.12508669752E+03 0.  0.
          5    1    3    3  502    0 -0.11119677239E+03 -0.11312847641E+02 -0.15626673496E+03  0.19217041283E+03  0.41800000000E+01 0. -1.
         -5    1    3    3    0  502  0.37219917059E+01  0.56327060721E+02 -0.12054260445E+03  0.13317125395E+03  0.41800000000E+01 0. -1.
        -11    1    1    2    0    0  0.76933734866E+02  0.14198250707E+02 -0.11392858907E+03  0.13820315948E+03  0.00000000000E+00 0.  1.
         11    1    1    2    0    0  0.30541045818E+02 -0.59212463786E+02 -0.57053795582E+02  0.87715488585E+02  0.00000000000E+00 0. -1.
</event>
<event>
 7    1  0.2490079E-009  0.1311420E+03  0.7561462E-02  0.1225771E+00
         -2   -1    0    0    0  501 -0.00000000000E+00  0.00000000000E+00  0.39137094391E+03  0.39137094391E+03  0.00000000000E+00 0.  1.
          2   -1    0    0  501    0  0.00000000000E+00 -0.00000000000E+00 -0.48644233876E+02  0.48644233876E+02  0.00000000000E+00 0. -1.
         25    2    1    2    0    0  0.83548895645E+02 -0.95838981049E+01  0.20919110782E+03  0.25783704086E+03  0.12508697367E+03 0.  0.
          5    1    3    3  502    0  0.15230799257E+02 -0.62063397404E+02  0.79520856490E+02  0.10210230928E+03  0.41800000000E+01 0.  1.
         -5    1    3    3    0  502  0.68318096388E+02  0.52479499299E+02  0.12967025133E+03  0.15573473158E+03  0.41800000000E+01 0.  1.
        -11    1    1    2    0    0 -0.89476429368E+02 -0.11389504203E+02  0.13259133009E+03  0.16036275451E+03  0.00000000000E+00 0.  1.
         11    1    1    2    0    0  0.59275337234E+01  0.20973402308E+02  0.94427213087E+00  0.21815382423E+02  0.00000000000E+00 0. -1.
</event>
<event>
 7    1  0.2490079E-009  0.8376665E+02  0.7561462E-02  0.1318690E+00
         -1   -1    0    0    0  501 -0.00000000000E+00  0.00000000000E+00  0.82473447534E+02  0.82473447534E+02  0.00000000000E+00 0.  1.
          1   -1    0    0  501    0  0.00000000000E+00 -0.00000000000E+00 -0.19824845311E+03  0.19824845311E+03  0.00000000000E+00 0. -1.
         25    2    1    2    0    0 -0.53488763505E+02  0.44712242518E+02 -0.70179974344E+02  0.15948124006E+03  0.12509518249E+03 0.  0.
          5    1    3    3  502    0 -0.24571779903E+02  0.34218034506E+02 -0.10477190442E+03  0.11300119737E+03  0.41800000000E+01 0. -1.
         -5    1    3    3    0  502 -0.28916983602E+02  0.10494208011E+02  0.34591930071E+02  0.46480042690E+02  0.41800000000E+01 0. -1.
        -11    1    1    2    0    0 -0.14836115729E+01 -0.38841586915E+02  0.12706975238E+02  0.40894219605E+02  0.00000000000E+00 0.  1.
         11    1    1    2    0    0  0.54972375077E+02 -0.58706556024E+01 -0.58302006465E+02  0.80346440971E+02  0.00000000000E+00 0. -1.
</event>
<event>
 7    1  0.2490079E-009  0.1165490E+03  0.7561462E-02  0.1248901E+00
          2   -1    0    0  501    0  0.00000000000E+00  0.00000000000E+00  0.15887458337E+03  0.15887458337E+03  0.00000000000E+00 0. -1.
         -2   -1    0    0    0  501 -0.00000000000E+00 -0.00000000000E+00 -0.13257144081E+03  0.13257144081E+03  0.00000000000E+00 0.  1.
         25    2    1    2    0    0  0.86819096144E+02  0.32828314719E+02 -0.13983542205E+02  0.15639115352E+03  0.12508956688E+03 0.  0.
          5    1    3    3  502    0  0.22886036364E+02  0.39516161535E+02  0.48431167402E+02  0.66695937349E+02  0.41800000000E+01 0. -1.
         -5    1    3    3    0  502  0.63933059780E+02 -0.66878468157E+01 -0.62414709607E+02  0.89695216167E+02  0.41800000000E+01 0. -1.
        -11    1    1    2    0    0 -0.14031406587E+02  0.25795106347E+02  0.28383841415E+02  0.40840057979E+02  0.00000000000E+00 0. -1.
         11    1    1    2    0    0 -0.72787689557E+02 -0.58623421067E+02  0.11902843348E+02  0.94214812681E+02  0.00000000000E+00 0.  1.
</event>
<event>
 7    1  0.2490079E-009  0.1098906E+03  0.7561462E-02  0.1260773E+00
         -2   -1    0    0    0  501 -0.00000000000E+00  0.00000000000E+00  0.56107038791E+02  0.56107038791E+02  0.00000000000E+00 0.  1.
          2   -1    0    0  501    0  0.00000000000E+00 -0.00000000000E+00 -0.25875623861E+03  0.25875623861E+03  0.00000000000E+00 0. -1.
         25    2    1    2    0    0 -0.15709782333E+02 -0.37691181101E+02 -0.14654173994E+03  0.19695061324E+03  0.12509052768E+03 0.  0.
          5    1    3    3  502    0  0.44521609091E+02 -0.35782614942E+02 -0.11576177349E+03  0.12915428685E+03  0.41800000000E+01 0.  1.
         -5    1    3    3    0  502 -0.60231391424E+02 -0.19085661591E+01 -0.30779966444E+02  0.67796326390E+02  0.41800000000E+01 0.  1.
        -11    1    1    2    0    0  0.60815805393E+01 -0.31582918412E+02 -0.27614892740E+02  0.42391610707E+02  0.00000000000E+00 0. -1.
         11    1    1    2    0    0  0.96282017940E+01  0.69274099513E+02 -0.28492567141E+02  0.75521053458E+02  0.00000000000E+00 0.  1.
</event>
<event>
 7    1  0.2490079E-009  0.1395711E+03  0.7561462E-02  0.1213907E+00
          3   -1    0    0  501    0  0.00000000000E+00  0.00000000000E+00  0.11964757847E+04  0.11964757847E+04  0.00000000000E+00 0. -1.
         -3   -1    0    0    0  501 -0.00000000000E+00 -0.00000000000E+00 -0.26067003184E+02  0.26067003184E+02  0.00000000000E+00 0.  1.
         25    2    1    2    0    0  0.89431042033E+02  0.39237195967E+02  0.96021382878E+03  0.97324167381E+03  0.12510511511E+03 0.  0.
          5    1    3    3  502    0  0.10936898593E+03  0.33198068929E+01  0.81319734920E+03  0.82053640830E+03  0.41800000000E+01 0.  1.
         -5    1    3    3    0  502 -0.19937943901E+02  0.35917389074E+02  0.14701647958E+03  0.15270526551E+03  0.41800000000E+01 0.  1.
        -11    1    1    2    0    0  0.15509166170E+02 -0.12857471976E+02  0.11881642615E+02  0.23388506838E+02  0.00000000000E+00 0.  1.
         11    1    1    2    0    0 -0.10494020820E+03 -0.26379723991E+02  0.19831331007E+03  0.22591260719E+03  0.00000000000E+00 0. -1.
</event>
<event>
 7    1  0.2490079E-009  0.9793825E+02  0.7561462E-02  0.1284692E+00
          3   -1    0    0  501    0  0.00000000000E+00  0.00000000000E+00  0.77726017468E+02  0.77726017468E+02  0.00000000000E+00 0. -1.
         -3   -1    0    0    0  501 -0.00000000000E+00 -0.00000000000E+00 -0.16508255011E+03  0.16508255011E+03  0.00000000000E+00 0.  1.
         25    2    1    2    0    0 -0.17275948758E+02 -0.11567768515E+02 -0.28722826482E+02  0.13002257142E+03  0.12509435097E+03 0.  0.
          5    1    3    3  502    0 -0.53637739196E+02  0.36613914308E+02 -0.58624007699E+01  0.65340844269E+02  0.41800000000E+01 0.  1.
         -5    1    3    3    0  502  0.36361790439E+02 -0.48181682823E+02 -0.22860425712E+02  0.64681727151E+02  0.41800000000E+01 0.  1.
        -11    1    1    2    0    0 -0.25292694932E+01 -0.26903440001E+02 -0.63725094029E+02  0.69217627069E+02  0.00000000000E+00 0.  1.
         11    1    1    2    0    0  0.19805218251E+02  0.38471208515E+02  0.50913878692E+01  0.43568369089E+02  0.00000000000E+00 0. -1.
</event>
<event>
 7    1  0.2490079E-009  0.6805026E+02  0.7561462E-02  0.1366852E+00
          2   -1    0    0  501    0  0.00000000000E+00  0.00000000000E+00  0.10538671036E+03  0.10538671036E+03  0.00000000000E+00 0. -1.
         -2   -1    0    0    0  501 -0.00000000000E+00 -0.00000000000E+00 -0.14019163194E+03  0.14019163194E+03  0.00000000000E+00 0.  1.
         25    2    1    2    0    0  0.43602712459E+02  0.74503659074E+01  0.10500595057E+02  0.13309912747E+03  0.12509360796E+03 0.  0.
          5    1    3    3  502    0 -0.19695387424E+02 -0.74814169639E+01  0.51709896646E+02  0.55993443337E+02  0.41800000000E+01 0.  1.
         -5    1    3    3    0  502  0.63298099883E+02  0.14931782871E+02 -0.41209301589E+02  0.77105684135E+02  0.41800000000E+01 0.  1.
        -11    1    1    2    0    0 -0.18479490778E+02  0.78043451851E+01  0.27457221217E+02  0.34004387660E+02  0.00000000000E+00 0. -1.
         11    1    1    2    0    0 -0.25123221681E+02 -0.15254711093E+02 -0.72762737859E+02  0.78474827167E+02  0.00000000000E+00 0.  1.
</event>
<event>
 7    1  0.2490079E-009  0.2119127E+03  0.7561462E-02  0.1140060E+00
          2   -1    0    0  501    0  0.00000000000E+00  0.00000000000E+00  0.36999747850E+03  0.36999747850E+03  0.00000000000E+00 0. -1.
         -2   -1    0    0    0  501 -0.00000000000E+00 -0.00000000000E+00 -0.14017613022E+03  0.14017613022E+03  0.00000000000E+00 0.  1.
         25    2    1    2    0    0 -0.16735450894E+03  0.10270843687E+03  0.14186636875E+03  0.27263443398E+03  0.12508762266E+03 0.  0.
          5    1    3    3  502    0 -0.75334184562E+02  0.15525390704E+02  0.12196150532E+03  0.14425102530E+03  0.41800000000E+01 0.  1.
         -5    1    3    3    0  502 -0.92020324375E+02  0.87183046167E+02  0.19904863434E+02  0.12838340868E+03  0.41800000000E+01 0.  1.
        -11    1    1    2    0    0  0.10030491173E+03 -0.36811447446E+01  0.30797897266E+02  0.10499112638E+03  0.00000000000E+00 0. -1.
         11    1    1    2    0    0  0.67049597212E+02 -0.99027292126E+02  0.57157082262E+02  0.13254804836E+03  0.00000000000E+00 0.  1.
</event>
<event>
 7    1  0.2490079E-009  0.9831934E+02  0.7561462E-02  0.1283870E+00
          1   -1    0    0  501    0  0.00000000000E+00  0.00000000000E+00  0.17082216493E+03  0.17082216493E+03  0.00000000000E+00 0. -1.
         -1   -1    0    0    0  501 -0.00000000000E+00 -0.00000000000E+00 -0.88403715803E+02  0.88403715803E+02  0.00000000000E+00 0.  1.
         25    2    1    2    0    0 -0.11325134397E+02  0.57461585987E+02  0.49899270099E+02  0.14685277576E+03  0.12508280481E+03 0.  0.
          5    1    3    3  502    0  0.56911577118E+02  0.29078234576E+02  0.21253702946E+02  0.67480838947E+02  0.41800000000E+01 0.  1.
         -5    1    3    3    0  502 -0.68236711515E+02  0.28383351412E+02  0.28645567153E+02  0.79371936812E+02  0.41800000000E+01 0.  1.
        -11    1    1    2    0    0  0.89446909452E+01 -0.46532679931E+02 -0.25138913894E+02  0.53640122944E+02  0.00000000000E+00 0.  1.
         11    1    1    2    0    0  0.23804434518E+01 -0.10928906057E+02  0.57658092922E+02  0.58732982029E+02  0.00000000000E+00 0. -1.
</event>
<event>
 7    1  0.2490079E-009  0.7087898E+02  0.7561462E-02  0.1357129E+00
          4   -1    0    0  501    0  0.00000000000E+00  0.00000000000E+00  0.14907677447E+03  0.14907677447E+03  0.00000000000E+00 0.  1.
         -4   -1    0    0    0  501 -0.00000000000E+00 -0.00000000000E+00 -0.97983799291E+02  0.97983799291E+02  0.00000000000E+00 0. -1.
         25    2    1    2    0    0 -0.50719104196E+02 -0.14327937727E+01  0.46085213492E+02  0.14263808339E+03  0.12508915022E+03 0.  0.
          5    1    3    3  502    0  0.15163657628E+02 -0.15044879170E+01 -0.34808113940E+02  0.38226655525E+02  0.41800000000E+01 0. -1.
         -5    1    3    3    0  502 -0.65882761824E+02  0.71694144280E-01  0.80893327432E+02  0.10441142786E+03  0.41800000000E+01 0. -1.
        -11    1    1    2    0    0  0.42459437583E+02  0.14169384016E+02 -0.38061744067E+02  0.58756034964E+02  0.00000000000E+00 0. -1.
         11    1    1    2    0    0  0.82596666128E+01 -0.12736590243E+02  0.43069505753E+02  0.45666455406E+02  0.00000000000E+00 0.  1.
</event>
<event>
 7    1  0.2490079E-009  0.1228748E+03  0.7561462E-02  0.1238429E+00
          2   -1    0    0  501    0  0.00000000000E+00  0.00000000000E+00  0.18387853978E+03  0.18387853978E+03  0.00000000000E+00 0. -1.
         -2   -1    0    0    0  501 -0.00000000000E+00 -0.00000000000E+00 -0.94310692960E+02  0.94310692960E+02  0.00000000000E+00 0.  1.
         25    2    1    2    0    0 -0.27952543852E+02  0.57910743695E+02  0.96744911238E+01  0.14098489017E+03  0.12509254388E+03 0.  0.
          5    1    3    3  502    0 -0.23438652316E+02  0.94894764918E+02 -0.10520062622E+02  0.98399852382E+02  0.41800000000E+01 0. -1.
         -5    1    3    3    0  502 -0.45138915354E+01 -0.36984021222E+02  0.20194553745E+02  0.42585037790E+02  0.41800000000E+01 0. -1.
        -11    1    1    2    0    0  0.58148798081E+02 -0.19011963030E+02  0.34524983068E+02  0.70247504670E+02  0.00000000000E+00 0.  1.
         11    1    1    2    0    0 -0.30196254229E+02 -0.38898780665E+02  0.45368372632E+02  0.66956837903E+02  0.00000000000E+00 0. -1.
</event>
<event>
 7    1  0.2490079E-009  0.1392707E+03  0.7561462E-02  0.1214314E+00
         -2   -1    0    0    0  501 -0.00000000000E+00  0.00000000000E+00  0.10305593626E+04  0.10305593626E+04  0.00000000000E+00 0. -1.
          2   -1    0    0  501    0  0.00000000000E+00 -0.00000000000E+00 -0.20407818002E+02  0.20407818002E+02  0.00000000000E+00 0.  1.
         25    2    1    2    0    0 -0.63924084815E+02  0.69580616054E+02  0.61593368933E+03  0.63557139169E+03  0.12509569748E+03 0.  0.
          5    1    3    3  502    0  0.13872526825E+02  0.76855909261E+02  0.32793417236E+03  0.33713138625E+03  0.41800000000E+01 0. -1.
         -5    1    3    3    0  502 -0.77796611640E+02 -0.72752932063E+01  0.28799951697E+03  0.29844000544E+03  0.41800000000E+01 0. -1.
        -11    1    1    2    0    0  0.77505362949E+02 -0.35211641084E+02  0.19489094417E+03  0.21267209754E+03  0.00000000000E+00 0.  1.
         11    1    1    2    0    0 -0.13581278134E+02 -0.34368974971E+02  0.19932691113E+03  0.20272369140E+03  0.00000000000E+00 0. -1.
</event>
<event>
 7    1  0.2490079E-009  0.1057852E+03  0.7561462E-02  0.1268580E+00
         -1   -1    0    0    0  501 -0.00000000000E+00  0.00000000000E+00  0.28055569223E+03  0.28055569223E+03  0.00000000000E+00 0.  1.
          1   -1    0    0  501    0  0.00000000000E+00 -0.00000000000E+00 -0.86372980681E+02  0.86372980681E+02  0.00000000000E+00 0. -1.
         25    2    1    2    0    0  0.60772868520E+02 -0.11766623772E+02  0.21396473200E+03  0.25545434719E+03  0.12507686427E+03 0.  0.
          5    1    3    3  502    0  0.91125118022E+01  0.35292492922E+02  0.75047761373E+01  0.37448524575E+02  0.41800000000E+01 0.  1.
         -5    1    3    3    0  502  0.51660356718E+02 -0.47059116694E+02  0.20645995586E+03  0.21800582262E+03  0.41800000000E+01 0.  1.
        -11    1    1    2    0    0 -0.35992268874E+02 -0.36098667830E+02  0.67105648933E+01  0.51415843074E+02  0.00000000000E+00 0.  1.
         11    1    1    2    0    0 -0.24780599646E+02  0.47865291602E+02 -0.26492585347E+02  0.60058482642E+02  0.00000000000E+00 0. -1.
</event>
<event>
 7    1  0.2490079E-009  0.1029752E+03  0.7561462E-02  0.1274161E+00
          1   -1    0    0  501    0  0.00000000000E+00  0.00000000000E+00  0.27719825636E+02  0.27719825636E+02  0.00000000000E+00 0. -1.
         -1   -1    0    0    0  501 -0.00000000000E+00 -0.00000000000E+00 -0.48717638950E+03  0.48717638950E+03  0.00000000000E+00 0.  1.
         25    2    1    2    0    0  0.22395837686E+02  0.36592109875E+02 -0.26496956259E+03  0.29613468267E+03  0.12508527144E+03 0.  0.
          5    1    3    3  502    0  0.12086774251E+02 -0.33494348706E+02 -0.19916530106E+02  0.41013437779E+02  0.41800000000E+01 0.  1.
         -5    1    3    3    0  502  0.10309063436E+02  0.70086458582E+02 -0.24505303249E+03  0.25512124489E+03  0.41800000000E+01 0.  1.
        -11    1    1    2    0    0 -0.43708142075E+02 -0.55498853525E+02 -0.15190006981E+03  0.16752359724E+03  0.00000000000E+00 0. -1.
         11    1    1    2    0    0  0.21312304389E+02  0.18906743650E+02 -0.42586931464E+02  0.51237935217E+02  0.00000000000E+00 0.  1.
</event>
<event>
 7    1  0.2490079E-009  0.1028586E+03  0.7561462E-02  0.1274397E+00
         -2   -1    0    0    0  501 -0.00000000000E+00  0.00000000000E+00  0.75375356156E+02  0.75375356156E+02  0.00000000000E+00 0.  1.
          2   -1    0    0  501    0  0.00000000000E+00 -0.00000000000E+00 -0.15986547510E+03  0.15986547510E+03  0.00000000000E+00 0. -1.
         25    2    1    2    0    0  0.61747980897E+01 -0.14954388847E+02 -0.45695011678E+02  0.13415134473E+03  0.12508711893E+03 0.  0.
          5    1    3    3  502    0  0.28054359170E+02  0.48905776976E+02 -0.91361059920E+01  0.57269214442E+02  0.41800000000E+01 0. -1.
         -5    1    3    3    0  502 -0.21879561080E+02 -0.63860165823E+02 -0.36558905686E+02  0.76882130284E+02  0.41800000000E+01 0. -1.
        -11    1    1    2    0    0  0.27968302077E+02  0.32732154018E+02  0.43444764856E+01  0.43272327227E+02  0.00000000000E+00 0.  1.
         11    1    1    2    0    0 -0.34143100167E+02 -0.17777765171E+02 -0.43139583746E+02  0.57817159298E+02  0.00000000000E+00 0. -1.
</event>
<event>
 7    1  0.2490079E-009  0.8364029E+02  0.7561462E-02  0.1319027E+00
          2   -1    0    0  501    0  0.00000000000E+00  0.00000000000E+00  0.50850069944E+02  0.50850069944E+02  0.00000000000E+00 0. -1.
         -2   -1    0    0    0  501 -0.00000000000E+00 -0.00000000000E+00 -0.26885492318E+03  0.26885492318E+03  0.00000000000E+00 0.  1.
         25    2    1    2    0    0 -0.10121414321E+02 -0.21364254590E+02 -0.72949218172E+02  0.14672354519E+03  0.12508931161E+03 0.  0.
          5    1    3    3  502    0 -0.14396950765E+02 -0.48875938539E+02 -0.97031116984E+02  0.10967515499E+03  0.41800000000E+01 0.  1.
         -5    1    3    3    0  502  0.42755364437E+01  0.27511683949E+02  0.24081898812E+02  0.37048390195E+02  0.41800000000E+01 0.  1.
        -11    1    1    2    0    0  0.27830254321E+02 -0.25598364703E+02 -0.94308908336E+02  0.10160693639E+03  0.00000000000E+00 0.  1.
         11    1    1    2    0    0 -0.17708840000E+02  0.46962619293E+02 -0.50746726729E+02  0.71374511548E+02  0.00000000000E+00 0. -1.
</event>
<event>
 7    1  0.2490079E-009  0.7388650E+02  0.7561462E-02  0.1347354E+00
         -2   -1    0    0    0  501 -0.00000000000E+00  0.00000000000E+00  0.24327243849E+02  0.24327243849E+02  0.00000000000E+00 0.  1.
          2   -1    0    0  501    0  0.00000000000E+00 -0.00000000000E+00 -0.49459015624E+03  0.49459015624E+03  0.00000000000E+00 0. -1.
         25    2    1    2    0    0 -0.90836592293E+01  0.16413026020E+02 -0.25394693778E+03  0.28370461954E+03  0.12508942263E+03 0.  0.
          5    1    3    3  502    0  0.37772990853E+02  0.58339004201E+01 -0.22326823535E+03  0.22655465245E+03  0.41800000000E+01 0. -1.
         -5    1    3    3    0  502 -0.46856650082E+02  0.10579125600E+02 -0.30678702426E+02  0.57149967086E+02  0.41800000000E+01 0. -1.
        -11    1    1    2    0    0  0.13266496727E+02  0.20248402761E+02 -0.10968533825E+02  0.26576427225E+02  0.00000000000E+00 0.  1.
         11    1    1    2    0    0 -0.41828374981E+01 -0.36661428780E+02 -0.20534744079E+03  0.20863635332E+03  0.00000000000E+00 0. -1.
</event>
<event>
 7    1  0.2490079E-009  0.9445764E+02  0.7561462E-02  0.1292402E+00
         -1   -1    0    0    0  501 -0.00000000000E+00  0.00000000000E+00  0.30329745511E+03  0.30329745511E+03  0.00000000000E+00 0.  1.
          1   -1    0    0  501    0  0.00000000000E+00 -0.00000000000E+00 -0.44834088838E+02  0.44834088838E+02  0.00000000000E+00 0. -1.
         25    2    1    2    0    0 -0.27399444278E+01 -0.29129304857E+02  0.18977427542E+03  0.22916425748E+03  0.12508380231E+03 0.  0.
          5    1    3    3  502    0 -0.42456189408E+02  0.31456690412E+02  0.56873864799E+02  0.77744197777E+02  0.41800000000E+01 0. -1.
         -5    1    3    3    0  502  0.39716244980E+02 -0.60585995270E+02  0.13290041062E+03  0.15142005970E+03  0.41800000000E+01 0. -1.
        -11    1    1    2    0    0  0.96536975596E+00  0.46186808413E+02 -0.19876626161E+01  0.46239636816E+02  0.00000000000E+00 0. -1.
         11    1    1    2    0    0  0.17745746719E+01 -0.17057503556E+02  0.70676753467E+02  0.72727649649E+02  0.00000000000E+00 0.  1.
</event>
<event>
 7    1  0.2490079E-009  0.1111038E+03  0.7561462E-02  0.1258539E+00
         -1   -1    0    0    0  501 -0.00000000000E+00  0.00000000000E+00  0.54830101299E+03  0.54830101299E+03  0.00000000000E+00 0.  1.
          1   -1    0    0  501    0  0.00000000000E+00 -0.00000000000E+00 -0.25003272872E+02  0.25003272872E+02  0.00000000000E+00 0. -1.
         25    2    1    2    0    0 -0.49219800887E+01 -0.45864827102E+02  0.32008852645E+03  0.34674483632E+03  0.12509000158E+03 0.  0.
          5    1    3    3  502    0  0.14471689794E+02 -0.85109589333E+02  0.17570322876E+03  0.19581156503E+03  0.41800000000E+01 0. -1.
         -5    1    3    3    0  502 -0.19393669883E+02  0.39244762230E+02  0.14438529768E+03  0.15093327129E+03  0.41800000000E+01 0. -1.
        -11    1    1    2    0    0 -0.26289018091E+02  0.53552409438E+02  0.83578763574E+02  0.10268584493E+03  0.00000000000E+00 0. -1.
         11    1    1    2    0    0  0.31210998180E+02 -0.76875823361E+01  0.11963045010E+03  0.12387360462E+03  0.00000000000E+00 0.  1.
</event>
<event>
 7    1  0.2490079E-009  0.1375523E+03  0.7561462E-02  0.1216661E+00
          1   -1    0    0  501    0  0.00000000000E+00  0.00000000000E+00  0.30294131020E+03  0.30294131020E+03  0.00000000000E+00 0. -1.
         -1   -1    0    0    0  501 -0.00000000000E+00 -0.00000000000E+00 -0.95203081877E+02  0.95203081877E+02  0.00000000000E+00 0.  1.
         25    2    1    2    0    0  0.96198482398E+02  0.32475541345E+02  0.20489930880E+03  0.26065302959E+03  0.12508983286E+03 0.  0.
          5    1    3    3  502    0  0.12571480590E+03  0.34221327500E+02  0.17670036467E+03  0.21958097129E+03  0.41800000000E+01 0. -1.
         -5    1    3    3    0  502 -0.29516323505E+02 -0.17457861554E+01  0.28198944127E+02  0.41072058293E+02  0.41800000000E+01 0. -1.
        -11    1    1    2    0    0  0.54881349547E+00 -0.16881465574E+02  0.31196000520E+02  0.35474998585E+02  0.00000000000E+00 0. -1.
         11    1    1    2    0    0 -0.96747295893E+02 -0.15594075771E+02 -0.28357080996E+02  0.10201636391E+03  0.00000000000E+00 0.  1.
</event>
<event>
 7    1  0.2490079E-009  0.1281292E+03  0.7561462E-02  0.1230258E+00
         -1   -1    0    0    0  501 -0.00000000000E+00  0.00000000000E+00  0.25245391253E+02  0.25245391253E+02  0.00000000000E+00 0.  1.
          1   -1    0    0  501    0  0.00000000000E+00 -0.00000000000E+00 -0.10596069221E+04  0.10596069221E+04  0.00000000000E+00 0. -1.
         25    2    1    2    0    0 -0.84830646233E+02  0.45026136243E+02 -0.80404264254E+03  0.81936278067E+03  0.12508878382E+03 0.  0.
          5    1    3    3  502    0 -0.13204060728E+02 -0.35736500043E+02 -0.37400419327E+03  0.37596283545E+03  0.41800000000E+01 0. -1.
         -5    1    3    3    0  502 -0.71626585505E+02  0.80762636286E+02 -0.43003844927E+03  0.44339994522E+03  0.41800000000E+01 0. -1.
        -11    1    1    2    0    0  0.22873425761E+02 -0.42056022095E+02 -0.31718486593E+02  0.57427911265E+02  0.00000000000E+00 0.  1.
         11    1    1    2    0    0  0.61957220472E+02 -0.29701141480E+01 -0.19860040170E+03  0.20806162141E+03  0.00000000000E+00 0. -1.
</event>
<event>
 7    1  0.5249133E-009  0.1750887E+03  0.7561462E-02  0.1172643E+00
         -2   -1    0    0    0  501 -0.00000000000E+00  0.00000000000E+00  0.21113146257E+02  0.21113146257E+02  0.00000000000E+00 0.  1.
          2   -1    0    0  501    0  0.00000000000E+00 -0.00000000000E+00 -0.15391842027E+04  0.15391842027E+04  0.00000000000E+00 0. -1.
         25    2    1    2    0    0  0.17403330149E+00 -0.14312113866E+03 -0.85083891653E+03  0.87181169515E+03  0.12508029137E+03 0.  0.
          5    1    3    3  502    0  0.51158940459E+02 -0.38284009613E+02 -0.44349094839E+03  0.44808994219E+03  0.41800000000E+01 0. -1.
         -5    1    3    3    0  502 -0.50984907158E+02 -0.10483712905E+03 -0.40734796814E+03  0.42372175296E+03  0.41800000000E+01 0. -1.
        -11    1    1    2    0    0 -0.44210899422E+02  0.51765778061E+02 -0.24968526851E+03  0.25879921313E+03  0.00000000000E+00 0.  1.
         11    1    1    2    0    0  0.44036866121E+02  0.91355360602E+02 -0.41754687140E+03  0.42968644068E+03  0.00000000000E+00 0. -1.
</event>
<event>
 7    1  0.2490079E-009  0.1125923E+03  0.7561462E-02  0.1255843E+00
          1   -1    0    0  501    0  0.00000000000E+00  0.00000000000E+00  0.40659577129E+03  0.40659577129E+03  0.00000000000E+00 0. -1.
         -1   -1    0    0    0  501 -0.00000000000E+00 -0.00000000000E+00 -0.31998915219E+02  0.31998915219E+02  0.00000000000E+00 0.  1.
         25    2    1    2    0    0  0.34707779977E+02 -0.73141592427E+00  0.20621237089E+03  0.24367455200E+03  0.12509428613E+03 0.  0.
          5    1    3    3  502    0 -0.77060176578E+01  0.55686573159E+02  0.11672410068E+03  0.12962393767E+03  0.41800000000E+01 0.  1.
         -5    1    3    3    0  502  0.42413797635E+02 -0.56417989083E+02  0.89488270213E+02  0.11405061432E+03  0.41800000000E+01 0.  1.
        -11    1    1    2    0    0 -0.55127938596E+02  0.29734108616E+02  0.11125619142E+03  0.12767594510E+03  0.00000000000E+00 0. -1.
         11    1    1    2    0    0  0.20420158619E+02 -0.29002692692E+02  0.57128293766E+02  0.67244189415E+02  0.00000000000E+00 0.  1.
</event>
<event>
 7    1  0.2490079E-009  0.1097100E+03  0.7561462E-02  0.1261108E+00
         -2   -1    0    0    0  501 -0.00000000000E+00  0.00000000000E+00  0.16754566625E+02  0.16754566625E+02  0.00000000000E+00 0.  1.
          2   -1    0    0  501    0  0.00000000000E+00 -0.00000000000E+00 -0.12990694530E+04  0.12990694530E+04  0.00000000000E+00 0. -1.
         25    2    1    2    0    0  0.67673567707E+02 -0.15379643786E+02 -0.10111455686E+04  0.10212147346E+04  0.12509167843E+03 0.  0.
          5    1    3    3  502    0  0.91840280956E+02 -0.51194841697E+01 -0.44403749576E+03  0.45348386561E+03  0.41800000000E+01 0. -1.
         -5    1    3    3    0  502 -0.24166713249E+02 -0.10260159617E+02 -0.56710807283E+03  0.56773086896E+03  0.41800000000E+01 0. -1.
        -11    1    1    2    0    0 -0.53320363133E+02 -0.24273968048E+02 -0.81889617261E+02  0.10068860941E+03  0.00000000000E+00 0.  1.
         11    1    1    2    0    0 -0.14353204574E+02  0.39653611834E+02 -0.18927970054E+03  0.19392067567E+03  0.00000000000E+00 0. -1.
</event>
<event>
 7    1  0.2490079E-009  0.1449934E+03  0.7561462E-02  0.1206764E+00
         -2   -1    0    0    0  501 -0.00000000000E+00  0.00000000000E+00  0.10447976833E+03  0.10447976833E+03  0.00000000000E+00 0.  1.
          2   -1    0    0  501    0  0.00000000000E+00 -0.00000000000E+00 -0.37080735401E+03  0.37080735401E+03  0.00000000000E+00 0. -1.
         25    2    1    2    0    0  0.68906571460E+02  0.10524304922E+03 -0.26558874904E+03  0.31938892559E+03  0.12509071578E+03 0.  0.
          5    1    3    3  502    0  0.68602782579E+02  0.11628161458E+03 -0.14478647995E+03  0.19801099173E+03  0.41800000000E+01 0. -1.
         -5    1    3    3    0  502  0.30378888078E+00 -0.11038565361E+02 -0.12080226908E+03  0.12137793386E+03  0.41800000000E+01 0. -1.
        -11    1    1    2    0    0 -0.66078662411E+02 -0.38853754127E+02  0.30464790467E+02  0.82487012881E+02  0.00000000000E+00 0.  1.
         11    1    1    2    0    0 -0.28279090488E+01 -0.66389295094E+02 -0.31203627112E+02  0.73411183873E+02  0.00000000000E+00 0. -1.
</event>
<event>
 7    1  0.2490079E-009  0.2219120E+03  0.7561462E-02  0.1132466E+00
          2   -1    0    0  501    0  0.00000000000E+00  0.00000000000E+00  0.62245594391E+03  0.62245594391E+03  0.00000000000E+00 0. -1.
         -2   -1    0    0    0  501 -0.00000000000E+00 -0.00000000000E+00 -0.81950452172E+02  0.81950452172E+02  0.00000000000E+00 0.  1.
         25    2    1    2    0    0 -0.19884513965E+03 -0.57655252991E+01  0.26950173433E+03  0.35756394898E+03  0.12509261352E+03 0.  0.
          5    1    3    3  502    0 -0.19912117434E+03  0.25650619098E+02  0.21268956337E+03  0.29250900687E+03  0.41800000000E+01 0.  1.
         -5    1    3    3    0  502  0.27603469245E+00 -0.31416144397E+02  0.56812170963E+02  0.65054942114E+02  0.41800000000E+01 0.  1.
        -11    1    1    2    0    0  0.14037959128E+03 -0.28936715235E+02  0.14631068649E+03  0.20481840767E+03  0.00000000000E+00 0. -1.
         11    1    1    2    0    0  0.58465548367E+02  0.34702240534E+02  0.12469307091E+03  0.14202403944E+03  0.00000000000E+00 0.  1.
</event>
<event>
 7    1  0.2490079E-009  0.1363604E+03  0.7561462E-02  0.1218312E+00
          1   -1    0    0  501    0  0.00000000000E+00  0.00000000000E+00  0.11178845075E+04  0.11178845075E+04  0.00000000000E+00 0. -1.
         -1   -1    0    0    0  501 -0.00000000000E+00 -0.00000000000E+00 -0.51049037963E+02  0.51049037963E+02  0.00000000000E+00 0.  1.
         25    2    1    2    0    0  0.30027362374E+02 -0.77380685895E+02  0.10262760381E+04  0.10371981140E+04  0.12509199923E+03 0.  0.
          5    1    3    3  502    0 -0.25157168078E+02  0.22433501657E+02  0.31468853967E+03  0.31651618363E+03  0.41800000000E+01 0. -1.
         -5    1    3    3    0  502  0.55184530452E+02 -0.99814187553E+02  0.71158749839E+03  0.72068193033E+03  0.41800000000E+01 0. -1.
        -11    1    1    2    0    0 -0.38446931549E+01 -0.21754346858E+02  0.12707857643E+02  0.25485739513E+02  0.00000000000E+00 0. -1.
         11    1    1    2    0    0 -0.26182669219E+02  0.99135032753E+02  0.27851573860E+02  0.10624969201E+03  0.00000000000E+00 0.  1.
</event>
<event>
 7    1  0.2490079E-009  0.1071410E+03  0.7561462E-02  0.1265958E+00
          2   -1    0    0  501    0  0.00000000000E+00  0.00000000000E+00  0.49032416775E+03  0.49032416775E+03  0.00000000000E+00 0. -1.
         -2   -1    0    0    0  501 -0.00000000000E+00 -0.00000000000E+00 -0.32928822336E+02  0.32928822336E+02  0.00000000000E+00 0.  1.
         25    2    1    2    0    0 -0.14687420939E+02 -0.58930129539E+02  0.30575804223E+03  0.33588815933E+03  0.12507755467E+03 0.  0.
          5    1    3    3  502    0  0.40673716369E+02 -0.46044170094E+02  0.69512445236E+02  0.92864790128E+02  0.41800000000E+01 0. -1.
         -5    1    3    3    0  502 -0.55361137308E+02 -0.12885959445E+02  0.23624559700E+03  0.24302336920E+03  0.41800000000E+01 0. -1.
        -11    1    1    2    0    0  0.25227016503E+02 -0.91371071879E+01  0.93364058533E+02  0.97142866517E+02  0.00000000000E+00 0. -1.
         11    1    1    2    0    0 -0.10539595564E+02  0.68067236727E+02  0.58273244650E+02  0.90221964246E+02  0.00000000000E+00 0.  1.
</event>
<event>
 7    1  0.2490079E-009  0.1979962E+03  0.7561462E-02  0.1151441E+00
         -2   -1    0    0    0  501 -0.00000000000E+00  0.00000000000E+00  0.70233264232E+02  0.70233264232E+02  0.00000000000E+00 0.  1.
          2   -1    0    0  501    0  0.00000000000E+00 -0.00000000000E+00 -0.57354161351E+03  0.57354161351E+03  0.00000000000E+00 0. -1.
         25    2    1    2    0    0  0.16334144747E+03 -0.41410705262E+02 -0.26216161604E+03  0.33581492316E+03  0.12509066601E+03 0.  0.
          5    1    3    3  502    0  0.12004633487E+03 -0.85876359384E+02 -0.18516009883E+03  0.23682822091E+03  0.41800000000E+01 0.  1.
         -5    1    3    3    0  502  0.43295112596E+02  0.44465654123E+02 -0.77001517204E+02  0.98986702253E+02  0.41800000000E+01 0.  1.
        -11    1    1    2    0    0 -0.27981044440E+02 -0.23005583644E+02 -0.80276444518E+02  0.88071012662E+02  0.00000000000E+00 0. -1.
         11    1    1    2    0    0 -0.13536040303E+03  0.64416288905E+02 -0.16087028872E+03  0.21988894192E+03  0.00000000000E+00 0.  1.
</event>
<event>
 7    1  0.2490079E-009  0.7564800E+02  0.7561462E-02  0.1341876E+00
          1   -1    0    0  501    0  0.00000000000E+00  0.00000000000E+00  0.24897177844E+03  0.24897177844E+03  0.00000000000E+00 0.  1.
         -1   -1    0    0    0  501 -0.00000000000E+00 -0.00000000000E+00 -0.49394021556E+02  0.49394021556E+02  0.00000000000E+00 0. -1.
         25    2    1    2    0    0  0.11985659018E+02 -0.13277706501E+02  0.15685668282E+03  0.20142607221E+03  0.12509392514E+03 0.  0.
          5    1    3    3  502    0  0.14927425090E+02  0.25593196083E+02  0.15935612986E+03  0.16214095173E+03  0.41800000000E+01 0. -1.
         -5    1    3    3    0  502 -0.29417660722E+01 -0.38870902584E+02 -0.24994470378E+01  0.39285120476E+02  0.41800000000E+01 0. -1.
        -11    1    1    2    0    0  0.34142129171E+02  0.11427665558E+02  0.31591325312E+01  0.36142172635E+02  0.00000000000E+00 0.  1.
         11    1    1    2    0    0 -0.46127788190E+02  0.18500409429E+01  0.39561941539E+02  0.60797555157E+02  0.00000000000E+00 0. -1.
</event>
<event>
 7    1  0.2490079E-009  0.1265487E+03  0.7561462E-02  0.1232669E+00
          2   -1    0    0  501    0  0.00000000000E+00  0.00000000000E+00  0.19945922761E+03  0.19945922761E+03  0.00000000000E+00 0. -1.
         -2   -1    0    0    0  501 -0.00000000000E+00 -0.00000000000E+00 -0.10179025348E+03  0.10179025348E+03  0.00000000000E+00 0.  1.
         25    2    1    2    0    0  0.20524087443E+02 -0.87456654188E+02  0.69886141045E+02  0.16911839662E+03  0.12508818825E+03 0.  0.
          5    1    3    3  502    0  0.59089092877E+02 -0.59923006855E+02  0.84523408743E+02  0.11934809036E+03  0.41800000000E+01 0.  1.
         -5    1    3    3    0  502 -0.38565005434E+02 -0.27533647333E+02 -0.14637267698E+02  0.49770306260E+02  0.41800000000E+01 0.  1.
        -11    1    1    2    0    0  0.28327025802E+02  0.57135176430E+02  0.37259901087E+02  0.73858980534E+02  0.00000000000E+00 0. -1.
         11    1    1    2    0    0 -0.48851113245E+02  0.30321477758E+02 -0.94770680008E+01  0.58272103932E+02  0.00000000000E+00 0.  1.
</event>
<event>
 7    1  0.2490079E-009  0.1085124E+03  0.7561462E-02  0.1263350E+00
         -2   -1    0    0    0  501 -0.00000000000E+00  0.00000000000E+00  0.10954308778E+03  0.10954308778E+03  0.00000000000E+00 0.  1.
          2   -1    0    0  501    0  0.00000000000E+00 -0.00000000000E+00 -0.13890847276E+03  0.13890847276E+03  0.00000000000E+00 0. -1.
         25    2    1    2    0    0  0.48045918296E+02 -0.30744090755E+02 -0.30967147041E+02  0.14092536005E+03  0.12508950207E+03 0.  0.
          5    1    3    3  502    0 -0.22842517455E+02 -0.44940076949E+02 -0.44360161514E+02  0.67280661779E+02  0.41800000000E+01 0. -1.
         -5    1    3    3    0  502  0.70888435750E+02  0.14195986194E+02  0.13393014474E+02  0.73644698274E+02  0.41800000000E+01 0. -1.
        -11    1    1    2    0    0 -0.34920580491E+02 -0.20926936317E+02  0.26613982085E+02  0.48638335167E+02  0.00000000000E+00 0.  1.
         11    1    1    2    0    0 -0.13125337805E+02  0.51671027072E+02 -0.25012220021E+02  0.58887865316E+02  0.00000000000E+00 0. -1.
</event>
<event>
 7    1  0.2490079E-009  0.1107601E+03  0.7561462E-02  0.1259169E+00
         -2   -1    0    0    0  501 -0.00000000000E+00  0.00000000000E+00  0.21956395552E+02  0.21956395552E+02  0.00000000000E+00 0. -1.
          2   -1    0    0  501    0  0.00000000000E+00 -0.00000000000E+00 -0.70113801772E+03  0.70113801772E+03  0.00000000000E+00 0.  1.
         25    2    1    2    0    0  0.15365096383E+02  0.57106612168E+02 -0.34480541069E+03  0.37153646873E+03  0.12510525575E+03 0.  0.
          5    1    3    3  502    0 -0.40009029146E+02  0.86554849688E+01 -0.23947212946E+03  0.24298150757E+03  0.41800000000E+01 0. -1.
         -5    1    3    3    0  502  0.55374125528E+02  0.48451127200E+02 -0.10533328123E+03  0.12855496117E+03  0.41800000000E+01 0. -1.
        -11    1    1    2    0    0 -0.33711897692E+02 -0.74263165485E+02 -0.22472963515E+03  0.23907094911E+03  0.00000000000E+00 0. -1.
         11    1    1    2    0    0  0.18346801309E+02  0.17156553317E+02 -0.10964657632E+03  0.11248699542E+03  0.00000000000E+00 0.  1.
</event>
<event>
 7    1  0.2490079E-009  0.9382375E+02  0.7561462E-02  0.1293847E+00
          3   -1    0    0  501    0  0.00000000000E+00  0.00000000000E+00  0.13632182859E+03  0.13632182859E+03  0.00000000000E+00 0. -1.
         -3   -1    0    0    0  501 -0.00000000000E+00 -0.00000000000E+00 -0.11349200157E+03  0.11349200157E+03  0.00000000000E+00 0.  1.
         25    2    1    2    0    0 -0.23272054090E+02  0.44834179266E+02 -0.21488585452E+02  0.13660392825E+03  0.12508869564E+03 0.  0.
          5    1    3    3  502    0  0.49234025234E+02  0.21602711028E+02 -0.26698971689E+02  0.60174528281E+02  0.41800000000E+01 0.  1.
         -5    1    3    3    0  502 -0.72506079324E+02  0.23231468237E+02  0.52103862373E+01  0.76429399972E+02  0.41800000000E+01 0.  1.
        -11    1    1    2    0    0  0.24545928580E+02 -0.17597337534E+02 -0.24690107239E+02  0.39009874309E+02  0.00000000000E+00 0.  1.
         11    1    1    2    0    0 -0.12738744907E+01 -0.27236841731E+02  0.69008519708E+02  0.74200027601E+02  0.00000000000E+00 0. -1.
</event>
<event>
 7    1  0.2490079E-009  0.4087732E+03  0.7561462E-02  0.1040783E+00
         -2   -1    0    0    0  501 -0.00000000000E+00  0.00000000000E+00  0.46352037481E+03  0.46352037481E+03  0.00000000000E+00 0.  1.
          2   -1    0    0  501    0  0.00000000000E+00 -0.00000000000E+00 -0.36856929932E+03  0.36856929932E+03  0.00000000000E+00 0. -1.
         25    2    1    2    0    0  0.83403526463E+02  0.38924094264E+03  0.60217247527E+02  0.42158714348E+03  0.12507974655E+03 0.  0.
          5    1    3    3  502    0  0.10167230732E+03  0.35912132524E+03  0.29088182322E+02  0.37439147836E+03  0.41800000000E+01 0. -1.
         -5    1    3    3    0  502 -0.18268780852E+02  0.30119617400E+02  0.31129065204E+02  0.47195665126E+02  0.41800000000E+01 0. -1.
        -11    1    1    2    0    0 -0.10067634628E+03 -0.36752552862E+03  0.35735575333E+02  0.38273721041E+03  0.00000000000E+00 0.  1.
         11    1    1    2    0    0  0.17272819820E+02 -0.21715414012E+02 -0.10017473659E+01  0.27765320240E+02  0.00000000000E+00 0. -1.
</event>
<event>
 7    1  0.2490079E-009  0.1732963E+03  0.7561462E-02  0.1174453E+00
          1   -1    0    0  501    0  0.00000000000E+00  0.00000000000E+00  0.68695454914E+03  0.68695454914E+03  0.00000000000E+00 0. -1.
         -1   -1    0    0    0  501 -0.00000000000E+00 -0.00000000000E+00 -0.44625161100E+02  0.44625161100E+02  0.00000000000E+00 0.  1.
         25    2    1    2    0    0 -0.12087257417E+03 -0.61480111320E+02  0.29836806396E+03  0.35079816144E+03  0.12508343298E+03 0.  0.
          5    1    3    3  502    0 -0.10404634071E+03 -0.97928528793E+02  0.21513044724E+03  0.25829095899E+03  0.41800000000E+01 0.  1.
         -5    1    3    3    0  502 -0.16826233464E+02  0.36448417473E+02  0.83237616715E+02  0.92507202451E+02  0.41800000000E+01 0.  1.
        -11    1    1    2    0    0 -0.14921919019E+02  0.20716015593E+01  0.28629684932E+02  0.32351415109E+02  0.00000000000E+00 0.  1.
         11    1    1    2    0    0  0.13579449319E+03  0.59408509760E+02  0.31533163915E+03  0.34843013369E+03  0.00000000000E+00 0. -1.
</event>
<event>
 7    1  0.2490079E-009  0.1333992E+03  0.7561462E-02  0.1222497E+00
         -1   -1    0    0    0  501 -0.00000000000E+00  0.00000000000E+00  0.49354576858E+02  0.49354576858E+02  0.00000000000E+00 0.  1.
          1   -1    0    0  501    0  0.00000000000E+00 -0.00000000000E+00 -0.55984313331E+03  0.55984313331E+03  0.00000000000E+00 0. -1.
         25    2    1    2    0    0  0.52476664200E+02 -0.62005860122E+02 -0.44933241066E+03  0.47344038110E+03  0.12509057601E+03 0.  0.
          5    1    3    3  502    0 -0.11928011155E+01  0.34962310452E+02 -0.72191904606E+02  0.80330127707E+02  0.41800000000E+01 0.  1.
         -5    1    3    3    0  502  0.53669465315E+02 -0.96968170574E+02 -0.37714050605E+03  0.39311025339E+03  0.41800000000E+01 0.  1.
        -11    1    1    2    0    0 -0.10236065769E+02  0.75595608321E+02 -0.32396405403E+02  0.82879431241E+02  0.00000000000E+00 0.  1.
         11    1    1    2    0    0 -0.42240598431E+02 -0.13589748199E+02 -0.28759740389E+02  0.52877897833E+02  0.00000000000E+00 0. -1.
</event>
<event>
 7    1  0.2490079E-009  0.1057722E+03  0.7561462E-02  0.1268606E+00
         -1   -1    0    0    0  501 -0.00000000000E+00  0.00000000000E+00  0.53962705560E+02  0.53962705560E+02  0.00000000000E+00 0.  1.
          1   -1    0    0  501    0  0.00000000000E+00 -0.00000000000E+00 -0.29822317075E+03  0.29822317075E+03  0.00000000000E+00 0. -1.
         25    2    1    2    0    0 -0.49286757057E+02 -0.42575441467E+02 -0.12286305283E+03  0.18704165699E+03  0.12508956416E+03 0.  0.
          5    1    3    3  502    0 -0.19989865508E+02 -0.85619704972E+02 -0.67483538719E+02  0.11091361053E+03  0.41800000000E+01 0. -1.
         -5    1    3    3    0  502 -0.29296891548E+02  0.43044263505E+02 -0.55379514109E+02  0.76128046462E+02  0.41800000000E+01 0. -1.
        -11    1    1    2    0    0  0.36836204144E+02  0.12772388644E+02  0.55033103970E+00  0.38991572316E+02  0.00000000000E+00 0.  1.
         11    1    1    2    0    0  0.12450552913E+02  0.29803052823E+02 -0.12194774340E+03  0.12615264700E+03  0.00000000000E+00 0. -1.
</event>
<event>
 7    1  0.2490079E-009  0.3384188E+03  0.7561462E-02  0.1067471E+00
         -1   -1    0    0    0  501 -0.00000000000E+00  0.00000000000E+00  0.98971540876E+02  0.98971540876E+02  0.00000000000E+00 0.  1.
          1   -1    0    0  501    0  0.00000000000E+00 -0.00000000000E+00 -0.14034953925E+04  0.14034953925E+04  0.00000000000E+00 0. -1.
         25    2    1    2    0    0 -0.28455522550E+03 -0.16314955111E+03 -0.38137679564E+03  0.51835006388E+03  0.12509626726E+03 0.  0.
          5    1    3    3  502    0 -0.58008049146E+02  0.96110106116E+01 -0.11032916130E+03  0.12508917428E+03  0.41800000000E+01 0. -1.
         -5    1    3    3    0  502 -0.22654717636E+03 -0.17276056172E+03 -0.27104763434E+03  0.39326088960E+03  0.41800000000E+01 0. -1.
        -11    1    1    2    0    0  0.14756760230E+03  0.11727067784E+03 -0.62515194170E+03  0.65294989037E+03  0.00000000000E+00 0. -1.
         11    1    1    2    0    0  0.13698762320E+03  0.45878873274E+02 -0.29799511430E+03  0.33116697913E+03  0.00000000000E+00 0.  1.
</event>
<event>
 7    1  0.2490079E-009  0.1378926E+03  0.7561462E-02  0.1216193E+00
          1   -1    0    0  501    0  0.00000000000E+00  0.00000000000E+00  0.27346633526E+02  0.27346633526E+02  0.00000000000E+00 0. -1.
         -1   -1    0    0    0  501 -0.00000000000E+00 -0.00000000000E+00 -0.86490359651E+03  0.86490359651E+03  0.00000000000E+00 0.  1.
         25    2    1    2    0    0  0.10008664911E+03  0.38643030083E+02 -0.49334655168E+03  0.52014216460E+03  0.12508569160E+03 0.  0.
          5    1    3    3  502    0  0.12004487194E+03  0.56964107828E+02 -0.44643610061E+03  0.46580934425E+03  0.41800000000E+01 0. -1.
         -5    1    3    3    0  502 -0.19958222836E+02 -0.18321077745E+02 -0.46910451061E+02  0.54332820351E+02  0.41800000000E+01 0. -1.
        -11    1    1    2    0    0 -0.49210046996E+02  0.35472456807E+01 -0.48803008232E+02  0.69397012110E+02  0.00000000000E+00 0. -1.
         11    1    1    2    0    0 -0.50876602113E+02 -0.42190275764E+02 -0.29540740308E+03  0.30271105333E+03  0.00000000000E+00 0.  1.
</event>
<event>
 7    1  0.2874628E-009  0.1242405E+03  0.7561462E-02  0.1236261E+00
          2   -1    0    0  501    0  0.00000000000E+00  0.00000000000E+00  0.53727912633E+03  0.53727912633E+03  0.00000000000E+00 0.  1.
         -2   -1    0    0    0  501 -0.00000000000E+00 -0.00000000000E+00 -0.31189727915E+02  0.31189727915E+02  0.00000000000E+00 0. -1.
         25    2    1    2    0    0 -0.22467738818E+02 -0.64868978578E+02  0.24516643055E+03  0.28366498163E+03  0.12508580843E+03 0.  0.
          5    1    3    3  502    0 -0.60290120536E+02  0.35439493738E+00  0.67414295222E+02  0.90538300350E+02  0.41800000000E+01 0. -1.
         -5    1    3    3    0  502  0.37822381718E+02 -0.65223373515E+02  0.17775213532E+03  0.19312668128E+03  0.41800000000E+01 0. -1.
        -11    1    1    2    0    0  0.55284909246E+02  0.24399802896E+02  0.11595042837E+03  0.13075271856E+03  0.00000000000E+00 0. -1.
         11    1    1    2    0    0 -0.32817170428E+02  0.40469175682E+02  0.14497253949E+03  0.15405115405E+03  0.00000000000E+00 0.  1.
</event>
<event>
 7    1  0.2490079E-009  0.8031101E+02  0.7561462E-02  0.1328171E+00
         -2   -1    0    0    0  501 -0.00000000000E+00  0.00000000000E+00  0.34582666484E+03  0.34582666484E+03  0.00000000000E+00 0.  1.
          2   -1    0    0  501    0  0.00000000000E+00 -0.00000000000E+00 -0.35591105476E+02  0.35591105476E+02  0.00000000000E+00 0. -1.
         25    2    1    2    0    0  0.12123600858E+02 -0.46261922645E-01  0.16362549200E+03  0.20631838174E+03  0.12508792576E+03 0.  0.
          5    1    3    3  502    0 -0.28834312849E+02 -0.54415418320E+01  0.16207911569E+03  0.16476692665E+03  0.41800000000E+01 0.  1.
         -5    1    3    3    0  502  0.40957913707E+02  0.53952799093E+01  0.15463763174E+01  0.41551455092E+02  0.41800000000E+01 0.  1.
        -11    1    1    2    0    0 -0.28812461282E+02 -0.38131977087E+02  0.10880135298E+03  0.11883576908E+03  0.00000000000E+00 0.  1.
         11    1    1    2    0    0  0.16688860424E+02  0.38178239009E+02  0.37808714377E+02  0.56263619497E+02  0.00000000000E+00 0. -1.
</event>
<event>
 7    1  0.2490079E-009  0.1742857E+03  0.7561462E-02  0.1173451E+00
         -2   -1    0    0    0  501 -0.00000000000E+00  0.00000000000E+00  0.78642166234E+02  0.78642166234E+02  0.00000000000E+00 0.  1.
          2   -1    0    0  501    0  0.00000000000E+00 -0.00000000000E+00 -0.80068624079E+03  0.80068624079E+03  0.00000000000E+00 0. -1.
         25    2    1    2    0    0  0.10316161511E+03 -0.11817812360E+03 -0.86080550466E+02  0.21833114148E+03  0.12510091302E+03 0.  0.
          5    1    3    3  502    0  0.37132184168E+02 -0.89181575108E+02  0.11007215212E+02  0.97317951204E+02  0.41800000000E+01 0. -1.
         -5    1    3    3    0  502  0.66029430943E+02 -0.28996548497E+02 -0.97087765678E+02  0.12101319027E+03  0.41800000000E+01 0. -1.
        -11    1    1    2    0    0 -0.14386913191E+02  0.82858717704E+02 -0.27216589813E+03  0.28486282045E+03  0.00000000000E+00 0.  1.
         11    1    1    2    0    0 -0.88774701919E+02  0.35319405901E+02 -0.36379762596E+03  0.37613444510E+03  0.00000000000E+00 0. -1.
</event>
<event>
 7    1  0.2490079E-009  0.1420835E+03  0.7561462E-02  0.1210553E+00
         -1   -1    0    0    0  501 -0.00000000000E+00  0.00000000000E+00  0.24126246470E+02  0.24126246470E+02  0.00000000000E+00 0.  1.
          1   -1    0    0  501    0  0.00000000000E+00 -0.00000000000E+00 -0.10794452557E+04  0.10794452557E+04  0.00000000000E+00 0. -1.
         25    2    1    2    0    0 -0.90089780229E+02  0.30208801065E+02 -0.81339378474E+03  0.82842270112E+03  0.12508390196E+03 0.  0.
          5    1    3    3  502    0 -0.33071685012E+02  0.76468967253E+02 -0.41607579278E+03  0.42435571993E+03  0.41800000000E+01 0. -1.
         -5    1    3    3    0  502 -0.57018095217E+02 -0.46260166189E+02 -0.39731799196E+03  0.40406698119E+03  0.41800000000E+01 0. -1.
        -11    1    1    2    0    0  0.90346195040E+02 -0.52779481333E+02 -0.16860997056E+03  0.19843747323E+03  0.00000000000E+00 0.  1.
         11    1    1    2    0    0 -0.25641481097E+00  0.22570680269E+02 -0.73315253913E+02  0.76711327799E+02  0.00000000000E+00 0. -1.
</event>
<event>
 7    1  0.2490079E-009  0.2626340E+03  0.7561462E-02  0.1105571E+00
          2   -1    0    0  501    0  0.00000000000E+00  0.00000000000E+00  0.15410896712E+04  0.15410896712E+04  0.00000000000E+00 0. -1.
         -2   -1    0    0    0  501 -0.00000000000E+00 -0.00000000000E+00 -0.50169788001E+02  0.50169788001E+02  0.00000000000E+00 0.  1.
         25    2    1    2    0    0 -0.23572593978E+03 -0.78995649087E+02  0.58184614977E+03  0.64498065490E+03  0.12509225366E+03 0.  0.
          5    1    3    3  502    0 -0.12194161590E+02 -0.34881465205E+02  0.29483291055E+02  0.47456833471E+02  0.41800000000E+01 0.  1.
         -5    1    3    3    0  502 -0.22353177819E+03 -0.44114183882E+02  0.55236285872E+03  0.59752382143E+03  0.41800000000E+01 0.  1.
        -11    1    1    2    0    0  0.86071819901E+02  0.68815117366E+02  0.45113593090E+03  0.46440015796E+03  0.00000000000E+00 0.  1.
         11    1    1    2    0    0  0.14965411988E+03  0.10180531720E+02  0.45793780252E+03  0.48187864635E+03  0.00000000000E+00 0. -1.
</event>
<event>
 7    1  0.2490079E-009  0.1057685E+03  0.7561462E-02  0.1268613E+00
         -1   -1    0    0    0  501 -0.00000000000E+00  0.00000000000E+00  0.45461387246E+02  0.45461387246E+02  0.00000000000E+00 0. -1.
          1   -1    0    0  501    0  0.00000000000E+00 -0.00000000000E+00 -0.27940004976E+03  0.27940004976E+03  0.00000000000E+00 0.  1.
         25    2    1    2    0    0  0.98271611468E+01 -0.16814573950E+02 -0.18363242475E+03  0.22304179274E+03  0.12508985129E+03 0.  0.
          5    1    3    3  502    0 -0.40437112276E+02  0.34184965602E+02 -0.96799558960E+02  0.11041466813E+03  0.41800000000E+01 0.  1.
         -5    1    3    3    0  502  0.50264273422E+02 -0.50999539552E+02 -0.86832865790E+02  0.11262712461E+03  0.41800000000E+01 0.  1.
        -11    1    1    2    0    0 -0.60106905434E+01 -0.34609751260E+02 -0.10458535334E+02  0.36651660869E+02  0.00000000000E+00 0.  1.
         11    1    1    2    0    0 -0.38164706034E+01  0.51424325210E+02 -0.39847702427E+02  0.65167983396E+02  0.00000000000E+00 0. -1.
</event>
<event>
 7    1  0.2490079E-009  0.1504122E+03  0.7561462E-02  0.1199967E+00
         -2   -1    0    0    0  501 -0.00000000000E+00  0.00000000000E+00  0.18623526219E+03  0.18623526219E+03  0.00000000000E+00 0.  1.
          2   -1    0    0  501    0  0.00000000000E+00 -0.00000000000E+00 -0.18373851605E+03  0.18373851605E+03  0.00000000000E+00 0. -1.
         25    2    1    2    0    0 -0.34751864678E+02  0.12984507280E+03 -0.64967005106E+02  0.19477284942E+03  0.12509322959E+03 0.  0.
          5    1    3    3  502    0 -0.11838438621E+02  0.11103820549E+03 -0.99109494891E+02  0.14936464135E+03  0.41800000000E+01 0. -1.
         -5    1    3    3    0  502 -0.22913426056E+02  0.18806867305E+02  0.34142489785E+02  0.45408208070E+02  0.41800000000E+01 0. -1.
        -11    1    1    2    0    0  0.55591151230E+02 -0.44265813021E+02  0.45644520543E+02  0.84458632200E+02  0.00000000000E+00 0.  1.
         11    1    1    2    0    0 -0.20839286553E+02 -0.85579259778E+02  0.21819230698E+02  0.90742296623E+02  0.00000000000E+00 0. -1.
</event>
<event>
 7    1  0.2490079E-009  0.1983533E+03  0.7561462E-02  0.1151136E+00
          2   -1    0    0  501    0  0.00000000000E+00  0.00000000000E+00  0.15352769811E+03  0.15352769811E+03  0.00000000000E+00 0. -1.
         -2   -1    0    0    0  501 -0.00000000000E+00 -0.00000000000E+00 -0.36179952765E+03  0.36179952765E+03  0.00000000000E+00 0.  1.
         25    2    1    2    0    0  0.53447439154E+02 -0.17564569074E+03  0.16811063114E+01  0.22216482315E+03  0.12508535127E+03 0.  0.
          5    1    3    3  502    0  0.29612269276E+02 -0.16132899339E+03  0.45347977612E+02  0.17022879332E+03  0.41800000000E+01 0.  1.
         -5    1    3    3    0  502  0.23835169878E+02 -0.14316697346E+02 -0.43666871300E+02  0.51936029836E+02  0.41800000000E+01 0.  1.
        -11    1    1    2    0    0 -0.79028821134E+02  0.12792345653E+03 -0.15825109731E+03  0.21829653021E+03  0.00000000000E+00 0.  1.
         11    1    1    2    0    0  0.25581381980E+02  0.47722234208E+02 -0.51701838539E+02  0.74865872399E+02  0.00000000000E+00 0. -1.
</event>
<event>
 7    1  0.2490079E-009  0.9429886E+02  0.7561462E-02  0.1292763E+00
         -1   -1    0    0    0  501 -0.00000000000E+00  0.00000000000E+00  0.86669831906E+02  0.86669831906E+02  0.00000000000E+00 0.  1.
          1   -1    0    0  501    0  0.00000000000E+00 -0.00000000000E+00 -0.17088594607E+03  0.17088594607E+03  0.00000000000E+00 0. -1.
         25    2    1    2    0    0 -0.25997513142E+01 -0.59226525818E+02 -0.65493158831E+02  0.15313063635E+03  0.12508036564E+03 0.  0.
          5    1    3    3  502    0 -0.34050414203E+02 -0.24898380012E+02 -0.90632201948E+02  0.10005512713E+03  0.41800000000E+01 0.  1.
         -5    1    3    3    0  502  0.31450662889E+02 -0.34328145806E+02  0.25139043117E+02  0.53075509225E+02  0.41800000000E+01 0.  1.
        -11    1    1    2    0    0 -0.35789157612E+02  0.10235232672E+02 -0.19827024981E+02  0.42175048430E+02  0.00000000000E+00 0.  1.
         11    1    1    2    0    0  0.38388908926E+02  0.48991293146E+02  0.11040696488E+01  0.62250093193E+02  0.00000000000E+00 0. -1.
</event>
<event>
 7    1  0.2490079E-009  0.1238236E+03  0.7561462E-02  0.1236919E+00
          4   -1    0    0  501    0  0.00000000000E+00  0.00000000000E+00  0.16946373032E+03  0.16946373032E+03  0.00000000000E+00 0.  1.
         -4   -1    0    0    0  501 -0.00000000000E+00 -0.00000000000E+00 -0.11081044066E+03  0.11081044066E+03  0.00000000000E+00 0. -1.
         25    2    1    2    0    0  0.37586554951E+02  0.62481939625E+02  0.73840182556E+02  0.16253405070E+03  0.12509277830E+03 0.  0.
          5    1    3    3  502    0  0.61681304309E+02  0.83143044443E+02  0.78757474289E+02  0.13014438634E+03  0.41800000000E+01 0. -1.
         -5    1    3    3    0  502 -0.24094749358E+02 -0.20661104819E+02 -0.49172917329E+01  0.32389664353E+02  0.41800000000E+01 0. -1.
        -11    1    1    2    0    0 -0.47297904754E+02  0.14878524131E+01 -0.22914825758E+02  0.52577511718E+02  0.00000000000E+00 0. -1.
         11    1    1    2    0    0  0.97113498030E+01 -0.63969792038E+02  0.77279328630E+01  0.65162608563E+02  0.00000000000E+00 0.  1.
</event>
<event>
 7    1  0.2490079E-009  0.1362716E+03  0.7561462E-02  0.1218436E+00
          1   -1    0    0  501    0  0.00000000000E+00  0.00000000000E+00  0.15497889679E+03  0.15497889679E+03  0.00000000000E+00 0. -1.
         -1   -1    0    0    0  501 -0.00000000000E+00 -0.00000000000E+00 -0.14545902167E+03  0.14545902167E+03  0.00000000000E+00 0.  1.
         25    2    1    2    0    0 -0.69586949949E+02 -0.69849667680E+02  0.39000267356E+02  0.16398456982E+03  0.12509435881E+03 0.  0.
          5    1    3    3  502    0 -0.59710402471E+02 -0.10123617572E+03  0.68738319502E+01  0.11780839275E+03  0.41800000000E+01 0. -1.
         -5    1    3    3    0  502 -0.98765474782E+01  0.31386508035E+02  0.32126435405E+02  0.46176177068E+02  0.41800000000E+01 0. -1.
        -11    1    1    2    0    0 -0.14681134131E+02  0.52666841249E+01  0.14723371785E+02  0.21448807374E+02  0.00000000000E+00 0. -1.
         11    1    1    2    0    0  0.84268084080E+02  0.64582983555E+02 -0.44203764015E+02  0.11500454127E+03  0.00000000000E+00 0.  1.
</event>
<event>
 7    1  0.2490079E-009  0.7998151E+02  0.7561462E-02  0.1329104E+00
         -1   -1    0    0    0  501 -0.00000000000E+00  0.00000000000E+00  0.27420453653E+02  0.27420453653E+02  0.00000000000E+00 0.  1.
          1   -1    0    0  501    0  0.00000000000E+00 -0.00000000000E+00 -0.40253568446E+03  0.40253568446E+03  0.00000000000E+00 0. -1.
         25    2    1    2    0    0 -0.17193319675E+02 -0.10244886829E+01 -0.28034338310E+03  0.30746642370E+03  0.12508608808E+03 0.  0.
          5    1    3    3  502    0  0.20879630666E+02 -0.30315770523E+02 -0.24474009175E+03  0.24752815967E+03  0.41800000000E+01 0. -1.
         -5    1    3    3    0  502 -0.38072950341E+02  0.29291281840E+02 -0.35603291354E+02  0.59938264028E+02  0.41800000000E+01 0. -1.
        -11    1    1    2    0    0 -0.24464286857E+02  0.17311135359E+02 -0.55005626559E+02  0.62640208269E+02  0.00000000000E+00 0. -1.
         11    1    1    2    0    0  0.41657606532E+02 -0.16286646676E+02 -0.39766221144E+02  0.59849506147E+02  0.00000000000E+00 0.  1.
</event>
<event>
 7    1  0.2490079E-009  0.1683595E+03  0.7561462E-02  0.1179569E+00
          2   -1    0    0  501    0  0.00000000000E+00  0.00000000000E+00  0.59073103229E+02  0.59073103229E+02  0.00000000000E+00 0. -1.
         -2   -1    0    0    0  501 -0.00000000000E+00 -0.00000000000E+00 -0.51892065865E+03  0.51892065865E+03  0.00000000000E+00 0.  1.
         25    2    1    2    0    0  0.13318013143E+03 -0.33441896463E+02 -0.24201958160E+03  0.30508287965E+03  0.12508708060E+03 0.  0.
          5    1    3    3  502    0  0.63874745999E+02  0.41807252918E+02 -0.14554644988E+03  0.16440520383E+03  0.41800000000E+01 0.  1.
         -5    1    3    3    0  502  0.69305385433E+02 -0.75249149381E+02 -0.96473131720E+02  0.14067767583E+03  0.41800000000E+01 0.  1.
        -11    1    1    2    0    0 -0.67861533519E+02 -0.22895134581E+02 -0.13753987715E+03  0.15506963831E+03  0.00000000000E+00 0.  1.
         11    1    1    2    0    0 -0.65318597912E+02  0.56337031044E+02 -0.80288096670E+02  0.11784124391E+03  0.00000000000E+00 0. -1.
</event>
<event>
 7    1  0.2490079E-009  0.1503682E+03  0.7561462E-02  0.1200021E+00
          1   -1    0    0  501    0  0.00000000000E+00  0.00000000000E+00  0.16470082855E+04  0.16470082855E+04  0.00000000000E+00 0. -1.
         -1   -1    0    0    0  501 -0.00000000000E+00 -0.00000000000E+00 -0.25939276944E+02  0.25939276944E+02  0.00000000000E+00 0.  1.
         25    2    1    2    0    0 -0.13136561410E+03  0.23129406238E+02  0.13099934094E+04  0.13226949898E+04  0.12508960483E+03 0.  0.
          5    1    3    3  502    0 -0.94461690955E+02  0.46236875739E+02  0.47343750781E+03  0.48499629477E+03  0.41800000000E+01 0.  1.
         -5    1    3    3    0  502 -0.36903923140E+02 -0.23107469501E+02  0.83655590161E+03  0.83769869500E+03  0.41800000000E+01 0.  1.
        -11    1    1    2    0    0  0.12003743185E+03  0.63041690076E+01  0.28506672682E+03  0.30937318295E+03  0.00000000000E+00 0.  1.
         11    1    1    2    0    0  0.11328182245E+02 -0.29433575246E+02  0.26008872316E+02  0.40879389720E+02  0.00000000000E+00 0. -1.
</event>
<event>
 7    1  0.2490079E-009  0.9997922E+02  0.7561462E-02  0.1280340E+00
          2   -1    0    0  501    0  0.00000000000E+00  0.00000000000E+00  0.29468248199E+02  0.29468248199E+02  0.00000000000E+00 0. -1.
         -2   -1    0    0    0  501 -0.00000000000E+00 -0.00000000000E+00 -0.16148658623E+04  0.16148658623E+04  0.00000000000E+00 0.  1.
         25    2    1    2    0    0 -0.32059705042E+02  0.12654514148E+02 -0.15243948026E+04  0.15299067550E+04  0.12508878257E+03 0.  0.
          5    1    3    3  502    0  0.80320084172E+01 -0.50043628871E+02 -0.43450001877E+03  0.43746613201E+03  0.41800000000E+01 0.  1.
         -5    1    3    3    0  502 -0.40091713459E+02  0.62698143019E+02 -0.10898947838E+04  0.10924406230E+04  0.41800000000E+01 0.  1.
        -11    1    1    2    0    0 -0.62410668560E+01 -0.31335383805E+02 -0.64182181327E+02  0.71695255029E+02  0.00000000000E+00 0.  1.
         11    1    1    2    0    0  0.38300771898E+02  0.18680869658E+02  0.31793697716E+01  0.42732100478E+02  0.00000000000E+00 0. -1.
</event>
<event>
 7    1  0.2490079E-009  0.1418331E+03  0.7561462E-02  0.1210883E+00
          4   -1    0    0  501    0  0.00000000000E+00  0.00000000000E+00  0.58582516281E+03  0.58582516281E+03  0.00000000000E+00 0. -1.
         -4   -1    0    0    0  501 -0.00000000000E+00 -0.00000000000E+00 -0.50997198234E+02  0.50997198234E+02  0.00000000000E+00 0.  1.
         25    2    1    2    0    0  0.11957650984E+03  0.50432955624E+02  0.22402070085E+03  0.28753649861E+03  0.12509971584E+03 0.  0.
          5    1    3    3  502    0  0.11290454489E+03  0.48292776638E+02  0.87667377025E+02  0.15093929219E+03  0.41800000000E+01 0. -1.
         -5    1    3    3    0  502  0.66719649525E+01  0.21401789863E+01  0.13635332383E+03  0.13659720642E+03  0.41800000000E+01 0. -1.
        -11    1    1    2    0    0  0.42374187058E+01 -0.26116275729E+02  0.10145940980E+03  0.10485240775E+03  0.00000000000E+00 0. -1.
         11    1    1    2    0    0 -0.12381392855E+03 -0.24316679896E+02  0.20934785393E+03  0.24443345468E+03  0.00000000000E+00 0.  1.
</event>
<event>
 7    1  0.2490079E-009  0.1498823E+03  0.7561462E-02  0.1200618E+00
          1   -1    0    0  501    0  0.00000000000E+00  0.00000000000E+00  0.20449559059E+03  0.20449559059E+03  0.00000000000E+00 0. -1.
         -1   -1    0    0    0  501 -0.00000000000E+00 -0.00000000000E+00 -0.19390169892E+03  0.19390169892E+03  0.00000000000E+00 0.  1.
         25    2    1    2    0    0 -0.83890187378E+02  0.79161685548E+02  0.12700841902E+03  0.21232613007E+03  0.12508841278E+03 0.  0.
          5    1    3    3  502    0 -0.31306736321E+02 -0.31518242196E+02  0.52311906756E+02  0.68756958329E+02  0.41800000000E+01 0.  1.
         -5    1    3    3    0  502 -0.52583451057E+02  0.11067992774E+03  0.74696512264E+02  0.14356917174E+03  0.41800000000E+01 0.  1.
        -11    1    1    2    0    0  0.32469904179E+02 -0.74058745530E+02 -0.31729858556E+02  0.86866428445E+02  0.00000000000E+00 0. -1.
         11    1    1    2    0    0  0.51420283199E+02 -0.51029400180E+01 -0.84684668801E+02  0.99204730991E+02  0.00000000000E+00 0.  1.
</event>
<event>
 7    1  0.2490079E-009  0.7598609E+03  0.7561462E-02  0.9620006E-01
          1   -1    0    0  501    0  0.00000000000E+00  0.00000000000E+00  0.31022016621E+04  0.31022016621E+04  0.00000000000E+00 0. -1.
         -1   -1    0    0    0  501 -0.00000000000E+00 -0.00000000000E+00 -0.22939608132E+03  0.22939608132E+03  0.00000000000E+00 0.  1.
         25    2    1    2    0    0 -0.31363153217E+03 -0.68697214093E+03  0.72996253548E+03  0.10577288107E+04  0.12509785507E+03 0.  0.
          5    1    3    3  502    0 -0.88025391207E+02 -0.90425559355E+02  0.14539951236E+03  0.19257139423E+03  0.41800000000E+01 0.  1.
         -5    1    3    3    0  502 -0.22560614096E+03 -0.59654658158E+03  0.58456302312E+03  0.86515741645E+03  0.41800000000E+01 0.  1.
        -11    1    1    2    0    0  0.27938354969E+03  0.63031219380E+03  0.20184701657E+04  0.21329722078E+04  0.00000000000E+00 0. -1.
         11    1    1    2    0    0  0.34247982478E+02  0.56659947134E+02  0.12437287956E+03  0.14089672488E+03  0.00000000000E+00 0.  1.
</event>
<event>
 7    1  0.2490079E-009  0.8928339E+02  0.7561462E-02  0.1304596E+00
         -1   -1    0    0    0  501 -0.00000000000E+00  0.00000000000E+00  0.82281681641E+02  0.82281681641E+02  0.00000000000E+00 0.  1.
          1   -1    0    0  501    0  0.00000000000E+00 -0.00000000000E+00 -0.17456969815E+03  0.17456969815E+03  0.00000000000E+00 0. -1.
         25    2    1    2    0    0 -0.33219283246E+02 -0.30430889573E+02 -0.26947802852E+02  0.13565933830E+03  0.12509081569E+03 0.  0.
          5    1    3    3  502    0  0.36750751998E+02 -0.51736697906E+01  0.24900823336E+02  0.44887726990E+02  0.41800000000E+01 0. -1.
         -5    1    3    3    0  502 -0.69970035244E+02 -0.25257219782E+02 -0.51848626188E+02  0.90771611315E+02  0.41800000000E+01 0. -1.
        -11    1    1    2    0    0  0.18376753752E+02  0.43318807618E+02  0.57764005264E+01  0.47408764749E+02  0.00000000000E+00 0.  1.
         11    1    1    2    0    0  0.14842529494E+02 -0.12887918046E+02 -0.71116614181E+02  0.73783276736E+02  0.00000000000E+00 0. -1.
</event>
<event>
 7    1  0.2490079E-009  0.1644608E+03  0.7561462E-02  0.1183751E+00
          1   -1    0    0  501    0  0.00000000000E+00  0.00000000000E+00  0.22924955933E+03  0.22924955933E+03  0.00000000000E+00 0. -1.
         -1   -1    0    0    0  501 -0.00000000000E+00 -0.00000000000E+00 -0.14891469151E+03  0.14891469151E+03  0.00000000000E+00 0.  1.
         25    2    1    2    0    0 -0.83940732658E+02 -0.11741586022E+03  0.77763748406E+02  0.20622378200E+03  0.12509403209E+03 0.  0.
          5    1    3    3  502    0 -0.10030127751E+03 -0.11834468586E+03  0.95096752050E+02  0.18200735038E+03  0.41800000000E+01 0.  1.
         -5    1    3    3    0  502  0.16360544853E+02  0.92882563892E+00 -0.17333003644E+02  0.24216431618E+02  0.41800000000E+01 0.  1.
        -11    1    1    2    0    0  0.12064928604E+02  0.69265699282E+02  0.36249137194E+02  0.79103094418E+02  0.00000000000E+00 0. -1.
         11    1    1    2    0    0  0.71875804054E+02  0.48150160942E+02 -0.33678017779E+02  0.92837374417E+02  0.00000000000E+00 0.  1.
</event>
<event>
 7    1  0.2490079E-009  0.1159591E+03  0.7561462E-02  0.1249916E+00
          2   -1    0    0  501    0  0.00000000000E+00  0.00000000000E+00  0.90703367732E+02  0.90703367732E+02  0.00000000000E+00 0. -1.
         -2   -1    0    0    0  501 -0.00000000000E+00 -0.00000000000E+00 -0.20995744472E+03  0.20995744472E+03  0.00000000000E+00 0.  1.
         25    2    1    2    0    0 -0.11786612821E+01  0.52348947213E+02  0.13168493520E+02  0.13624438149E+03  0.12508925113E+03 0.  0.
          5    1    3    3  502    0 -0.61997046730E+02  0.16847245802E+02 -0.51734832913E+00  0.64383255149E+02  0.41800000000E+01 0. -1.
         -5    1    3    3    0  502  0.60818385448E+02  0.35501701411E+02  0.13685841849E+02  0.71861126338E+02  0.41800000000E+01 0. -1.
        -11    1    1    2    0    0  0.39471038690E+02 -0.41318584475E+02 -0.70040620829E+02  0.90392902843E+02  0.00000000000E+00 0. -1.
         11    1    1    2    0    0 -0.38292377408E+02 -0.11030362737E+02 -0.62381949680E+02  0.74023528122E+02  0.00000000000E+00 0.  1.
</event>
<event>
 7    1  0.2490079E-009  0.7888519E+02  0.7561462E-02  0.1332245E+00
          2   -1    0    0  501    0  0.00000000000E+00  0.00000000000E+00  0.73573462814E+03  0.73573462814E+03  0.00000000000E+00 0. -1.
         -2   -1    0    0    0  501 -0.00000000000E+00 -0.00000000000E+00 -0.21023991668E+02  0.21023991668E+02  0.00000000000E+00 0.  1.
         25    2    1    2    0    0 -0.44309159349E+02  0.22637591638E+02  0.33216952805E+03  0.35840727890E+03  0.12507365849E+03 0.  0.
          5    1    3    3  502    0 -0.31293529629E+02  0.20348811577E+02  0.14230689889E+02  0.40166454461E+02  0.41800000000E+01 0.  1.
         -5    1    3    3    0  502 -0.13015629720E+02  0.22887800614E+01  0.31793883816E+03  0.31824082444E+03  0.41800000000E+01 0.  1.
        -11    1    1    2    0    0  0.60555129298E+02  0.17512276828E+02  0.28055005504E+03  0.28754466941E+03  0.00000000000E+00 0.  1.
         11    1    1    2    0    0 -0.16245969949E+02 -0.40149868466E+02  0.10199105338E+03  0.11080667149E+03  0.00000000000E+00 0. -1.
</event>
<event>
 7    1  0.2490079E-009  0.1020846E+03  0.7561462E-02  0.1275972E+00
          3   -1    0    0  501    0  0.00000000000E+00  0.00000000000E+00  0.31399060885E+03  0.31399060885E+03  0.00000000000E+00 0. -1.
         -3   -1    0    0    0  501 -0.00000000000E+00 -0.00000000000E+00 -0.87466705346E+02  0.87466705346E+02  0.00000000000E+00 0.  1.
         25    2    1    2    0    0  0.56274550117E+02  0.60266966785E+02  0.23299976695E+03  0.27701115135E+03  0.12508938525E+03 0.  0.
          5    1    3    3  502    0 -0.60720518684E+01 -0.17996405076E+02  0.13669373121E+03  0.13807023199E+03  0.41800000000E+01 0. -1.
         -5    1    3    3    0  502  0.62346601986E+02  0.78263371862E+02  0.96306035733E+02  0.13894091936E+03  0.41800000000E+01 0. -1.
        -11    1    1    2    0    0 -0.20122261064E+02 -0.95080397848E+01 -0.45686677872E+02  0.50819098239E+02  0.00000000000E+00 0.  1.
         11    1    1    2    0    0 -0.36152289053E+02 -0.50758927001E+02  0.39210814434E+02  0.73627064607E+02  0.00000000000E+00 0. -1.
</event>
<event>
 7    1  0.2490079E-009  0.1050973E+03  0.7561462E-02  0.1269928E+00
         -3   -1    0    0    0  501 -0.00000000000E+00  0.00000000000E+00  0.39523039571E+03  0.39523039571E+03  0.00000000000E+00 0.  1.
          3   -1    0    0  501    0  0.00000000000E+00 -0.00000000000E+00 -0.79662449927E+02  0.79662449927E+02  0.00000000000E+00 0. -1.
         25    2    1    2    0    0 -0.28485367613E+01 -0.54243116882E+02  0.33907759164E+03  0.36547407951E+03  0.12508900730E+03 0.  0.
          5    1    3    3  502    0  0.51852291619E+02 -0.52986320444E+02  0.13418070172E+03  0.15335626304E+03  0.41800000000E+01 0.  1.
         -5    1    3    3    0  502 -0.54700828380E+02 -0.12567964380E+01  0.20489688992E+03  0.21211781647E+03  0.41800000000E+01 0.  1.
        -11    1    1    2    0    0  0.22336251897E+02 -0.11286208452E+01  0.24800000322E+02  0.33394938985E+02  0.00000000000E+00 0.  1.
         11    1    1    2    0    0 -0.19487715136E+02  0.55371737727E+02 -0.48309646178E+02  0.76023827146E+02  0.00000000000E+00 0. -1.
</event>
<event>
 7    1  0.2490079E-009  0.6993525E+02  0.7561462E-02  0.1360313E+00
          2   -1    0    0  501    0  0.00000000000E+00  0.00000000000E+00  0.11949674309E+03  0.11949674309E+03  0.00000000000E+00 0. -1.
         -2   -1    0    0    0  501 -0.00000000000E+00 -0.00000000000E+00 -0.13978410231E+03  0.13978410231E+03  0.00000000000E+00 0.  1.
         25    2    1    2    0    0 -0.64731806435E+02  0.20350439701E+02 -0.57477540215E+01  0.14242433329E+03  0.12508919568E+03 0.  0.
          5    1    3    3  502    0 -0.55613188098E+02  0.16436515443E+02 -0.62089962515E+02  0.85062456910E+02  0.41800000000E+01 0.  1.
         -5    1    3    3    0  502 -0.91186183366E+01  0.39139242584E+01  0.56342208494E+02  0.57361876377E+02  0.41800000000E+01 0.  1.
        -11    1    1    2    0    0  0.55261980691E+02 -0.86920458745E+01  0.34394613887E+02  0.65669076709E+02  0.00000000000E+00 0. -1.
         11    1    1    2    0    0  0.94698257436E+01 -0.11658393827E+02 -0.48934219079E+02  0.51187435402E+02  0.00000000000E+00 0.  1.
</event>
<event>
 7    1  0.2807481E-009  0.1423189E+03  0.7561462E-02  0.1210242E+00
         -1   -1    0    0    0  501 -0.00000000000E+00  0.00000000000E+00  0.18364127782E+03  0.18364127782E+03  0.00000000000E+00 0.  1.
          1   -1    0    0  501    0  0.00000000000E+00 -0.00000000000E+00 -0.14676301446E+03  0.14676301446E+03  0.00000000000E+00 0. -1.
         25    2    1    2    0    0  0.23912317954E+02 -0.11915899783E+03  0.14962383879E+01  0.17441140223E+03  0.12508570176E+03 0.  0.
          5    1    3    3  502    0 -0.96029962059E+01 -0.17966563175E+01  0.43873717708E+02  0.45142230955E+02  0.41800000000E+01 0. -1.
         -5    1    3    3    0  502  0.33515314160E+02 -0.11736234151E+03 -0.42377479320E+02  0.12926917127E+03  0.41800000000E+01 0. -1.
        -11    1    1    2    0    0 -0.50371710877E+02  0.29434073468E+02  0.11824224094E+02  0.59527188855E+02  0.00000000000E+00 0.  1.
         11    1    1    2    0    0  0.26459392923E+02  0.89724924361E+02  0.23557800881E+02  0.96465701199E+02  0.00000000000E+00 0. -1.
</event>
<event>
 7    1  0.2490079E-009  0.9229292E+02  0.7561462E-02  0.1297392E+00
         -1   -1    0    0    0  501 -0.00000000000E+00  0.00000000000E+00  0.14001585278E+03  0.14001585278E+03  0.00000000000E+00 0.  1.
          1   -1    0    0  501    0  0.00000000000E+00 -0.00000000000E+00 -0.96053510060E+02  0.96053510060E+02  0.00000000000E+00 0. -1.
         25    2    1    2    0    0 -0.20155374036E+02  0.27013507699E+02  0.52744072482E+00  0.12955741155E+03  0.12509546752E+03 0.  0.
          5    1    3    3  502    0  0.21583405526E+01 -0.42268673069E+02 -0.28379641644E+02  0.51129009542E+02  0.41800000000E+01 0. -1.
         -5    1    3    3    0  502 -0.22313714588E+02  0.69282180768E+02  0.28907082369E+02  0.78428402010E+02  0.41800000000E+01 0. -1.
        -11    1    1    2    0    0 -0.17139545792E+02  0.71510168440E+01 -0.18726251202E+02  0.26373728518E+02  0.00000000000E+00 0. -1.
         11    1    1    2    0    0  0.37294919828E+02 -0.34164524543E+02  0.62161153201E+02  0.80138222775E+02  0.00000000000E+00 0.  1.
</event>
<event>
 7    1  0.2490079E-009  0.1100779E+03  0.7561462E-02  0.1260426E+00
         -2   -1    0    0    0  501 -0.00000000000E+00  0.00000000000E+00  0.11158899785E+03  0.11158899785E+03  0.00000000000E+00 0.  1.
          2   -1    0    0  501    0  0.00000000000E+00 -0.00000000000E+00 -0.15410322803E+03  0.15410322803E+03  0.00000000000E+00 0. -1.
         25    2    1    2    0    0  0.68195234517E+02  0.23982017005E+02 -0.29057372958E+02  0.14736978802E+03  0.12509115215E+03 0.  0.
          5    1    3    3  502    0  0.41325348869E+02  0.74635830981E+02 -0.27935193017E+02  0.89867341868E+02  0.41800000000E+01 0. -1.
         -5    1    3    3    0  502  0.26869885647E+02 -0.50653813977E+02 -0.11221799414E+01  0.57502446147E+02  0.41800000000E+01 0. -1.
        -11    1    1    2    0    0 -0.99518555800E+01  0.61237005683E+01  0.34932595359E+02  0.36835110379E+02  0.00000000000E+00 0.  1.
         11    1    1    2    0    0 -0.58243378937E+02 -0.30105717573E+02 -0.48389452578E+02  0.81487327490E+02  0.00000000000E+00 0. -1.
</event>
<event>
 7    1  0.2490079E-009  0.1340291E+03  0.7561462E-02  0.1221597E+00
         -2   -1    0    0    0  501 -0.00000000000E+00  0.00000000000E+00  0.58609785483E+02  0.58609785483E+02  0.00000000000E+00 0.  1.
          2   -1    0    0  501    0  0.00000000000E+00 -0.00000000000E+00 -0.43166481459E+03  0.43166481459E+03  0.00000000000E+00 0. -1.
         25    2    1    2    0    0  0.10108138317E+02 -0.11193105416E+03 -0.16839318464E+03  0.23798081163E+03  0.12509143347E+03 0.  0.
          5    1    3    3  502    0  0.35541051391E+01 -0.12096101523E+03 -0.72042903575E+02  0.14089659763E+03  0.41800000000E+01 0.  1.
         -5    1    3    3    0  502  0.65540331778E+01  0.90299610689E+01 -0.96350281060E+02  0.97084214001E+02  0.41800000000E+01 0.  1.
        -11    1    1    2    0    0  0.32497940847E+02  0.56010690608E+02 -0.14953966863E+03  0.16295835700E+03  0.00000000000E+00 0. -1.
         11    1    1    2    0    0 -0.42606079164E+02  0.55920363552E+02 -0.55122175845E+02  0.89335431445E+02  0.00000000000E+00 0.  1.
</event>
<event>
 7    1  0.2490079E-009  0.1504852E+03  0.7561462E-02  0.1199878E+00
          1   -1    0    0  501    0  0.00000000000E+00  0.00000000000E+00  0.61641582582E+03  0.61641582582E+03  0.00000000000E+00 0. -1.
         -1   -1    0    0    0  501 -0.00000000000E+00 -0.00000000000E+00 -0.98266452683E+02  0.98266452683E+02  0.00000000000E+00 0.  1.
         25    2    1    2    0    0  0.11408633499E+02 -0.11665683148E+03  0.53836234155E+03  0.56499636191E+03  0.12509158614E+03 0.  0.
          5    1    3    3  502    0  0.35714029527E+02 -0.23198121132E+01  0.26807646803E+03  0.27048722437E+03  0.41800000000E+01 0. -1.
         -5    1    3    3    0  502 -0.24305396028E+02 -0.11433701936E+03  0.27028587352E+03  0.29450913754E+03  0.41800000000E+01 0. -1.
        -11    1    1    2    0    0  0.36555753497E+02  0.78802326237E+02 -0.68433889422E+01  0.87137602138E+02  0.00000000000E+00 0.  1.
         11    1    1    2    0    0 -0.47964386996E+02  0.37854505239E+02 -0.13369579465E+02  0.62548314460E+02  0.00000000000E+00 0. -1.
</event>
<event>
 7    1  0.2490079E-009  0.1881779E+03  0.7561462E-02  0.1160115E+00
         -2   -1    0    0    0  501 -0.00000000000E+00  0.00000000000E+00  0.37515280043E+02  0.37515280043E+02  0.00000000000E+00 0. -1.
          2   -1    0    0  501    0  0.00000000000E+00 -0.00000000000E+00 -0.10826610075E+04  0.10826610075E+04  0.00000000000E+00 0.  1.
         25    2    1    2    0    0  0.94437526832E+02  0.12742673981E+03 -0.36893371519E+03  0.42061048585E+03  0.12508027067E+03 0.  0.
          5    1    3    3  502    0  0.28180307374E+00  0.98964403797E+02 -0.14092081619E+03  0.17225034533E+03  0.41800000000E+01 0. -1.
         -5    1    3    3    0  502  0.94155723758E+02  0.28462336015E+02 -0.22801289900E+03  0.24836014052E+03  0.41800000000E+01 0. -1.
        -11    1    1    2    0    0 -0.43388418243E+02 -0.11957160222E+03 -0.50140047283E+03  0.51728363307E+03  0.00000000000E+00 0. -1.
         11    1    1    2    0    0 -0.51049108588E+02 -0.78551375944E+01 -0.17481153945E+03  0.18228216863E+03  0.00000000000E+00 0.  1.
</event>
<event>
 7    1  0.2490079E-009  0.9740986E+02  0.7561462E-02  0.1285839E+00
          2   -1    0    0  501    0  0.00000000000E+00  0.00000000000E+00  0.13781299794E+04  0.13781299794E+04  0.00000000000E+00 0. -1.
         -2   -1    0    0    0  501 -0.00000000000E+00 -0.00000000000E+00 -0.46731552464E+02  0.46731552464E+02  0.00000000000E+00 0.  1.
         25    2    1    2    0    0 -0.41625928763E+02 -0.58005842472E+02  0.12956582642E+04  0.13036393335E+04  0.12509108070E+03 0.  0.
          5    1    3    3  502    0 -0.22808481861E+01 -0.77456567217E+02  0.11142968173E+04  0.11169957885E+04  0.41800000000E+01 0.  1.
         -5    1    3    3    0  502 -0.39345080577E+02  0.19450724746E+02  0.18136144695E+03  0.18664354502E+03  0.41800000000E+01 0.  1.
        -11    1    1    2    0    0  0.14522220949E+02  0.33804266363E+02 -0.29090583004E+02  0.46902935358E+02  0.00000000000E+00 0.  1.
         11    1    1    2    0    0  0.27103707815E+02  0.24201576109E+02  0.64830745653E+02  0.74319262949E+02  0.00000000000E+00 0. -1.
</event>
<event>
 7    1  0.2490079E-009  0.3460172E+03  0.7561462E-02  0.1064262E+00
          2   -1    0    0  501    0  0.00000000000E+00  0.00000000000E+00  0.14230606740E+04  0.14230606740E+04  0.00000000000E+00 0. -1.
         -2   -1    0    0    0  501 -0.00000000000E+00 -0.00000000000E+00 -0.12455504302E+03  0.12455504302E+03  0.00000000000E+00 0.  1.
         25    2    1    2    0    0  0.10377857203E+02  0.33288487617E+03  0.10846718642E+04  0.11415253343E+04  0.12508794941E+03 0.  0.
          5    1    3    3  502    0  0.29954201349E+02  0.27588701103E+02  0.23293252745E+03  0.23650248487E+03  0.41800000000E+01 0.  1.
         -5    1    3    3    0  502 -0.19576344146E+02  0.30529617506E+03  0.85173933676E+03  0.90502284940E+03  0.41800000000E+01 0.  1.
        -11    1    1    2    0    0  0.32907955661E+02 -0.56447013147E+02  0.44059226220E+02  0.78806181573E+02  0.00000000000E+00 0. -1.
         11    1    1    2    0    0 -0.43285812864E+02 -0.27643786302E+03  0.16977454051E+03  0.32728420113E+03  0.00000000000E+00 0.  1.
</event>
<event>
 7    1  0.2490079E-009  0.1882426E+03  0.7561462E-02  0.1160056E+00
         -2   -1    0    0    0  501 -0.00000000000E+00  0.00000000000E+00  0.17855157413E+03  0.17855157413E+03  0.00000000000E+00 0.  1.
          2   -1    0    0  501    0  0.00000000000E+00 -0.00000000000E+00 -0.31948943158E+03  0.31948943158E+03  0.00000000000E+00 0. -1.
         25    2    1    2    0    0 -0.58478372046E+02  0.16093571111E+03 -0.20274126598E+03  0.29337852351E+03  0.12508762538E+03 0.  0.
          5    1    3    3  502    0 -0.84320166337E+02  0.68797717028E+02 -0.14567263711E+03  0.18188184605E+03  0.41800000000E+01 0.  1.
         -5    1    3    3    0  502  0.25841794291E+02  0.92137994080E+02 -0.57068628868E+02  0.11149667747E+03  0.41800000000E+01 0.  1.
        -11    1    1    2    0    0  0.54343235445E+02 -0.13493036591E+03  0.90999772224E+01  0.14574704275E+03  0.00000000000E+00 0. -1.
         11    1    1    2    0    0  0.41351366010E+01 -0.26005345194E+02  0.52703431307E+02  0.58915439445E+02  0.00000000000E+00 0.  1.
</event>
<event>
 7    1  0.2490079E-009  0.1041814E+03  0.7561462E-02  0.1271741E+00
          2   -1    0    0  501    0  0.00000000000E+00  0.00000000000E+00  0.10948763925E+03  0.10948763925E+03  0.00000000000E+00 0. -1.
         -2   -1    0    0    0  501 -0.00000000000E+00 -0.00000000000E+00 -0.11669663855E+03  0.11669663855E+03  0.00000000000E+00 0.  1.
         25    2    1    2    0    0 -0.88084810204E+01  0.20518518625E+01  0.28885438111E+02  0.12869747518E+03  0.12508745800E+03 0.  0.
          5    1    3    3  502    0 -0.48224975768E+02  0.43054784647E+02  0.29100142532E-01  0.64782991715E+02  0.41800000000E+01 0. -1.
         -5    1    3    3    0  502  0.39416494747E+02 -0.41002932784E+02  0.28856337968E+02  0.63914483460E+02  0.41800000000E+01 0. -1.
        -11    1    1    2    0    0 -0.35792218082E+02  0.14990289282E+02 -0.30615474801E+02  0.49427714345E+02  0.00000000000E+00 0.  1.
         11    1    1    2    0    0  0.44600699103E+02 -0.17042141145E+02 -0.54789626124E+01  0.48059088283E+02  0.00000000000E+00 0. -1.
</event>
<event>
 7    1  0.2490079E-009  0.8945450E+02  0.7561462E-02  0.1304178E+00
          1   -1    0    0  501    0  0.00000000000E+00  0.00000000000E+00  0.28077881311E+03  0.28077881311E+03  0.00000000000E+00 0. -1.
         -1   -1    0    0    0  501 -0.00000000000E+00 -0.00000000000E+00 -0.73572512359E+02  0.73572512359E+02  0.00000000000E+00 0.  1.
         25    2    1    2    0    0  0.36692892423E+02  0.23954027263E+02  0.10459795857E+02  0.13295489395E+03  0.12508969869E+03 0.  0.
          5    1    3    3  502    0 -0.31850789581E+02  0.80286330536E+00  0.42863977947E+02  0.53571544610E+02  0.41800000000E+01 0.  1.
         -5    1    3    3    0  502  0.68543682004E+02  0.23151163958E+02 -0.32404182090E+02  0.79383349339E+02  0.41800000000E+01 0.  1.
        -11    1    1    2    0    0 -0.20480731597E+02 -0.43995347240E+02  0.18801987605E+03  0.19418167971E+03  0.00000000000E+00 0. -1.
         11    1    1    2    0    0 -0.16212160826E+02  0.20041319976E+02  0.87266288438E+01  0.27214751809E+02  0.00000000000E+00 0.  1.
</event>
<event>
 7    1  0.2490079E-009  0.1428649E+03  0.7561462E-02  0.1209525E+00
          2   -1    0    0  501    0  0.00000000000E+00  0.00000000000E+00  0.29872155055E+03  0.29872155055E+03  0.00000000000E+00 0. -1.
         -2   -1    0    0    0  501 -0.00000000000E+00 -0.00000000000E+00 -0.78871743038E+02  0.78871743038E+02  0.00000000000E+00 0.  1.
         25    2    1    2    0    0  0.85468643750E+02 -0.71993287038E+02  0.99060274152E+02  0.19480279936E+03  0.12508904940E+03 0.  0.
          5    1    3    3  502    0  0.15613695337E+02 -0.82426516811E+02  0.90598150648E+02  0.12354519601E+03  0.41800000000E+01 0. -1.
         -5    1    3    3    0  502  0.69854948413E+02  0.10433229774E+02  0.84621235044E+01  0.71257603352E+02  0.41800000000E+01 0. -1.
        -11    1    1    2    0    0 -0.40410797162E+01  0.45020347399E+02  0.17362932215E+02  0.48421414893E+02  0.00000000000E+00 0.  1.
         11    1    1    2    0    0 -0.81427564033E+02  0.26972939639E+02  0.10342660115E+03  0.13436907934E+03  0.00000000000E+00 0. -1.
</event>
<event>
 7    1  0.2490079E-009  0.1152106E+03  0.7561462E-02  0.1251214E+00
         -1   -1    0    0    0  501 -0.00000000000E+00  0.00000000000E+00  0.66725638174E+02  0.66725638174E+02  0.00000000000E+00 0.  1.
          1   -1    0    0  501    0  0.00000000000E+00 -0.00000000000E+00 -0.22520029966E+03  0.22520029966E+03  0.00000000000E+00 0. -1.
         25    2    1    2    0    0  0.57373055223E+02 -0.15131848984E+02 -0.94563740019E+02  0.16766188477E+03  0.12509023287E+03 0.  0.
          5    1    3    3  502    0 -0.21136758077E+02 -0.37141141569E+02 -0.70498638189E+02  0.82545486403E+02  0.41800000000E+01 0. -1.
         -5    1    3    3    0  502  0.78509813300E+02  0.22009292586E+02 -0.24065101830E+02  0.85116398365E+02  0.41800000000E+01 0. -1.
        -11    1    1    2    0    0 -0.74155454257E+02 -0.10813137712E+02 -0.38461501630E+02  0.84233262141E+02  0.00000000000E+00 0.  1.
         11    1    1    2    0    0  0.16782399034E+02  0.25944986696E+02 -0.25449419838E+02  0.40030790925E+02  0.00000000000E+00 0. -1.
</event>
<event>
 7    1  0.2490079E-009  0.1009025E+03  0.7561462E-02  0.1278410E+00
          2   -1    0    0  501    0  0.00000000000E+00  0.00000000000E+00  0.10568639746E+03  0.10568639746E+03  0.00000000000E+00 0. -1.
         -2   -1    0    0    0  501 -0.00000000000E+00 -0.00000000000E+00 -0.15229710266E+03  0.15229710266E+03  0.00000000000E+00 0.  1.
         25    2    1    2    0    0  0.26138462493E+02  0.59164943864E+02 -0.17201610973E+02  0.14187158954E+03  0.12509173712E+03 0.  0.
          5    1    3    3  502    0  0.33477827245E+01 -0.27216396733E+02  0.29905355356E+02  0.40789000714E+02  0.41800000000E+01 0.  1.
         -5    1    3    3    0  502  0.22790679768E+02  0.86381340597E+02 -0.47106966329E+02  0.10108258883E+03  0.41800000000E+01 0.  1.
        -11    1    1    2    0    0  0.12747140370E+02 -0.38584693863E+02 -0.52528251731E+02  0.66411485588E+02  0.00000000000E+00 0.  1.
         11    1    1    2    0    0 -0.38885602862E+02 -0.20580250002E+02  0.23119157502E+02  0.49700424985E+02  0.00000000000E+00 0. -1.
</event>
<event>
 7    1  0.2490079E-009  0.1850039E+03  0.7561462E-02  0.1163046E+00
          2   -1    0    0  501    0  0.00000000000E+00  0.00000000000E+00  0.82453784771E+03  0.82453784771E+03  0.00000000000E+00 0. -1.
         -2   -1    0    0    0  501 -0.00000000000E+00 -0.00000000000E+00 -0.52859761730E+02  0.52859761730E+02  0.00000000000E+00 0.  1.
         25    2    1    2    0    0  0.10799706358E+03 -0.13591943627E+03  0.31696790177E+03  0.38243070227E+03  0.12508849823E+03 0.  0.
          5    1    3    3  502    0  0.99588996064E+02 -0.94832365955E+02  0.31072891158E+03  0.33982506479E+03  0.41800000000E+01 0.  1.
         -5    1    3    3    0  502  0.84080675135E+01 -0.41087070314E+02  0.62389901900E+01  0.42605637478E+02  0.41800000000E+01 0.  1.
        -11    1    1    2    0    0  0.12531021502E+02  0.10686405072E+02  0.15501632148E+02  0.22616948346E+02  0.00000000000E+00 0.  1.
         11    1    1    2    0    0 -0.12052808508E+03  0.12523303120E+03  0.43920855206E+03  0.47234995883E+03  0.00000000000E+00 0. -1.
</event>
<event>
 7    1  0.2490079E-009  0.5480059E+02  0.7561462E-02  0.1421044E+00
          1   -1    0    0  501    0  0.00000000000E+00  0.00000000000E+00  0.12238028231E+03  0.12238028231E+03  0.00000000000E+00 0. -1.
         -1   -1    0    0    0  501 -0.00000000000E+00 -0.00000000000E+00 -0.10441772350E+03  0.10441772350E+03  0.00000000000E+00 0.  1.
         25    2    1    2    0    0 -0.26384898212E+02 -0.21349812140E+02  0.52069320139E+01  0.12971466995E+03  0.12508719410E+03 0.  0.
          5    1    3    3  502    0 -0.34710322867E+02 -0.28528738706E+01  0.60908783476E+02  0.70287251386E+02  0.41800000000E+01 0.  1.
         -5    1    3    3    0  502  0.83254246545E+01 -0.18496938270E+02 -0.55701851462E+02  0.59427418565E+02  0.41800000000E+01 0.  1.
        -11    1    1    2    0    0 -0.95979057142E+01 -0.33535612799E+01 -0.32593505868E+02  0.34142389959E+02  0.00000000000E+00 0.  1.
         11    1    1    2    0    0  0.35982803926E+02  0.24703373420E+02  0.45349132661E+02  0.62940945893E+02  0.00000000000E+00 0. -1.
</event>
<event>
 7    1  0.2490079E-009  0.1360408E+03  0.7561462E-02  0.1218758E+00
          2   -1    0    0  501    0  0.00000000000E+00  0.00000000000E+00  0.45711025734E+03  0.45711025734E+03  0.00000000000E+00 0. -1.
         -2   -1    0    0    0  501 -0.00000000000E+00 -0.00000000000E+00 -0.71313876942E+02  0.71313876942E+02  0.00000000000E+00 0.  1.
         25    2    1    2    0    0 -0.22770039896E+02  0.12159374926E+03  0.31072226974E+03  0.35707053487E+03  0.12509006108E+03 0.  0.
          5    1    3    3  502    0 -0.41644407946E+02  0.65343254647E+02  0.56513775833E+02  0.95996233779E+02  0.41800000000E+01 0.  1.
         -5    1    3    3    0  502  0.18874368050E+02  0.56250494610E+02  0.25420849391E+03  0.26107430109E+03  0.41800000000E+01 0.  1.
        -11    1    1    2    0    0  0.20318004535E+02 -0.87310644422E+01 -0.15177755329E+02  0.26821950925E+02  0.00000000000E+00 0.  1.
         11    1    1    2    0    0  0.24520353607E+01 -0.11286268481E+03  0.90251865984E+02  0.14453164849E+03  0.00000000000E+00 0. -1.
</event>
<event>
 7    1  0.2490079E-009  0.9359511E+02  0.7561462E-02  0.1294372E+00
         -1   -1    0    0    0  501 -0.00000000000E+00  0.00000000000E+00  0.16596800220E+02  0.16596800220E+02  0.00000000000E+00 0.  1.
          1   -1    0    0  501    0  0.00000000000E+00 -0.00000000000E+00 -0.98214237803E+03  0.98214237803E+03  0.00000000000E+00 0. -1.
         25    2    1    2    0    0 -0.11562310424E+02 -0.64812761945E+02 -0.49646053307E+03  0.51619280607E+03  0.12509025143E+03 0.  0.
          5    1    3    3  502    0  0.18163695511E+02 -0.56465153532E+02 -0.47416758980E+03  0.47788137547E+03  0.41800000000E+01 0. -1.
         -5    1    3    3    0  502 -0.29726005935E+02 -0.83476084126E+01 -0.22292943269E+02  0.38311430600E+02  0.41800000000E+01 0. -1.
        -11    1    1    2    0    0 -0.14180929544E+02 -0.10066100743E+02 -0.19865635325E+02  0.26402056999E+02  0.00000000000E+00 0.  1.
         11    1    1    2    0    0  0.25743239968E+02  0.74878862687E+02 -0.44921940941E+03  0.45614431518E+03  0.00000000000E+00 0. -1.
</event>
<event>
 7    1  0.2490079E-009  0.1185743E+03  0.7561462E-02  0.1245468E+00
         -2   -1    0    0    0  501 -0.00000000000E+00  0.00000000000E+00  0.12639396179E+02  0.12639396179E+02  0.00000000000E+00 0. -1.
          2   -1    0    0  501    0  0.00000000000E+00 -0.00000000000E+00 -0.17057694227E+04  0.17057694227E+04  0.00000000000E+00 0.  1.
         25    2    1    2    0    0  0.42227323326E+02 -0.42777792933E+02 -0.13723000443E+04  0.13793000723E+04  0.12509273152E+03 0.  0.
          5    1    3    3  502    0  0.20792416536E+02 -0.82798008654E+02 -0.10896247125E+04  0.10929717843E+04  0.41800000000E+01 0.  1.
         -5    1    3    3    0  502  0.21434906791E+02  0.40020215721E+02 -0.28267533183E+03  0.28632828802E+03  0.41800000000E+01 0.  1.
        -11    1    1    2    0    0  0.25072136195E+02 -0.21566026345E+01 -0.11957491394E+03  0.12219420195E+03  0.00000000000E+00 0. -1.
         11    1    1    2    0    0 -0.67299459521E+02  0.44934395567E+02 -0.20125506829E+03  0.21691454463E+03  0.00000000000E+00 0.  1.
</event>
<event>
 7    1  0.2490079E-009  0.2388683E+03  0.7561462E-02  0.1120549E+00
          1   -1    0    0  501    0  0.00000000000E+00  0.00000000000E+00  0.13581009668E+03  0.13581009668E+03  0.00000000000E+00 0. -1.
         -1   -1    0    0    0  501 -0.00000000000E+00 -0.00000000000E+00 -0.46541083793E+03  0.46541083793E+03  0.00000000000E+00 0.  1.
         25    2    1    2    0    0 -0.18541202762E+03 -0.12781396025E+03 -0.13982579502E+03  0.29310975851E+03  0.12509216266E+03 0.  0.
          5    1    3    3  502    0  0.11326681486E+02 -0.30826465529E+02 -0.40436635474E+02  0.52260487742E+02  0.41800000000E+01 0.  1.
         -5    1    3    3    0  502 -0.19673870911E+03 -0.96987494718E+02 -0.99389159547E+02  0.24084927077E+03  0.41800000000E+01 0.  1.
        -11    1    1    2    0    0  0.11074973263E+03  0.79062912235E+02 -0.16823372733E+03  0.21637706528E+03  0.00000000000E+00 0.  1.
         11    1    1    2    0    0  0.74662294993E+02  0.48751048013E+02 -0.21541218898E+02  0.91734110818E+02  0.00000000000E+00 0. -1.
</event>
<event>
 7    1  0.2490079E-009  0.8833296E+02  0.7561462E-02  0.1306940E+00
         -1   -1    0    0    0  501 -0.00000000000E+00  0.00000000000E+00  0.25481805902E+02  0.25481805902E+02  0.00000000000E+00 0.  1.
          1   -1    0    0  501    0  0.00000000000E+00 -0.00000000000E+00 -0.75437728563E+03  0.75437728563E+03  0.00000000000E+00 0. -1.
         25    2    1    2    0    0  0.12894985337E+02  0.33725024398E+01 -0.64353521704E+03  0.65571744956E+03  0.12510053421E+03 0.  0.
          5    1    3    3  502    0 -0.24087707529E+00 -0.58001064434E+02 -0.22086452286E+03  0.22839174976E+03  0.41800000000E+01 0. -1.
         -5    1    3    3    0  502  0.13135862412E+02  0.61373566874E+02 -0.42267069418E+03  0.42732569980E+03  0.41800000000E+01 0. -1.
        -11    1    1    2    0    0 -0.21888911930E+02  0.20568648899E+02  0.48059220415E+01  0.30418590856E+02  0.00000000000E+00 0.  1.
         11    1    1    2    0    0  0.89939265929E+01 -0.23941151339E+02 -0.90166184724E+02  0.93723051117E+02  0.00000000000E+00 0. -1.
</event>
<event>
 7    1  0.2490079E-009  0.1599806E+03  0.7561462E-02  0.1188719E+00
         -2   -1    0    0    0  501 -0.00000000000E+00  0.00000000000E+00  0.38962252242E+02  0.38962252242E+02  0.00000000000E+00 0.  1.
          2   -1    0    0  501    0  0.00000000000E+00 -0.00000000000E+00 -0.83941105745E+03  0.83941105745E+03  0.00000000000E+00 0. -1.
         25    2    1    2    0    0  0.31697057371E+02  0.14061342993E+03 -0.45934117475E+03  0.49741247044E+03  0.12509200935E+03 0.  0.
          5    1    3    3  502    0 -0.20002170832E+02  0.49133780535E+01 -0.67450046166E+01  0.22072507994E+02  0.41800000000E+01 0.  1.
         -5    1    3    3    0  502  0.51699228203E+02  0.13570005188E+03 -0.45259617013E+03  0.47533996244E+03  0.41800000000E+01 0.  1.
        -11    1    1    2    0    0 -0.46774781021E+02 -0.11050470217E+03 -0.31862561003E+03  0.34047239052E+03  0.00000000000E+00 0. -1.
         11    1    1    2    0    0  0.15077723650E+02 -0.30108727765E+02 -0.22482020423E+02  0.40488448728E+02  0.00000000000E+00 0.  1.
</event>
<event>
 7    1  0.2788574E-009  0.1818268E+03  0.7561462E-02  0.1166047E+00
          1   -1    0    0  501    0  0.00000000000E+00  0.00000000000E+00  0.44559066932E+03  0.44559066932E+03  0.00000000000E+00 0. -1.
         -1   -1    0    0    0  501 -0.00000000000E+00 -0.00000000000E+00 -0.87303277188E+02  0.87303277188E+02  0.00000000000E+00 0.  1.
         25    2    1    2    0    0  0.15109623150E+03 -0.62497148025E+02  0.16991361610E+03  0.26694072316E+03  0.12510294984E+03 0.  0.
          5    1    3    3  502    0 -0.11019971835E+02  0.45839872153E+00 -0.10878490424E+02  0.16045680495E+02  0.41800000000E+01 0. -1.
         -5    1    3    3    0  502  0.16211620334E+03 -0.62955546747E+02  0.18079210653E+03  0.25089504267E+03  0.41800000000E+01 0. -1.
        -11    1    1    2    0    0 -0.97543817921E+02  0.26382509616E+01  0.60080716179E+02  0.11459253571E+03  0.00000000000E+00 0. -1.
         11    1    1    2    0    0 -0.53552413583E+02  0.59858897064E+02  0.12829305984E+03  0.15136068764E+03  0.00000000000E+00 0.  1.
</event>
<event>
 7    1  0.2490079E-009  0.1426439E+03  0.7561462E-02  0.1209815E+00
         -2   -1    0    0    0  501 -0.00000000000E+00  0.00000000000E+00  0.15607524285E+03  0.15607524285E+03  0.00000000000E+00 0.  1.
          2   -1    0    0  501    0  0.00000000000E+00 -0.00000000000E+00 -0.13284787144E+03  0.13284787144E+03  0.00000000000E+00 0. -1.
         25    2    1    2    0    0 -0.35262009805E+02 -0.82783642959E+02  0.22358761884E+00  0.15409142039E+03  0.12509026729E+03 0.  0.
          5    1    3    3  502    0 -0.11899911379E+02 -0.11383453130E+03 -0.51205233000E+01  0.11464554316E+03  0.41800000000E+01 0. -1.
         -5    1    3    3    0  502 -0.23362098427E+02  0.31050888339E+02  0.53441109189E+01  0.39445877238E+02  0.41800000000E+01 0. -1.
        -11    1    1    2    0    0  0.50432015745E+02  0.30647601921E+01  0.17599341598E+02  0.53502502668E+02  0.00000000000E+00 0.  1.
         11    1    1    2    0    0 -0.15170005939E+02  0.79718882767E+02  0.54044421900E+01  0.81329191224E+02  0.00000000000E+00 0. -1.
</event>
<event>
 7    1  0.2490079E-009  0.1346242E+03  0.7561462E-02  0.1220751E+00
         -4   -1    0    0    0  501 -0.00000000000E+00  0.00000000000E+00  0.29116414389E+03  0.29116414389E+03  0.00000000000E+00 0.  1.
          4   -1    0    0  501    0  0.00000000000E+00 -0.00000000000E+00 -0.12265021787E+03  0.12265021787E+03  0.00000000000E+00 0. -1.
         25    2    1    2    0    0  0.17341154952E+02 -0.99946362311E+02 -0.38866765577E+02  0.16567587008E+03  0.12509147639E+03 0.  0.
          5    1    3    3  502    0 -0.24993011590E+02 -0.10095051054E+03 -0.57853184564E+02  0.11908030724E+03  0.41800000000E+01 0. -1.
         -5    1    3    3    0  502  0.42334166542E+02  0.10041482306E+01  0.18986418987E+02  0.46595562841E+02  0.41800000000E+01 0. -1.
        -11    1    1    2    0    0  0.23235710376E+02  0.65119834693E+02  0.16817348780E+03  0.18183182644E+03  0.00000000000E+00 0.  1.
         11    1    1    2    0    0 -0.40576865328E+02  0.34826527618E+02  0.39207203798E+02  0.66306665241E+02  0.00000000000E+00 0. -1.
</event>
<event>
 7    1  0.2490079E-009  0.1352608E+03  0.7561462E-02  0.1219852E+00
         -1   -1    0    0    0  501 -0.00000000000E+00  0.00000000000E+00  0.98817865535E+02  0.98817865535E+02  0.00000000000E+00 0.  1.
          1   -1    0    0  501    0  0.00000000000E+00 -0.00000000000E+00 -0.18717938914E+03  0.18717938914E+03  0.00000000000E+00 0. -1.
         25    2    1    2    0    0  0.50715663390E+02  0.63413726632E+02 -0.38421468017E+02  0.15400359822E+03  0.12509004686E+03 0.  0.
          5    1    3    3  502    0  0.90768336332E+02  0.59100182595E+02 -0.31826822936E+02  0.11296964867E+03  0.41800000000E+01 0.  1.
         -5    1    3    3    0  502 -0.40052672942E+02  0.43135440367E+01 -0.65946450802E+01  0.41033949550E+02  0.41800000000E+01 0.  1.
        -11    1    1    2    0    0  0.23354321337E+02 -0.35456367769E+02 -0.23489292212E+02  0.48521388986E+02  0.00000000000E+00 0. -1.
         11    1    1    2    0    0 -0.74069984727E+02 -0.27957358862E+02 -0.26450763371E+02  0.83472267460E+02  0.00000000000E+00 0.  1.
</event>
<event>
 7    1  0.2490079E-009  0.7311077E+02  0.7561462E-02  0.1349823E+00
         -2   -1    0    0    0  501 -0.00000000000E+00  0.00000000000E+00  0.47908056189E+02  0.47908056189E+02  0.00000000000E+00 0.  1.
          2   -1    0    0  501    0  0.00000000000E+00 -0.00000000000E+00 -0.34809330230E+03  0.34809330230E+03  0.00000000000E+00 0. -1.
         25    2    1    2    0    0  0.33247819696E+01 -0.30016309593E+02 -0.26526430975E+03  0.29483032698E+03  0.12509090560E+03 0.  0.
          5    1    3    3  502    0 -0.35407311076E+02  0.61869350852E+00 -0.13331500181E+02  0.38069170682E+02  0.41800000000E+01 0.  1.
         -5    1    3    3    0  502  0.38732093046E+02 -0.30635003102E+02 -0.25193280957E+03  0.25676115630E+03  0.41800000000E+01 0.  1.
        -11    1    1    2    0    0 -0.28209599658E+02  0.15264168203E+02 -0.56575556274E+02  0.65035143664E+02  0.00000000000E+00 0. -1.
         11    1    1    2    0    0  0.24884817688E+02  0.14752141390E+02  0.21654619910E+02  0.36135887846E+02  0.00000000000E+00 0.  1.
</event>
<event>
 7    1  0.2490079E-009  0.1095183E+03  0.7561462E-02  0.1261464E+00
          1   -1    0    0  501    0  0.00000000000E+00  0.00000000000E+00  0.25817075650E+03  0.25817075650E+03  0.00000000000E+00 0. -1.
         -1   -1    0    0    0  501 -0.00000000000E+00 -0.00000000000E+00 -0.64093397806E+02  0.64093397806E+02  0.00000000000E+00 0.  1.
         25    2    1    2    0    0 -0.22474811208E+01 -0.68560782186E+02  0.10629517538E+03  0.17790229819E+03  0.12507970006E+03 0.  0.
          5    1    3    3  502    0 -0.59298609942E+02 -0.10082612027E+02  0.52921242419E+02  0.80225398133E+02  0.41800000000E+01 0.  1.
         -5    1    3    3    0  502  0.57051128821E+02 -0.58478170159E+02  0.53373932963E+02  0.97676900058E+02  0.41800000000E+01 0.  1.
        -11    1    1    2    0    0 -0.13097247200E+02  0.10221662590E+02 -0.16801130024E+02  0.23628335540E+02  0.00000000000E+00 0.  1.
         11    1    1    2    0    0  0.15344728320E+02  0.58339119596E+02  0.10458331333E+03  0.12073352057E+03  0.00000000000E+00 0. -1.
</event>
<event>
 7    1  0.2490079E-009  0.1302433E+03  0.7561462E-02  0.1227095E+00
         -1   -1    0    0    0  501 -0.00000000000E+00  0.00000000000E+00  0.47993821614E+02  0.47993821614E+02  0.00000000000E+00 0.  1.
          1   -1    0    0  501    0  0.00000000000E+00 -0.00000000000E+00 -0.58468495472E+03  0.58468495472E+03  0.00000000000E+00 0. -1.
         25    2    1    2    0    0  0.10688945823E+02  0.12226827772E+03 -0.21938350764E+03  0.28078882360E+03  0.12509778070E+03 0.  0.
          5    1    3    3  502    0  0.64193330642E+00  0.33581618881E+02  0.94401398192E+01  0.35138665952E+02  0.41800000000E+01 0.  1.
         -5    1    3    3    0  502  0.10047012517E+02  0.88686658838E+02 -0.22882364746E+03  0.24565015765E+03  0.41800000000E+01 0.  1.
        -11    1    1    2    0    0 -0.34187371756E+02 -0.96682296281E+02 -0.15462886336E+03  0.18554333237E+03  0.00000000000E+00 0.  1.
         11    1    1    2    0    0  0.23498425933E+02 -0.25585981438E+02 -0.16267876211E+03  0.16634662037E+03  0.00000000000E+00 0. -1.
</event>
<event>
 7    1  0.2490079E-009  0.3005870E+03  0.7561462E-02  0.1084948E+00
          2   -1    0    0  501    0  0.00000000000E+00  0.00000000000E+00  0.59839301434E+03  0.59839301434E+03  0.00000000000E+00 0.  1.
         -2   -1    0    0    0  501 -0.00000000000E+00 -0.00000000000E+00 -0.16270369481E+03  0.16270369481E+03  0.00000000000E+00 0. -1.
         25    2    1    2    0    0 -0.28021917614E+03 -0.47938568200E+02  0.14136018217E+03  0.34125081121E+03  0.12509405282E+03 0.  0.
          5    1    3    3  502    0 -0.28231535897E+02  0.28591967524E+02 -0.36887591693E+01  0.40565990315E+02  0.41800000000E+01 0. -1.
         -5    1    3    3    0  502 -0.25198764025E+03 -0.76530535724E+02  0.14504894134E+03  0.30068482090E+03  0.41800000000E+01 0. -1.
        -11    1    1    2    0    0  0.13572034266E+03  0.67489480041E+02  0.17426133647E+03  0.23095855628E+03  0.00000000000E+00 0. -1.
         11    1    1    2    0    0  0.14449883348E+03 -0.19550911841E+02  0.12006780089E+03  0.18888734167E+03  0.00000000000E+00 0.  1.
</event>
<event>
 7    1  0.2490079E-009  0.9403028E+02  0.7561462E-02  0.1293375E+00
          2   -1    0    0  501    0  0.00000000000E+00  0.00000000000E+00  0.91187488349E+03  0.91187488349E+03  0.00000000000E+00 0. -1.
         -2   -1    0    0    0  501 -0.00000000000E+00 -0.00000000000E+00 -0.20822501396E+02  0.20822501396E+02  0.00000000000E+00 0.  1.
         25    2    1    2    0    0 -0.41625991411E+02  0.27548244641E+02  0.72059261616E+03  0.73307190479E+03  0.12509624371E+03 0.  0.
          5    1    3    3  502    0  0.28403929552E+02  0.26457723818E+00  0.45537255846E+02  0.53832771479E+02  0.41800000000E+01 0.  1.
         -5    1    3    3    0  502 -0.70029920963E+02  0.27283667402E+02  0.67505536031E+03  0.67923913332E+03  0.41800000000E+01 0.  1.
        -11    1    1    2    0    0  0.30715862538E+02  0.19099383613E+02  0.13569827841E+03  0.14043601187E+03  0.00000000000E+00 0.  1.
         11    1    1    2    0    0  0.10910128873E+02 -0.46647628254E+02  0.34761487521E+02  0.59189468222E+02  0.00000000000E+00 0. -1.
</event>
<event>
 7    1  0.2490079E-009  0.2480738E+03  0.7561462E-02  0.1114528E+00
         -2   -1    0    0    0  501 -0.00000000000E+00  0.00000000000E+00  0.33946895485E+03  0.33946895485E+03  0.00000000000E+00 0.  1.
          2   -1    0    0  501    0  0.00000000000E+00 -0.00000000000E+00 -0.19217715553E+03  0.19217715553E+03  0.00000000000E+00 0. -1.
         25    2    1    2    0    0 -0.23017806294E+03 -0.56571229676E+01  0.40882293469E+02  0.26520287876E+03  0.12508901345E+03 0.  0.
          5    1    3    3  502    0 -0.70753205101E+02  0.53463982910E+02 -0.53653750183E+01  0.88941965066E+02  0.41800000000E+01 0.  1.
         -5    1    3    3    0  502 -0.15942485784E+03 -0.59121105877E+02  0.46247668487E+02  0.17626091370E+03  0.41800000000E+01 0.  1.
        -11    1    1    2    0    0  0.10610816237E+03 -0.25979549066E+02  0.80776097218E+02  0.13586264010E+03  0.00000000000E+00 0.  1.
         11    1    1    2    0    0  0.12406990056E+03  0.31636672033E+02  0.25633408636E+02  0.13058059152E+03  0.00000000000E+00 0. -1.
</event>
<event>
 7    1  0.2490079E-009  0.1009220E+03  0.7561462E-02  0.1278369E+00
         -4   -1    0    0    0  501 -0.00000000000E+00  0.00000000000E+00  0.56171020943E+02  0.56171020943E+02  0.00000000000E+00 0. -1.
          4   -1    0    0  501    0  0.00000000000E+00 -0.00000000000E+00 -0.25144932271E+03  0.25144932271E+03  0.00000000000E+00 0.  1.
         25    2    1    2    0    0 -0.41942651316E+02 -0.17081494659E+02 -0.11636440108E+03  0.17674389874E+03  0.12508704347E+03 0.  0.
          5    1    3    3  502    0  0.27758184796E+02 -0.39950695535E+02 -0.82440533221E+02  0.95814867398E+02  0.41800000000E+01 0.  1.
         -5    1    3    3    0  502 -0.69700836112E+02  0.22869200876E+02 -0.33923867863E+02  0.80929031343E+02  0.41800000000E+01 0.  1.
        -11    1    1    2    0    0 -0.99237050810E+01 -0.15417088574E+02  0.11537061418E+02  0.21662648240E+02  0.00000000000E+00 0. -1.
         11    1    1    2    0    0  0.51866356397E+02  0.32498583233E+02 -0.90450962098E+02  0.10921379667E+03  0.00000000000E+00 0.  1.
</event>
<event>
 7    1  0.2490079E-009  0.8312552E+02  0.7561462E-02  0.1320409E+00
          1   -1    0    0  501    0  0.00000000000E+00  0.00000000000E+00  0.24307924479E+03  0.24307924479E+03  0.00000000000E+00 0. -1.
         -1   -1    0    0    0  501 -0.00000000000E+00 -0.00000000000E+00 -0.55353711287E+02  0.55353711287E+02  0.00000000000E+00 0.  1.
         25    2    1    2    0    0 -0.27030136192E+02 -0.16202000785E+02  0.80138801569E+02  0.15187288952E+03  0.12510001583E+03 0.  0.
          5    1    3    3  502    0  0.22691867800E+02 -0.53944893680E+02  0.12986981014E+02  0.60092482843E+02  0.41800000000E+01 0.  1.
         -5    1    3    3    0  502 -0.49722003991E+02  0.37742892895E+02  0.67151820556E+02  0.91780406673E+02  0.41800000000E+01 0.  1.
        -11    1    1    2    0    0  0.24519853876E+01  0.19995540502E+02  0.11792081889E+03  0.11962923304E+03  0.00000000000E+00 0. -1.
         11    1    1    2    0    0  0.24578150804E+02 -0.37935397168E+01 -0.10334086955E+02  0.26930833513E+02  0.00000000000E+00 0.  1.
</event>
<event>
 7    1  0.2490079E-009  0.1078657E+03  0.7561462E-02  0.1264574E+00
         -2   -1    0    0    0  501 -0.00000000000E+00  0.00000000000E+00  0.10362338645E+02  0.10362338645E+02  0.00000000000E+00 0.  1.
          2   -1    0    0  501    0  0.00000000000E+00 -0.00000000000E+00 -0.12615103324E+04  0.12615103324E+04  0.00000000000E+00 0. -1.
         25    2    1    2    0    0 -0.45296405498E+01 -0.94276464085E+01 -0.89298130309E+03  0.90176013516E+03  0.12508531297E+03 0.  0.
          5    1    3    3  502    0 -0.34892857004E+02  0.46810877527E+02 -0.33042342331E+03  0.33556799728E+03  0.41800000000E+01 0. -1.
         -5    1    3    3    0  502  0.30363216454E+02 -0.56238523936E+02 -0.56255787978E+03  0.56619213787E+03  0.41800000000E+01 0. -1.
        -11    1    1    2    0    0  0.28575767506E+02  0.43136240095E+02 -0.18941308385E+03  0.19635331938E+03  0.00000000000E+00 0.  1.
         11    1    1    2    0    0 -0.24046126956E+02 -0.33708593687E+02 -0.16875360680E+03  0.17375921650E+03  0.00000000000E+00 0. -1.
</event>
<event>
 7    1  0.2490079E-009  0.1048218E+03  0.7561462E-02  0.1270471E+00
          1   -1    0    0  501    0  0.00000000000E+00  0.00000000000E+00  0.73039337996E+03  0.73039337996E+03  0.00000000000E+00 0. -1.
         -1   -1    0    0    0  501 -0.00000000000E+00 -0.00000000000E+00 -0.27445914397E+02  0.27445914397E+02  0.00000000000E+00 0.  1.
         25    2    1    2    0    0  0.74893869900E+02 -0.26258531328E+02  0.42662298813E+03  0.45161325823E+03  0.12509499907E+03 0.  0.
          5    1    3    3  502    0  0.35459125547E+02 -0.37213477031E+02  0.47026006120E+02  0.69793338571E+02  0.41800000000E+01 0.  1.
         -5    1    3    3    0  502  0.39434744353E+02  0.10954945703E+02  0.37959698201E+03  0.38181991966E+03  0.41800000000E+01 0.  1.
        -11    1    1    2    0    0 -0.70295654534E+02 -0.17895492450E+02  0.94890791348E+02  0.11944031974E+03  0.00000000000E+00 0. -1.
         11    1    1    2    0    0 -0.45982153657E+01  0.44154023778E+02  0.18143368609E+03  0.18678571639E+03  0.00000000000E+00 0.  1.
</event>
<event>
 7    1  0.2490079E-009  0.1776768E+03  0.7561462E-02  0.1170071E+00
          2   -1    0    0  501    0  0.00000000000E+00  0.00000000000E+00  0.24066937802E+03  0.24066937802E+03  0.00000000000E+00 0. -1.
         -2   -1    0    0    0  501 -0.00000000000E+00 -0.00000000000E+00 -0.16183320172E+03  0.16183320172E+03  0.00000000000E+00 0.  1.
         25    2    1    2    0    0 -0.26178878745E+01  0.14292367508E+03  0.12297679077E+03  0.22628295480E+03  0.12508658734E+03 0.  0.
          5    1    3    3  502    0 -0.14650677133E+02  0.16399252932E+03  0.11290223384E+03  0.19968119295E+03  0.41800000000E+01 0.  1.
         -5    1    3    3    0  502  0.12032789259E+02 -0.21068854241E+02  0.10074556930E+02  0.26601761853E+02  0.41800000000E+01 0.  1.
        -11    1    1    2    0    0  0.41497185157E+02 -0.99174010691E+02 -0.47634912347E+02  0.11758650283E+03  0.00000000000E+00 0.  1.
         11    1    1    2    0    0 -0.38879297283E+02 -0.43749664386E+02  0.34942978832E+01  0.58633122114E+02  0.00000000000E+00 0. -1.
</event>
<event>
 7    1  0.2490079E-009  0.8363208E+02  0.7561462E-02  0.1319049E+00
          4   -1    0    0  501    0  0.00000000000E+00  0.00000000000E+00  0.37312563898E+03  0.37312563898E+03  0.00000000000E+00 0. -1.
         -4   -1    0    0    0  501 -0.00000000000E+00 -0.00000000000E+00 -0.46040119335E+02  0.46040119335E+02  0.00000000000E+00 0.  1.
         25    2    1    2    0    0 -0.40583220883E+02  0.84207247442E+00  0.27687388435E+03  0.30652063545E+03  0.12509214690E+03 0.  0.
          5    1    3    3  502    0 -0.11936014507E+02 -0.25829994616E+02  0.26332372838E+03  0.26488962870E+03  0.41800000000E+01 0. -1.
         -5    1    3    3    0  502 -0.28647206376E+02  0.26672067091E+02  0.13550155970E+02  0.41631006748E+02  0.41800000000E+01 0. -1.
        -11    1    1    2    0    0  0.42572769783E+02 -0.40898142821E+02  0.19639102918E+02  0.62215698796E+02  0.00000000000E+00 0. -1.
         11    1    1    2    0    0 -0.19895489002E+01  0.40056070347E+02  0.30572532380E+02  0.50429424076E+02  0.00000000000E+00 0.  1.
</event>
<event>
 7    1  0.2490079E-009  0.1302491E+03  0.7561462E-02  0.1227087E+00
         -3   -1    0    0    0  501 -0.00000000000E+00  0.00000000000E+00  0.34784833150E+03  0.34784833150E+03  0.00000000000E+00 0.  1.
          3   -1    0    0  501    0  0.00000000000E+00 -0.00000000000E+00 -0.65961007027E+02  0.65961007027E+02  0.00000000000E+00 0. -1.
         25    2    1    2    0    0  0.83163235079E+02 -0.59840727384E+02  0.13713977305E+03  0.21201907827E+03  0.12509091045E+03 0.  0.
          5    1    3    3  502    0  0.49824688446E+02  0.31257179832E+02  0.79912970385E+02  0.99312970479E+02  0.41800000000E+01 0.  1.
         -5    1    3    3    0  502  0.33338546633E+02 -0.91097907216E+02  0.57226802666E+02  0.11270610779E+03  0.41800000000E+01 0.  1.
        -11    1    1    2    0    0 -0.23264603757E+02  0.28638549596E+02  0.12658441825E+03  0.13185227815E+03  0.00000000000E+00 0.  1.
         11    1    1    2    0    0 -0.59898631321E+02  0.31202177788E+02  0.18163133168E+02  0.69937982094E+02  0.00000000000E+00 0. -1.
</event>
<event>
 7    1  0.2490079E-009  0.1396248E+03  0.7561462E-02  0.1213835E+00
          2   -1    0    0  501    0  0.00000000000E+00  0.00000000000E+00  0.75855152950E+03  0.75855152950E+03  0.00000000000E+00 0. -1.
         -2   -1    0    0    0  501 -0.00000000000E+00 -0.00000000000E+00 -0.37647974126E+02  0.37647974126E+02  0.00000000000E+00 0.  1.
         25    2    1    2    0    0 -0.96082425419E+02  0.18216406688E+02  0.58428519830E+03  0.60547515212E+03  0.12508915598E+03 0.  0.
          5    1    3    3  502    0  0.28055037068E+02  0.18151639586E+02  0.15289846195E+03  0.15656301987E+03  0.41800000000E+01 0.  1.
         -5    1    3    3    0  502 -0.12413746249E+03  0.64767102250E-01  0.43138673635E+03  0.44891213225E+03  0.41800000000E+01 0.  1.
        -11    1    1    2    0    0  0.10590388528E+03 -0.65358910174E+01  0.82240112230E+02  0.13424524888E+03  0.00000000000E+00 0.  1.
         11    1    1    2    0    0 -0.98214598569E+01 -0.11680515671E+02  0.54378244848E+02  0.56479102620E+02  0.00000000000E+00 0. -1.
</event>
<event>
 7    1  0.2490079E-009  0.1105462E+03  0.7561462E-02  0.1259562E+00
         -2   -1    0    0    0  501 -0.00000000000E+00  0.00000000000E+00  0.32281391993E+02  0.32281391993E+02  0.00000000000E+00 0.  1.
          2   -1    0    0  501    0  0.00000000000E+00 -0.00000000000E+00 -0.42653627832E+03  0.42653627832E+03  0.00000000000E+00 0. -1.
         25    2    1    2    0    0 -0.23362445618E+02 -0.31123165434E+02 -0.18066892465E+03  0.22316973851E+03  0.12509602935E+03 0.  0.
          5    1    3    3  502    0 -0.67549168104E+02  0.13545412269E+01 -0.59584830560E+02  0.90180648292E+02  0.41800000000E+01 0.  1.
         -5    1    3    3    0  502  0.44186722486E+02 -0.32477706661E+02 -0.12108409409E+03  0.13298909022E+03  0.41800000000E+01 0.  1.
        -11    1    1    2    0    0 -0.16011992562E+02  0.51596378492E+02 -0.99237892728E+02  0.11298995324E+03  0.00000000000E+00 0.  1.
         11    1    1    2    0    0  0.39374438180E+02 -0.20473213058E+02 -0.11434806895E+03  0.12265797857E+03  0.00000000000E+00 0. -1.
</event>
<event>
 7    1  0.2490079E-009  0.1022316E+03  0.7561462E-02  0.1275672E+00
          2   -1    0    0  501    0  0.00000000000E+00  0.00000000000E+00  0.17180108102E+03  0.17180108102E+03  0.00000000000E+00 0.  1.
         -2   -1    0    0    0  501 -0.00000000000E+00 -0.00000000000E+00 -0.11911684443E+03  0.11911684443E+03  0.00000000000E+00 0. -1.
         25    2    1    2    0    0 -0.48414255512E+02  0.75702375364E+02  0.46392645619E+02  0.16085569119E+03  0.12508991186E+03 0.  0.
          5    1    3    3  502    0 -0.47172883216E+02  0.79124471084E+02  0.82858098554E+02  0.12397136658E+03  0.41800000000E+01 0. -1.
         -5    1    3    3    0  502 -0.12413722960E+01 -0.34220957194E+01 -0.36465452935E+02  0.36884324612E+02  0.41800000000E+01 0. -1.
        -11    1    1    2    0    0  0.44111683018E+02 -0.85387399518E+02  0.32770022482E+02  0.10154173008E+03  0.00000000000E+00 0.  1.
         11    1    1    2    0    0  0.43025724942E+01  0.96850241537E+01 -0.26478431516E+02  0.28520504177E+02  0.00000000000E+00 0. -1.
</event>
<event>
 7    1  0.2490079E-009  0.9259875E+02  0.7561462E-02  0.1296678E+00
         -3   -1    0    0    0  501 -0.00000000000E+00  0.00000000000E+00  0.71447011845E+02  0.71447011845E+02  0.00000000000E+00 0.  1.
          3   -1    0    0  501    0  0.00000000000E+00 -0.00000000000E+00 -0.21430699753E+03  0.21430699753E+03  0.00000000000E+00 0. -1.
         25    2    1    2    0    0 -0.20061181258E+02  0.61708255985E+02 -0.72435152090E+02  0.15844642753E+03  0.12509220315E+03 0.  0.
          5    1    3    3  502    0 -0.37756704937E+02  0.38684188884E+02  0.22784057638E+02  0.58810040978E+02  0.41800000000E+01 0. -1.
         -5    1    3    3    0  502  0.17695523680E+02  0.23024067101E+02 -0.95219209728E+02  0.99636386553E+02  0.41800000000E+01 0. -1.
        -11    1    1    2    0    0 -0.13896622029E+02  0.13343612928E+02 -0.52802045139E+00  0.19272958138E+02  0.00000000000E+00 0.  1.
         11    1    1    2    0    0  0.33957803286E+02 -0.75051868913E+02 -0.69896813140E+02  0.10803462370E+03  0.00000000000E+00 0. -1.
</event>
<event>
 7    1  0.2490079E-009  0.1130472E+03  0.7561462E-02  0.1255029E+00
         -1   -1    0    0    0  501 -0.00000000000E+00  0.00000000000E+00  0.59376216975E+03  0.59376216975E+03  0.00000000000E+00 0.  1.
          1   -1    0    0  501    0  0.00000000000E+00 -0.00000000000E+00 -0.29465902452E+02  0.29465902452E+02  0.00000000000E+00 0. -1.
         25    2    1    2    0    0  0.39946451153E+02  0.21889336106E+02  0.44992674327E+03  0.46920840796E+03  0.12509034256E+03 0.  0.
          5    1    3    3  502    0  0.67991938234E+02  0.50584011873E+02  0.22048538029E+03  0.23624758463E+03  0.41800000000E+01 0.  1.
         -5    1    3    3    0  502 -0.28045487081E+02 -0.28694675767E+02  0.22944136298E+03  0.23296082334E+03  0.41800000000E+01 0.  1.
        -11    1    1    2    0    0  0.28970812487E+02 -0.11678192198E+02  0.21490928333E+02  0.37915012195E+02  0.00000000000E+00 0. -1.
         11    1    1    2    0    0 -0.68917263640E+02 -0.10211143908E+02  0.92878595701E+02  0.11610465205E+03  0.00000000000E+00 0.  1.
</event>
<event>
 7    1  0.2490079E-009  0.9639535E+02  0.7561462E-02  0.1288064E+00
          1   -1    0    0  501    0  0.00000000000E+00  0.00000000000E+00  0.19249817803E+04  0.19249817803E+04  0.00000000000E+00 0. -1.
         -1   -1    0    0    0  501 -0.00000000000E+00 -0.00000000000E+00 -0.15262804703E+02  0.15262804703E+02  0.00000000000E+00 0.  1.
         25    2    1    2    0    0  0.36057151656E+02  0.38839138692E+02  0.17008150180E+04  0.17062322011E+04  0.12509197303E+03 0.  0.
          5    1    3    3  502    0  0.26988339333E+02 -0.17862312110E+02  0.11967735064E+03  0.12404665779E+03  0.41800000000E+01 0.  1.
         -5    1    3    3    0  502  0.90688123227E+01  0.56701450802E+02  0.15811376674E+04  0.15821855433E+04  0.41800000000E+01 0.  1.
        -11    1    1    2    0    0 -0.11248241138E+02 -0.65329187464E+02  0.15935513318E+03  0.17259340698E+03  0.00000000000E+00 0. -1.
         11    1    1    2    0    0 -0.24808910518E+02  0.26490048772E+02  0.49548824398E+02  0.61418976906E+02  0.00000000000E+00 0.  1.
</event>
<event>
 7    1  0.2490079E-009  0.1329290E+03  0.7561462E-02  0.1223173E+00
          4   -1    0    0  501    0  0.00000000000E+00  0.00000000000E+00  0.16583090915E+04  0.16583090915E+04  0.00000000000E+00 0. -1.
         -4   -1    0    0    0  501 -0.00000000000E+00 -0.00000000000E+00 -0.15450071234E+02  0.15450071234E+02  0.00000000000E+00 0.  1.
         25    2    1    2    0    0  0.83168883235E+02 -0.14390929668E+02  0.12665553513E+04  0.12755134741E+04  0.12509197704E+03 0.  0.
          5    1    3    3  502    0  0.94909019929E+02  0.31252377951E+02  0.71975291489E+03  0.72666784990E+03  0.41800000000E+01 0.  1.
         -5    1    3    3    0  502 -0.11740136694E+02 -0.45643307619E+02  0.54680243638E+03  0.54884562417E+03  0.41800000000E+01 0.  1.
        -11    1    1    2    0    0  0.10616735699E+02  0.22013236666E+02  0.26681612192E+02  0.36182953094E+02  0.00000000000E+00 0.  1.
         11    1    1    2    0    0 -0.93785618935E+02 -0.76223069980E+01  0.34962205684E+03  0.36206273561E+03  0.00000000000E+00 0. -1.
</event>
<event>
 7    1  0.2490079E-009  0.2456836E+03  0.7561462E-02  0.1116063E+00
         -1   -1    0    0    0  501 -0.00000000000E+00  0.00000000000E+00  0.27761923145E+03  0.27761923145E+03  0.00000000000E+00 0.  1.
          1   -1    0    0  501    0  0.00000000000E+00 -0.00000000000E+00 -0.23573755836E+03  0.23573755836E+03  0.00000000000E+00 0. -1.
         25    2    1    2    0    0  0.79779532339E+02 -0.21691341906E+03  0.14037821568E+02  0.26317423290E+03  0.12508961299E+03 0.  0.
          5    1    3    3  502    0  0.42029780965E+02 -0.21819491131E+03  0.24937175752E+02  0.22364001642E+03  0.41800000000E+01 0.  1.
         -5    1    3    3    0  502  0.37749751374E+02  0.12814922457E+01 -0.10899354184E+02  0.39534216481E+02  0.41800000000E+01 0.  1.
        -11    1    1    2    0    0 -0.49325672725E+02  0.13455866417E+03 -0.28136260438E+02  0.14605035175E+03  0.00000000000E+00 0.  1.
         11    1    1    2    0    0 -0.30453859613E+02  0.82354754887E+02  0.55980111955E+02  0.10413220516E+03  0.00000000000E+00 0. -1.
</event>
<event>
 7    1  0.2490079E-009  0.8813180E+02  0.7561462E-02  0.1307440E+00
          2   -1    0    0  501    0  0.00000000000E+00  0.00000000000E+00  0.65922677980E+03  0.65922677980E+03  0.00000000000E+00 0. -1.
         -2   -1    0    0    0  501 -0.00000000000E+00 -0.00000000000E+00 -0.16289637693E+02  0.16289637693E+02  0.00000000000E+00 0.  1.
         25    2    1    2    0    0  0.12565141181E+02 -0.95472631433E+00  0.42853931802E+03  0.44660100256E+03  0.12509082351E+03 0.  0.
          5    1    3    3  502    0  0.26305213899E+02 -0.47941869036E+02  0.96917337851E+02  0.11135901338E+03  0.41800000000E+01 0. -1.
         -5    1    3    3    0  502 -0.13740072718E+02  0.46987142722E+02  0.33162198016E+03  0.33524198918E+03  0.41800000000E+01 0. -1.
        -11    1    1    2    0    0 -0.30671165028E+02  0.26799925148E+02  0.16755801755E+03  0.17243736717E+03  0.00000000000E+00 0. -1.
         11    1    1    2    0    0  0.18106023848E+02 -0.25845198834E+02  0.46839806543E+02  0.56478047765E+02  0.00000000000E+00 0.  1.
</event>
<event>
 7    1  0.2490079E-009  0.1019876E+03  0.7561462E-02  0.1276171E+00
          1   -1    0    0  501    0  0.00000000000E+00  0.00000000000E+00  0.21485943871E+03  0.21485943871E+03  0.00000000000E+00 0. -1.
         -1   -1    0    0    0  501 -0.00000000000E+00 -0.00000000000E+00 -0.65488084419E+02  0.65488084419E+02  0.00000000000E+00 0.  1.
         25    2    1    2    0    0 -0.44666195420E+02 -0.98223485593E+01  0.10404972186E+03  0.16901195237E+03  0.12508856015E+03 0.  0.
          5    1    3    3  502    0  0.17547993214E+02  0.45270660783E+02  0.27537137031E+02  0.55974379045E+02  0.41800000000E+01 0. -1.
         -5    1    3    3    0  502 -0.62214188634E+02 -0.55093009342E+02  0.76512584825E+02  0.11303757332E+03  0.41800000000E+01 0. -1.
        -11    1    1    2    0    0  0.50547239376E+02 -0.98550942485E+01  0.64975339535E+02  0.82909233737E+02  0.00000000000E+00 0. -1.
         11    1    1    2    0    0 -0.58810439565E+01  0.19677442808E+02 -0.19653707105E+02  0.28426337021E+02  0.00000000000E+00 0.  1.
</event>
<event>
 7    1  0.2490079E-009  0.9123426E+02  0.7561462E-02  0.1299890E+00
         -2   -1    0    0    0  501 -0.00000000000E+00  0.00000000000E+00  0.25431598873E+02  0.25431598873E+02  0.00000000000E+00 0.  1.
          2   -1    0    0  501    0  0.00000000000E+00 -0.00000000000E+00 -0.54467351393E+03  0.54467351393E+03  0.00000000000E+00 0. -1.
         25    2    1    2    0    0 -0.13788461528E+00 -0.43354063906E+02 -0.33945577045E+03  0.36435253298E+03  0.12507179669E+03 0.  0.
          5    1    3    3  502    0  0.34371567089E+02 -0.33712369938E+02 -0.31948531104E+03  0.32311958295E+03  0.41800000000E+01 0.  1.
         -5    1    3    3    0  502 -0.34509451705E+02 -0.96416939677E+01 -0.19970459409E+02  0.41232950035E+02  0.41800000000E+01 0.  1.
        -11    1    1    2    0    0 -0.37438441617E+02 -0.39611119975E+01 -0.49974460006E+02  0.62568154614E+02  0.00000000000E+00 0.  1.
         11    1    1    2    0    0  0.37576326232E+02  0.47315175903E+02 -0.12981168460E+03  0.14318442521E+03  0.00000000000E+00 0. -1.
</event>
<event>
 7    1  0.2490079E-009  0.1173566E+03  0.7561462E-02  0.1247523E+00
          2   -1    0    0  501    0  0.00000000000E+00  0.00000000000E+00  0.83261156246E+03  0.83261156246E+03  0.00000000000E+00 0. -1.
         -2   -1    0    0    0  501 -0.00000000000E+00 -0.00000000000E+00 -0.19202985557E+02  0.19202985557E+02  0.00000000000E+00 0.  1.
         25    2    1    2    0    0  0.33759560623E-01  0.49816578326E+02  0.60092288405E+03  0.61582210528E+03  0.12508741007E+03 0.  0.
          5    1    3    3  502    0  0.40463259507E+02  0.74276945083E+02  0.43898859746E+03  0.44708254388E+03  0.41800000000E+01 0.  1.
         -5    1    3    3    0  502 -0.40429499946E+02 -0.24460366757E+02  0.16193428659E+03  0.16873956140E+03  0.41800000000E+01 0.  1.
        -11    1    1    2    0    0  0.10471081116E+02  0.24965684645E+02  0.60424851002E+02  0.66212472905E+02  0.00000000000E+00 0. -1.
         11    1    1    2    0    0 -0.10504840676E+02 -0.74782262971E+02  0.15206084185E+03  0.16977996984E+03  0.00000000000E+00 0.  1.
</event>
<event>
 7    1  0.2490079E-009  0.2248885E+03  0.7561462E-02  0.1130290E+00
          2   -1    0    0  501    0  0.00000000000E+00  0.00000000000E+00  0.91709037836E+03  0.91709037836E+03  0.00000000000E+00 0. -1.
         -2   -1    0    0    0  501 -0.00000000000E+00 -0.00000000000E+00 -0.71007320115E+02  0.71007320115E+02  0.00000000000E+00 0.  1.
         25    2    1    2    0    0  0.19666654540E+03 -0.24074627811E+02  0.66025303167E+03  0.70059849293E+03  0.12508742813E+03 0.  0.
          5    1    3    3  502    0  0.10080916740E+03  0.50427845199E+02  0.31117730617E+03  0.33098979452E+03  0.41800000000E+01 0. -1.
         -5    1    3    3    0  502  0.95857378004E+02 -0.74502473011E+02  0.34907572550E+03  0.36960869841E+03  0.41800000000E+01 0. -1.
        -11    1    1    2    0    0 -0.15348347903E+03 -0.18825285861E+02  0.15621864482E+03  0.21980863202E+03  0.00000000000E+00 0.  1.
         11    1    1    2    0    0 -0.43183066370E+02  0.42899913673E+02  0.29611381749E+02  0.67690573519E+02  0.00000000000E+00 0. -1.
</event>
<event>
 7    1  0.2490079E-009  0.1158471E+03  0.7561462E-02  0.1250110E+00
          2   -1    0    0  501    0  0.00000000000E+00  0.00000000000E+00  0.49313607485E+03  0.49313607485E+03  0.00000000000E+00 0. -1.
         -2   -1    0    0    0  501 -0.00000000000E+00 -0.00000000000E+00 -0.52500684281E+02  0.52500684281E+02  0.00000000000E+00 0.  1.
         25    2    1    2    0    0 -0.10524649427E+01 -0.80811083063E+02  0.87689879236E+02  0.17282649401E+03  0.12509173947E+03 0.  0.
          5    1    3    3  502    0 -0.57593840734E+02 -0.13432309746E+02  0.23138238689E+02  0.63642186679E+02  0.41800000000E+01 0.  1.
         -5    1    3    3    0  502  0.56541375792E+02 -0.67378773317E+02  0.64551640547E+02  0.10918430733E+03  0.41800000000E+01 0.  1.
        -11    1    1    2    0    0  0.98369892460E+01  0.68624643022E+02  0.35086020714E+03  0.35764366756E+03  0.00000000000E+00 0. -1.
         11    1    1    2    0    0 -0.87845243033E+01  0.12186440041E+02  0.20853041915E+01  0.15166597564E+02  0.00000000000E+00 0.  1.
</event>
<event>
 7    1  0.2490079E-009  0.9939982E+02  0.7561462E-02  0.1281563E+00
          2   -1    0    0  501    0  0.00000000000E+00  0.00000000000E+00  0.50206978001E+02  0.50206978001E+02  0.00000000000E+00 0. -1.
         -2   -1    0    0    0  501 -0.00000000000E+00 -0.00000000000E+00 -0.33842008425E+03  0.33842008425E+03  0.00000000000E+00 0.  1.
         25    2    1    2    0    0  0.64256896440E+02  0.18061186005E+01 -0.20792034249E+03  0.25102163523E+03  0.12509509075E+03 0.  0.
          5    1    3    3  502    0  0.54644340104E+02 -0.23560706828E+02 -0.21463030806E+03  0.22276613825E+03  0.41800000000E+01 0.  1.
         -5    1    3    3    0  502  0.96125563357E+01  0.25366825428E+02  0.67099655750E+01  0.28255496981E+02  0.41800000000E+01 0.  1.
        -11    1    1    2    0    0  0.12388152053E+02  0.27089347372E+02 -0.19562609835E+02  0.35636985786E+02  0.00000000000E+00 0. -1.
         11    1    1    2    0    0 -0.76645048493E+02 -0.28895465973E+02 -0.60730153932E+02  0.10196844124E+03  0.00000000000E+00 0.  1.
</event>
<event>
 7    1  0.2490079E-009  0.1322774E+03  0.7561462E-02  0.1224115E+00
         -2   -1    0    0    0  501 -0.00000000000E+00  0.00000000000E+00  0.30447109771E+03  0.30447109771E+03  0.00000000000E+00 0.  1.
          2   -1    0    0  501    0  0.00000000000E+00 -0.00000000000E+00 -0.76586036497E+02  0.76586036497E+02  0.00000000000E+00 0. -1.
         25    2    1    2    0    0  0.70656244083E+02 -0.74240761310E+02  0.88534871958E+02  0.18436459946E+03  0.12509151256E+03 0.  0.
          5    1    3    3  502    0  0.14926901826E+02  0.31392701751E+02 -0.10213580625E+01  0.35026128728E+02  0.41800000000E+01 0.  1.
         -5    1    3    3    0  502  0.55729342256E+02 -0.10563346306E+03  0.89556230020E+02  0.14933847074E+03  0.41800000000E+01 0.  1.
        -11    1    1    2    0    0 -0.16858146847E+02  0.46597351008E+02  0.55583190902E+01  0.49863866148E+02  0.00000000000E+00 0. -1.
         11    1    1    2    0    0 -0.53798097236E+02  0.27643410302E+02  0.13379187016E+03  0.14682866859E+03  0.00000000000E+00 0.  1.
</event>
<event>
 7    1  0.2490079E-009  0.1066282E+03  0.7561462E-02  0.1266944E+00
         -4   -1    0    0    0  501 -0.00000000000E+00  0.00000000000E+00  0.36173273896E+03  0.36173273896E+03  0.00000000000E+00 0.  1.
          4   -1    0    0  501    0  0.00000000000E+00 -0.00000000000E+00 -0.50582296411E+02  0.50582296411E+02  0.00000000000E+00 0. -1.
         25    2    1    2    0    0  0.65279060364E+02  0.44643567254E+02  0.14213866688E+03  0.20519659806E+03  0.12509132429E+03 0.  0.
          5    1    3    3  502    0  0.87003928120E+02  0.24757107331E+02  0.14928510051E+03  0.17460272480E+03  0.41800000000E+01 0. -1.
         -5    1    3    3    0  502 -0.21724867755E+02  0.19886459924E+02 -0.71464336322E+01  0.30593873258E+02  0.41800000000E+01 0. -1.
        -11    1    1    2    0    0 -0.30272666253E+02  0.65148647193E+01  0.13053788237E+03  0.13416041338E+03  0.00000000000E+00 0.  1.
         11    1    1    2    0    0 -0.35006394111E+02 -0.51158431974E+02  0.38473893294E+02  0.72958023931E+02  0.00000000000E+00 0. -1.
</event>
<event>
 7    1  0.2490079E-009  0.9452509E+02  0.7561462E-02  0.1292249E+00
          1   -1    0    0  501    0  0.00000000000E+00  0.00000000000E+00  0.89139686459E+03  0.89139686459E+03  0.00000000000E+00 0. -1.
         -1   -1    0    0    0  501 -0.00000000000E+00 -0.00000000000E+00 -0.21444188717E+02  0.21444188717E+02  0.00000000000E+00 0.  1.
         25    2    1    2    0    0  0.32106033369E+02  0.78727734177E+02  0.46204380076E+03  0.48617266837E+03  0.12510210288E+03 0.  0.
          5    1    3    3  502    0  0.73963378557E+01  0.83771656206E+01 -0.51877974703E+01  0.13010317448E+02  0.41800000000E+01 0.  1.
         -5    1    3    3    0  502  0.24709695513E+02  0.70350568556E+02  0.46723159823E+03  0.47316235093E+03  0.41800000000E+01 0.  1.
        -11    1    1    2    0    0  0.16614731952E+02 -0.16616866385E+02  0.20146466270E+02  0.30952377444E+02  0.00000000000E+00 0.  1.
         11    1    1    2    0    0 -0.48720765321E+02 -0.62110867792E+02  0.38776240884E+03  0.39571600749E+03  0.00000000000E+00 0. -1.
</event>
<event>
 7    1  0.2490079E-009  0.1217126E+03  0.7561462E-02  0.1240298E+00
         -2   -1    0    0    0  501 -0.00000000000E+00  0.00000000000E+00  0.16562297046E+03  0.16562297046E+03  0.00000000000E+00 0. -1.
          2   -1    0    0  501    0  0.00000000000E+00 -0.00000000000E+00 -0.15869359579E+03  0.15869359579E+03  0.00000000000E+00 0.  1.
         25    2    1    2    0    0  0.72345147832E+02  0.28037365597E+01  0.10035979092E+03  0.17596070815E+03  0.12509357228E+03 0.  0.
          5    1    3    3  502    0  0.97440668693E+02  0.34448216830E+02  0.65364139486E+02  0.12235729111E+03  0.41800000000E+01 0. -1.
         -5    1    3    3    0  502 -0.25095520861E+02 -0.31644480270E+02  0.34995651429E+02  0.53603417035E+02  0.41800000000E+01 0. -1.
        -11    1    1    2    0    0  0.70893826465E+01  0.16223821345E+02 -0.55577602407E+02  0.58329594672E+02  0.00000000000E+00 0.  1.
         11    1    1    2    0    0 -0.79434530479E+02 -0.19027557904E+02 -0.37852813838E+02  0.90026263433E+02  0.00000000000E+00 0. -1.
</event>
<event>
 7    1  0.2490079E-009  0.1030510E+03  0.7561462E-02  0.1274008E+00
          3   -1    0    0  501    0  0.00000000000E+00  0.00000000000E+00  0.59423530549E+02  0.59423530549E+02  0.00000000000E+00 0. -1.
         -3   -1    0    0    0  501 -0.00000000000E+00 -0.00000000000E+00 -0.21178209174E+03  0.21178209174E+03  0.00000000000E+00 0.  1.
         25    2    1    2    0    0  0.83119671210E+01 -0.17365005004E+02 -0.10491207572E+03  0.16439359096E+03  0.12509227363E+03 0.  0.
          5    1    3    3  502    0 -0.15034289853E+02 -0.61493280118E+02 -0.93533259076E+02  0.11301945109E+03  0.41800000000E+01 0.  1.
         -5    1    3    3    0  502  0.23346256974E+02  0.44128275114E+02 -0.11378816640E+02  0.51374139870E+02  0.41800000000E+01 0.  1.
        -11    1    1    2    0    0 -0.49614933656E+02  0.94006930598E+01 -0.12242395119E+02  0.51960474497E+02  0.00000000000E+00 0.  1.
         11    1    1    2    0    0  0.41302966535E+02  0.79643119442E+01 -0.35204090359E+02  0.54851556836E+02  0.00000000000E+00 0. -1.
</event>
<event>
 7    1  0.2490079E-009  0.1013246E+03  0.7561462E-02  0.1277535E+00
         -2   -1    0    0    0  501 -0.00000000000E+00  0.00000000000E+00  0.24561965791E+03  0.24561965791E+03  0.00000000000E+00 0.  1.
          2   -1    0    0  501    0  0.00000000000E+00 -0.00000000000E+00 -0.52718948738E+02  0.52718948738E+02  0.00000000000E+00 0. -1.
         25    2    1    2    0    0  0.31431856744E+01 -0.29205916548E+02  0.14545209209E+03  0.19407808470E+03  0.12508847544E+03 0.  0.
          5    1    3    3  502    0  0.47812077368E+02  0.23011681561E+02  0.94396959535E+02  0.10836877133E+03  0.41800000000E+01 0.  1.
         -5    1    3    3    0  502 -0.44668891694E+02 -0.52217598110E+02  0.51055132558E+02  0.85709313368E+02  0.41800000000E+01 0.  1.
        -11    1    1    2    0    0 -0.12459365083E+02 -0.23744991481E+02  0.42521988611E+02  0.50271064382E+02  0.00000000000E+00 0.  1.
         11    1    1    2    0    0  0.93161794087E+01  0.52950908029E+02  0.49266284642E+01  0.53989457563E+02  0.00000000000E+00 0. -1.
</event>
<event>
 7    1  0.2490079E-009  0.9913223E+02  0.7561462E-02  0.1282131E+00
         -2   -1    0    0    0  501 -0.00000000000E+00  0.00000000000E+00  0.10543739697E+02  0.10543739697E+02  0.00000000000E+00 0.  1.
          2   -1    0    0  501    0  0.00000000000E+00 -0.00000000000E+00 -0.19185427108E+04  0.19185427108E+04  0.00000000000E+00 0. -1.
         25    2    1    2    0    0  0.48037073068E+02 -0.22317900972E+02 -0.15558086095E+04  0.15617279751E+04  0.12509272505E+03 0.  0.
          5    1    3    3  502    0  0.24974937802E+01  0.29435542035E+02 -0.11268781148E+04  0.11272730133E+04  0.41800000000E+01 0.  1.
         -5    1    3    3    0  502  0.45539579288E+02 -0.51753443007E+02 -0.42893049471E+03  0.43445496181E+03  0.41800000000E+01 0.  1.
        -11    1    1    2    0    0 -0.71975441439E+02  0.22552673264E+02 -0.20928700355E+03  0.22246378828E+03  0.00000000000E+00 0.  1.
         11    1    1    2    0    0  0.23938368371E+02 -0.23477229237E+00 -0.14290335803E+03  0.14489468704E+03  0.00000000000E+00 0. -1.
</event>
<event>
 7    1  0.2490079E-009  0.2086542E+03  0.7561462E-02  0.1142636E+00
         -1   -1    0    0    0  501 -0.00000000000E+00  0.00000000000E+00  0.35203965169E+02  0.35203965169E+02  0.00000000000E+00 0.  1.
          1   -1    0    0  501    0  0.00000000000E+00 -0.00000000000E+00 -0.15853559248E+04  0.15853559248E+04  0.00000000000E+00 0. -1.
         25    2    1    2    0    0 -0.32119344214E+02  0.20354048581E+03 -0.93177014364E+03  0.96244529123E+03  0.12507980011E+03 0.  0.
          5    1    3    3  502    0 -0.10226910133E+02  0.98306387837E+02 -0.20346549469E+03  0.22623973018E+03  0.41800000000E+01 0. -1.
         -5    1    3    3    0  502 -0.21892434081E+02  0.10523409797E+03 -0.72830464895E+03  0.73620556105E+03  0.41800000000E+01 0. -1.
        -11    1    1    2    0    0 -0.24075820766E+01 -0.12496372031E+03 -0.47350469171E+03  0.48972280008E+03  0.00000000000E+00 0. -1.
         11    1    1    2    0    0  0.34526926291E+02 -0.78576765493E+02 -0.14487712425E+03  0.16839179862E+03  0.00000000000E+00 0.  1.
</event>
<event>
 7    1  0.2490079E-009  0.1077172E+03  0.7561462E-02  0.1264857E+00
          3   -1    0    0  501    0  0.00000000000E+00  0.00000000000E+00  0.16516478411E+03  0.16516478411E+03  0.00000000000E+00 0. -1.
         -3   -1    0    0    0  501 -0.00000000000E+00 -0.00000000000E+00 -0.10246597216E+03  0.10246597216E+03  0.00000000000E+00 0.  1.
         25    2    1    2    0    0  0.14690969827E+02 -0.67583333889E+02  0.47845777353E+02  0.15072572555E+03  0.12508274988E+03 0.  0.
          5    1    3    3  502    0 -0.26621714331E+02 -0.35772355434E+01  0.66792821688E+02  0.72112867903E+02  0.41800000000E+01 0. -1.
         -5    1    3    3    0  502  0.41312684158E+02 -0.64006098345E+02 -0.18947044336E+02  0.78612857643E+02  0.41800000000E+01 0. -1.
        -11    1    1    2    0    0 -0.22216793001E+02  0.87703191218E+02 -0.54494614491E+00  0.90475038588E+02  0.00000000000E+00 0.  1.
         11    1    1    2    0    0  0.75258231740E+01 -0.20119857330E+02  0.15397980736E+02  0.26429992134E+02  0.00000000000E+00 0. -1.
</event>
<event>
 7    1  0.2490079E-009  0.1887694E+03  0.7561462E-02  0.1159576E+00
          1   -1    0    0  501    0  0.00000000000E+00  0.00000000000E+00  0.32336036992E+03  0.32336036992E+03  0.00000000000E+00 0. -1.
         -1   -1    0    0    0  501 -0.00000000000E+00 -0.00000000000E+00 -0.16405462724E+03  0.16405462724E+03  0.00000000000E+00 0.  1.
         25    2    1    2    0    0  0.25780046720E+02 -0.18435754123E+03  0.16644971109E+03  0.27929546412E+03  0.12509251034E+03 0.  0.
          5    1    3    3  502    0  0.13697573208E+02 -0.10492804525E+03  0.16827232504E+03  0.19882295131E+03  0.41800000000E+01 0.  1.
         -5    1    3    3    0  502  0.12082473512E+02 -0.79429495979E+02 -0.18226139524E+01  0.80472512818E+02  0.41800000000E+01 0.  1.
        -11    1    1    2    0    0 -0.32522199019E+02  0.76602829350E+02 -0.43873491400E+02  0.94077468829E+02  0.00000000000E+00 0.  1.
         11    1    1    2    0    0  0.67421522990E+01  0.10775471188E+03  0.36729522985E+02  0.11404206421E+03  0.00000000000E+00 0. -1.
</event>
<event>
 7    1  0.2490079E-009  0.1174308E+03  0.7561462E-02  0.1247397E+00
         -2   -1    0    0    0  501 -0.00000000000E+00  0.00000000000E+00  0.33399806880E+02  0.33399806880E+02  0.00000000000E+00 0.  1.
          2   -1    0    0  501    0  0.00000000000E+00 -0.00000000000E+00 -0.54666554613E+03  0.54666554613E+03  0.00000000000E+00 0. -1.
         25    2    1    2    0    0 -0.47792575184E+02  0.51182828406E+02 -0.38325183156E+03  0.40918720758E+03  0.12509353414E+03 0.  0.
          5    1    3    3  502    0  0.40687146697E+02  0.63430652275E+01 -0.79614032916E+02  0.89730401871E+02  0.41800000000E+01 0.  1.
         -5    1    3    3    0  502 -0.88479721881E+02  0.44839763179E+02 -0.30363779865E+03  0.31945680571E+03  0.41800000000E+01 0.  1.
        -11    1    1    2    0    0  0.57311901576E+02 -0.18614278823E+02 -0.12191439268E+03  0.13599361963E+03  0.00000000000E+00 0. -1.
         11    1    1    2    0    0 -0.95193263925E+01 -0.32568549583E+02 -0.80995150100E+01  0.34884525800E+02  0.00000000000E+00 0.  1.
</event>
<event>
 7    1  0.2490079E-009  0.1095517E+03  0.7561462E-02  0.1261402E+00
         -2   -1    0    0    0  501 -0.00000000000E+00  0.00000000000E+00  0.34226825257E+02  0.34226825257E+02  0.00000000000E+00 0.  1.
          2   -1    0    0  501    0  0.00000000000E+00 -0.00000000000E+00 -0.43374746696E+03  0.43374746696E+03  0.00000000000E+00 0. -1.
         25    2    1    2    0    0 -0.34358983546E+02  0.46211110732E+02 -0.28235931850E+03  0.31415029585E+03  0.12509043581E+03 0.  0.
          5    1    3    3  502    0  0.40501266520E+02  0.14601342937E+02 -0.17003808784E+03  0.17545362784E+03  0.41800000000E+01 0. -1.
         -5    1    3    3    0  502 -0.74860250066E+02  0.31609767795E+02 -0.11232123066E+03  0.13869666801E+03  0.41800000000E+01 0. -1.
        -11    1    1    2    0    0  0.55849777117E+02 -0.46971492459E+02 -0.66270734980E+02  0.98576513545E+02  0.00000000000E+00 0.  1.
         11    1    1    2    0    0 -0.21490793571E+02  0.76038172743E+00 -0.50890588229E+02  0.55247482829E+02  0.00000000000E+00 0. -1.
</event>
<event>
 7    1  0.2490079E-009  0.2141365E+03  0.7561462E-02  0.1138332E+00
          2   -1    0    0  501    0  0.00000000000E+00  0.00000000000E+00  0.58531064889E+03  0.58531064889E+03  0.00000000000E+00 0. -1.
         -2   -1    0    0    0  501 -0.00000000000E+00 -0.00000000000E+00 -0.87211894801E+02  0.87211894801E+02  0.00000000000E+00 0.  1.
         25    2    1    2    0    0 -0.17361755858E+03 -0.86919830221E+02  0.21039868236E+03  0.31243020578E+03  0.12508762691E+03 0.  0.
          5    1    3    3  502    0 -0.15040857898E+03 -0.11093837753E+03  0.20649263052E+03  0.27854396978E+03  0.41800000000E+01 0. -1.
         -5    1    3    3    0  502 -0.23208979607E+02  0.24018547308E+02  0.39060518422E+01  0.33886235999E+02  0.41800000000E+01 0. -1.
        -11    1    1    2    0    0  0.63896692428E+02 -0.56087954716E+01  0.14076429437E+03  0.15468947106E+03  0.00000000000E+00 0.  1.
         11    1    1    2    0    0  0.10972086616E+03  0.92528625693E+02  0.14693577735E+03  0.20540286685E+03  0.00000000000E+00 0. -1.
</event>
<event>
 7    1  0.2490079E-009  0.1099355E+03  0.7561462E-02  0.1260689E+00
          2   -1    0    0  501    0  0.00000000000E+00  0.00000000000E+00  0.58345808284E+03  0.58345808284E+03  0.00000000000E+00 0. -1.
         -2   -1    0    0    0  501 -0.00000000000E+00 -0.00000000000E+00 -0.36651540719E+02  0.36651540719E+02  0.00000000000E+00 0.  1.
         25    2    1    2    0    0 -0.64075295463E+02 -0.51599981457E+02  0.18570681126E+03  0.23854560642E+03  0.12509510390E+03 0.  0.
          5    1    3    3  502    0  0.21723755761E+02 -0.29322076625E+01 -0.58262724936E+01  0.23063765029E+02  0.41800000000E+01 0.  1.
         -5    1    3    3    0  502 -0.85799051224E+02 -0.48667773795E+02  0.19153308375E+03  0.21548184139E+03  0.41800000000E+01 0.  1.
        -11    1    1    2    0    0 -0.55440223308E+01  0.22834555541E+02  0.16217057089E+02  0.28550762704E+02  0.00000000000E+00 0.  1.
         11    1    1    2    0    0  0.69619317794E+02  0.28765425916E+02  0.34488267377E+03  0.35301325444E+03  0.00000000000E+00 0. -1.
</event>
<event>
 7    1  0.2490079E-009  0.2197406E+03  0.7561462E-02  0.1134077E+00
         -1   -1    0    0    0  501 -0.00000000000E+00  0.00000000000E+00  0.18849516584E+04  0.18849516584E+04  0.00000000000E+00 0.  1.
          1   -1    0    0  501    0  0.00000000000E+00 -0.00000000000E+00 -0.39557674812E+02  0.39557674812E+02  0.00000000000E+00 0. -1.
         25    2    1    2    0    0 -0.17372105810E+03 -0.10610596110E+03  0.14618071421E+04  0.14812038320E+04  0.12508872923E+03 0.  0.
          5    1    3    3  502    0 -0.10828835140E+03 -0.10665968524E+03  0.12568449978E+04  0.12660092719E+04  0.41800000000E+01 0.  1.
         -5    1    3    3    0  502 -0.65432706700E+02  0.55372413404E+00  0.20496214426E+03  0.21519456010E+03  0.41800000000E+01 0.  1.
        -11    1    1    2    0    0  0.13573695595E+03  0.33332432438E+02  0.22934383587E+03  0.26857804697E+03  0.00000000000E+00 0.  1.
         11    1    1    2    0    0  0.37984102151E+02  0.72773528663E+02  0.15424300562E+03  0.17472745426E+03  0.00000000000E+00 0. -1.
</event>
<event>
 7    1  0.2490079E-009  0.1333584E+03  0.7561462E-02  0.1222556E+00
          2   -1    0    0  501    0  0.00000000000E+00  0.00000000000E+00  0.28673116768E+03  0.28673116768E+03  0.00000000000E+00 0. -1.
         -2   -1    0    0    0  501 -0.00000000000E+00 -0.00000000000E+00 -0.79900486909E+02  0.79900486909E+02  0.00000000000E+00 0.  1.
         25    2    1    2    0    0 -0.65052019976E+02  0.57171336136E+02  0.19066107534E+03  0.24392385590E+03  0.12508746880E+03 0.  0.
          5    1    3    3  502    0 -0.99928701820E+02  0.29949357538E+02  0.15530221970E+03  0.18713353871E+03  0.41800000000E+01 0.  1.
         -5    1    3    3    0  502  0.34876681844E+02  0.27221978598E+02  0.35358855637E+02  0.56790317196E+02  0.41800000000E+01 0.  1.
        -11    1    1    2    0    0  0.16505736728E+02 -0.66431653459E+02  0.24270109916E+02  0.72626731729E+02  0.00000000000E+00 0. -1.
         11    1    1    2    0    0  0.48546283248E+02  0.92603173236E+01 -0.81005044894E+01  0.50081066953E+02  0.00000000000E+00 0.  1.
</event>
<event>
 7    1  0.2490079E-009  0.1834146E+03  0.7561462E-02  0.1164539E+00
         -1   -1    0    0    0  501 -0.00000000000E+00  0.00000000000E+00  0.67485609452E+03  0.67485609452E+03  0.00000000000E+00 0.  1.
          1   -1    0    0  501    0  0.00000000000E+00 -0.00000000000E+00 -0.57927054166E+02  0.57927054166E+02  0.00000000000E+00 0. -1.
         25    2    1    2    0    0  0.14457221475E+03 -0.45492971260E+02  0.44432191065E+03  0.48583949372E+03  0.12508923880E+03 0.  0.
          5    1    3    3  502    0  0.85665405358E+02 -0.84193867088E+02  0.22026528314E+03  0.25092117545E+03  0.41800000000E+01 0. -1.
         -5    1    3    3    0  502  0.58906809395E+02  0.38700895827E+02  0.22405662751E+03  0.23491831827E+03  0.41800000000E+01 0. -1.
        -11    1    1    2    0    0  0.12531717892E+02  0.19515768928E+00  0.17876440833E+02  0.21832296643E+02  0.00000000000E+00 0. -1.
         11    1    1    2    0    0 -0.15710393265E+03  0.45297813571E+02  0.15473068888E+03  0.22511135833E+03  0.00000000000E+00 0.  1.
</event>
<event>
 7    1  0.2490079E-009  0.1405559E+03  0.7561462E-02  0.1212583E+00
         -1   -1    0    0    0  501 -0.00000000000E+00  0.00000000000E+00  0.88912385111E+02  0.88912385111E+02  0.00000000000E+00 0.  1.
          1   -1    0    0  501    0  0.00000000000E+00 -0.00000000000E+00 -0.35139617660E+03  0.35139617660E+03  0.00000000000E+00 0. -1.
         25    2    1    2    0    0 -0.10637049772E+03 -0.86530279699E+01 -0.24991440385E+03  0.29915619204E+03  0.12509060839E+03 0.  0.
          5    1    3    3  502    0  0.16472266856E+02 -0.68557100966E+01 -0.11574975574E+03  0.11719135928E+03  0.41800000000E+01 0. -1.
         -5    1    3    3    0  502 -0.12284276457E+03 -0.17973178733E+01 -0.13416464811E+03  0.18196483276E+03  0.41800000000E+01 0. -1.
        -11    1    1    2    0    0  0.12202507043E+03  0.15047875358E+02 -0.62779218360E+01  0.12310957992E+03  0.00000000000E+00 0.  1.
         11    1    1    2    0    0 -0.15654572713E+02 -0.63948473879E+01 -0.62914658070E+01  0.18042789749E+02  0.00000000000E+00 0. -1.
</event>
<event>
 7    1  0.2490079E-009  0.1189558E+03  0.7561462E-02  0.1244830E+00
         -1   -1    0    0    0  501 -0.00000000000E+00  0.00000000000E+00  0.59868144910E+02  0.59868144910E+02  0.00000000000E+00 0.  1.
          1   -1    0    0  501    0  0.00000000000E+00 -0.00000000000E+00 -0.38662108111E+03  0.38662108111E+03  0.00000000000E+00 0. -1.
         25    2    1    2    0    0 -0.68146142462E+02  0.19461868238E+02 -0.29158010195E+03  0.32509851434E+03  0.12508967634E+03 0.  0.
          5    1    3    3  502    0  0.18490601436E+02 -0.23600101678E+02 -0.15343303403E+03  0.15639065021E+03  0.41800000000E+01 0.  1.
         -5    1    3    3    0  502 -0.86636743899E+02  0.43061969916E+02 -0.13814706792E+03  0.16870786414E+03  0.41800000000E+01 0.  1.
        -11    1    1    2    0    0  0.81775271061E+02  0.59230239692E+01 -0.90290744291E+01  0.82485158393E+02  0.00000000000E+00 0.  1.
         11    1    1    2    0    0 -0.13629128599E+02 -0.25384892208E+02 -0.26143759819E+02  0.38905553283E+02  0.00000000000E+00 0. -1.
</event>
<event>
 7    1  0.2490079E-009  0.2144382E+03  0.7561462E-02  0.1138099E+00
          1   -1    0    0  501    0  0.00000000000E+00  0.00000000000E+00  0.52832383896E+02  0.52832383896E+02  0.00000000000E+00 0. -1.
         -1   -1    0    0    0  501 -0.00000000000E+00 -0.00000000000E+00 -0.88058262512E+03  0.88058262512E+03  0.00000000000E+00 0.  1.
         25    2    1    2    0    0 -0.65330543183E+02 -0.17693395624E+03 -0.47010098020E+03  0.52174314447E+03  0.12508905816E+03 0.  0.
          5    1    3    3  502    0 -0.10148137233E+03 -0.14851158337E+03 -0.38317300720E+03  0.42331216043E+03  0.41800000000E+01 0. -1.
         -5    1    3    3    0  502  0.36150829150E+02 -0.28422372873E+02 -0.86927973000E+02  0.98430984034E+02  0.41800000000E+01 0. -1.
        -11    1    1    2    0    0  0.78527116510E+02  0.11369042865E+03 -0.22323490921E+03  0.26253732360E+03  0.00000000000E+00 0. -1.
         11    1    1    2    0    0 -0.13196573326E+02  0.63243527594E+02 -0.13441435181E+03  0.14913454095E+03  0.00000000000E+00 0.  1.
</event>
<event>
 7    1  0.2490079E-009  0.1480203E+03  0.7561462E-02  0.1202927E+00
          2   -1    0    0  501    0  0.00000000000E+00  0.00000000000E+00  0.12604348526E+03  0.12604348526E+03  0.00000000000E+00 0.  1.
         -2   -1    0    0    0  501 -0.00000000000E+00 -0.00000000000E+00 -0.29274945820E+03  0.29274945820E+03  0.00000000000E+00 0. -1.
         25    2    1    2    0    0  0.57147014887E+02 -0.91438335156E+02  0.39478025945E+02  0.16980168956E+03  0.12508936326E+03 0.  0.
          5    1    3    3  502    0 -0.50854283223E+01 -0.10123162562E+03  0.31136343253E+02  0.10611619988E+03  0.41800000000E+01 0. -1.
         -5    1    3    3    0  502  0.62232443209E+02  0.97932904614E+01  0.83416826920E+01  0.63685489682E+02  0.41800000000E+01 0. -1.
        -11    1    1    2    0    0 -0.23269045130E+02 -0.93889203351E+01 -0.80600278800E+02  0.84415669333E+02  0.00000000000E+00 0. -1.
         11    1    1    2    0    0 -0.33877969757E+02  0.10082725549E+03 -0.12558372009E+03  0.16457558457E+03  0.00000000000E+00 0.  1.
</event>
<event>
 7    1  0.2490079E-009  0.2449860E+03  0.7561462E-02  0.1116515E+00
         -3   -1    0    0    0  501 -0.00000000000E+00  0.00000000000E+00  0.17484308946E+03  0.17484308946E+03  0.00000000000E+00 0.  1.
          3   -1    0    0  501    0  0.00000000000E+00 -0.00000000000E+00 -0.37620270922E+03  0.37620270922E+03  0.00000000000E+00 0. -1.
         25    2    1    2    0    0  0.20513550439E+03 -0.10652816847E+03 -0.94875340829E+02  0.27942352981E+03  0.12508937954E+03 0.  0.
          5    1    3    3  502    0  0.63141100702E+02 -0.69049857370E+02  0.16449145686E+02  0.95093260510E+02  0.41800000000E+01 0.  1.
         -5    1    3    3    0  502  0.14199440369E+03 -0.37478311102E+02 -0.11132448652E+03  0.18433026930E+03  0.41800000000E+01 0.  1.
        -11    1    1    2    0    0 -0.18654246330E+03  0.12390774718E+03 -0.90322109236E+02  0.24147319487E+03  0.00000000000E+00 0. -1.
         11    1    1    2    0    0 -0.18593041096E+02 -0.17379578713E+02 -0.16162169701E+02  0.30149073997E+02  0.00000000000E+00 0.  1.
</event>
<event>
 7    1  0.2490079E-009  0.2339841E+03  0.7561462E-02  0.1123867E+00
          1   -1    0    0  501    0  0.00000000000E+00  0.00000000000E+00  0.51438599937E+03  0.51438599937E+03  0.00000000000E+00 0. -1.
         -1   -1    0    0    0  501 -0.00000000000E+00 -0.00000000000E+00 -0.11686205268E+03  0.11686205268E+03  0.00000000000E+00 0.  1.
         25    2    1    2    0    0  0.21795415223E+03 -0.13384258816E+02  0.20873699232E+03  0.32695866307E+03  0.12509070524E+03 0.  0.
          5    1    3    3  502    0  0.18614112625E+03  0.14830423466E+02  0.21384313384E+03  0.28392748834E+03  0.41800000000E+01 0. -1.
         -5    1    3    3    0  502  0.31813025971E+02 -0.28214682282E+02 -0.51061415177E+01  0.43031174734E+02  0.41800000000E+01 0. -1.
        -11    1    1    2    0    0 -0.11412509342E+03 -0.40983891623E+02  0.90058105653E+02  0.15104528697E+03  0.00000000000E+00 0. -1.
         11    1    1    2    0    0 -0.10382905880E+03  0.54368150439E+02  0.98728848711E+02  0.15324410201E+03  0.00000000000E+00 0.  1.
</event>
<event>
 7    1  0.2490079E-009  0.1088504E+03  0.7561462E-02  0.1262714E+00
         -1   -1    0    0    0  501 -0.00000000000E+00  0.00000000000E+00  0.10468864383E+03  0.10468864383E+03  0.00000000000E+00 0.  1.
          1   -1    0    0  501    0  0.00000000000E+00 -0.00000000000E+00 -0.15778418828E+03  0.15778418828E+03  0.00000000000E+00 0. -1.
         25    2    1    2    0    0  0.22514763080E+02 -0.62670640050E+02 -0.42462265849E+02  0.14794066360E+03  0.12509545254E+03 0.  0.
          5    1    3    3  502    0  0.21493333557E+01 -0.92284325479E+02 -0.57416434659E+02  0.10878941002E+03  0.41800000000E+01 0. -1.
         -5    1    3    3    0  502  0.20365429724E+02  0.29613685430E+02  0.14954168810E+02  0.39151253586E+02  0.41800000000E+01 0. -1.
        -11    1    1    2    0    0 -0.20152016003E+02  0.74435052390E+02  0.21645684026E+02  0.80095046103E+02  0.00000000000E+00 0.  1.
         11    1    1    2    0    0 -0.23627470766E+01 -0.11764412340E+02 -0.32278962624E+02  0.34437122405E+02  0.00000000000E+00 0. -1.
</event>
<event>
 7    1  0.2490079E-009  0.1135224E+03  0.7561462E-02  0.1254183E+00
         -1   -1    0    0    0  501 -0.00000000000E+00  0.00000000000E+00  0.17415568227E+02  0.17415568227E+02  0.00000000000E+00 0.  1.
          1   -1    0    0  501    0  0.00000000000E+00 -0.00000000000E+00 -0.76104926293E+03  0.76104926293E+03  0.00000000000E+00 0. -1.
         25    2    1    2    0    0 -0.22255222776E+02 -0.28226094860E+02 -0.44942231926E+03  0.46788888646E+03  0.12509029398E+03 0.  0.
          5    1    3    3  502    0  0.35146730300E+02 -0.54388547925E+02 -0.26879997946E+03  0.27652180412E+03  0.41800000000E+01 0. -1.
         -5    1    3    3    0  502 -0.57401953075E+02  0.26162453065E+02 -0.18062233980E+03  0.19136708234E+03  0.41800000000E+01 0. -1.
        -11    1    1    2    0    0  0.29609077054E+02  0.59684688163E+02 -0.18223947762E+03  0.19403656009E+03  0.00000000000E+00 0. -1.
         11    1    1    2    0    0 -0.73538542779E+01 -0.31458593304E+02 -0.11197189781E+03  0.11653938461E+03  0.00000000000E+00 0.  1.
</event>
<event>
 7    1  0.2490079E-009  0.9971400E+02  0.7561462E-02  0.1280899E+00
         -2   -1    0    0    0  501 -0.00000000000E+00  0.00000000000E+00  0.69351038143E+02  0.69351038143E+02  0.00000000000E+00 0.  1.
          2   -1    0    0  501    0  0.00000000000E+00 -0.00000000000E+00 -0.17219414539E+03  0.17219414539E+03  0.00000000000E+00 0. -1.
         25    2    1    2    0    0  0.63857779739E+01 -0.32685754194E+01 -0.71861678571E+02  0.14444025711E+03  0.12508966897E+03 0.  0.
          5    1    3    3  502    0  0.61065333294E+02  0.21814129673E+02 -0.38303562073E+02  0.75428551962E+02  0.41800000000E+01 0.  1.
         -5    1    3    3    0  502 -0.54679555320E+02 -0.25082705092E+02 -0.33558116498E+02  0.69011705149E+02  0.41800000000E+01 0.  1.
        -11    1    1    2    0    0 -0.38590391437E+02 -0.90977735243E+01 -0.44905068190E+02  0.59903697244E+02  0.00000000000E+00 0. -1.
         11    1    1    2    0    0  0.32204613463E+02  0.12366348944E+02  0.13923639518E+02  0.37201229173E+02  0.00000000000E+00 0.  1.
</event>
<event>
 7    1  0.2490079E-009  0.1098097E+03  0.7561462E-02  0.1260923E+00
          2   -1    0    0  501    0  0.00000000000E+00  0.00000000000E+00  0.59429769425E+03  0.59429769425E+03  0.00000000000E+00 0.  1.
         -2   -1    0    0    0  501 -0.00000000000E+00 -0.00000000000E+00 -0.40217790650E+02  0.40217790650E+02  0.00000000000E+00 0. -1.
         25    2    1    2    0    0  0.71726130583E+02 -0.27595805340E+02  0.45599633277E+03  0.47904644279E+03  0.12508666024E+03 0.  0.
          5    1    3    3  502    0  0.93519205659E+02 -0.41574648023E+02  0.43032357908E+03  0.44234618603E+03  0.41800000000E+01 0.  1.
         -5    1    3    3    0  502 -0.21793075076E+02  0.13978842683E+02  0.25672753690E+02  0.36700256758E+02  0.41800000000E+01 0.  1.
        -11    1    1    2    0    0 -0.10807524052E+02  0.28032491285E+02  0.88926495605E+02  0.93864502152E+02  0.00000000000E+00 0.  1.
         11    1    1    2    0    0 -0.60918606531E+02 -0.43668594516E+00  0.91570752212E+01  0.61604539954E+02  0.00000000000E+00 0. -1.
</event>
<event>
 7    1  0.2490079E-009  0.1866476E+03  0.7561462E-02  0.1161520E+00
         -2   -1    0    0    0  501 -0.00000000000E+00  0.00000000000E+00  0.60211276956E+02  0.60211276956E+02  0.00000000000E+00 0.  1.
          2   -1    0    0  501    0  0.00000000000E+00 -0.00000000000E+00 -0.66561887147E+03  0.66561887147E+03  0.00000000000E+00 0. -1.
         25    2    1    2    0    0 -0.14329279533E+03 -0.79242037336E+02 -0.37593005382E+03  0.42869589619E+03  0.12507853679E+03 0.  0.
          5    1    3    3  502    0 -0.16179093130E+03 -0.57612081246E+02 -0.27957907229E+03  0.32814232799E+03  0.41800000000E+01 0.  1.
         -5    1    3    3    0  502  0.18498135968E+02 -0.21629956090E+02 -0.96350981532E+02  0.10055356820E+03  0.41800000000E+01 0.  1.
        -11    1    1    2    0    0  0.54631460794E+02  0.12392957066E+01 -0.23033544890E+02  0.59301572935E+02  0.00000000000E+00 0.  1.
         11    1    1    2    0    0  0.88661334534E+02  0.78002741629E+02 -0.20644399580E+03  0.23783267931E+03  0.00000000000E+00 0. -1.
</event>
<event>
 7    1  0.2490079E-009  0.7050823E+02  0.7561462E-02  0.1358373E+00
         -2   -1    0    0    0  501 -0.00000000000E+00  0.00000000000E+00  0.17810471263E+02  0.17810471263E+02  0.00000000000E+00 0.  1.
          2   -1    0    0  501    0  0.00000000000E+00 -0.00000000000E+00 -0.81979891140E+03  0.81979891140E+03  0.00000000000E+00 0. -1.
         25    2    1    2    0    0  0.37118772663E+02 -0.54189085296E+01 -0.59753634027E+03  0.61164147132E+03  0.12509373938E+03 0.  0.
          5    1    3    3  502    0  0.22606600503E+02 -0.33838308496E+02 -0.56281190710E+03  0.56429673461E+03  0.41800000000E+01 0.  1.
         -5    1    3    3    0  502  0.14512172160E+02  0.28419399966E+02 -0.34724433169E+02  0.47344736710E+02  0.41800000000E+01 0.  1.
        -11    1    1    2    0    0  0.38165480942E+00 -0.21663638808E+02 -0.64099840588E+01  0.22595282748E+02  0.00000000000E+00 0.  1.
         11    1    1    2    0    0 -0.37500427472E+02  0.27082547338E+02 -0.19804211581E+03  0.20337262860E+03  0.00000000000E+00 0. -1.
</event>
<event>
 7    1  0.2490079E-009  0.1199141E+03  0.7561462E-02  0.1243239E+00
          2   -1    0    0  501    0  0.00000000000E+00  0.00000000000E+00  0.12287345786E+04  0.12287345786E+04  0.00000000000E+00 0. -1.
         -2   -1    0    0    0  501 -0.00000000000E+00 -0.00000000000E+00 -0.32181124629E+02  0.32181124629E+02  0.00000000000E+00 0.  1.
         25    2    1    2    0    0 -0.64075090209E+02 -0.51305134527E+02  0.10779519727E+04  0.10882853244E+04  0.12508660199E+03 0.  0.
          5    1    3    3  502    0  0.15556282706E+02 -0.66273498486E+02  0.52549913493E+03  0.52990658398E+03  0.41800000000E+01 0.  1.
         -5    1    3    3    0  502 -0.79631372915E+02  0.14968363959E+02  0.55245283774E+03  0.55837874046E+03  0.41800000000E+01 0.  1.
        -11    1    1    2    0    0  0.46853953713E+02  0.13203602279E+02  0.19569479311E+01  0.48718145869E+02  0.00000000000E+00 0.  1.
         11    1    1    2    0    0  0.17221136495E+02  0.38101532248E+02  0.11664453337E+03  0.12391223291E+03  0.00000000000E+00 0. -1.
</event>
<event>
 7    1  0.2490079E-009  0.3067496E+03  0.7561462E-02  0.1081914E+00
          3   -1    0    0  501    0  0.00000000000E+00  0.00000000000E+00  0.81116746286E+03  0.81116746286E+03  0.00000000000E+00 0. -1.
         -3   -1    0    0    0  501 -0.00000000000E+00 -0.00000000000E+00 -0.16135829813E+03  0.16135829813E+03  0.00000000000E+00 0.  1.
         25    2    1    2    0    0 -0.26732370393E+03 -0.13542168665E+03  0.55489637936E+03  0.64292969217E+03  0.12509037272E+03 0.  0.
          5    1    3    3  502    0 -0.21738534990E+03 -0.12540113909E+03  0.52924771128E+03  0.58574947574E+03  0.41800000000E+01 0.  1.
         -5    1    3    3    0  502 -0.49938354031E+02 -0.10020547559E+02  0.25648668087E+02  0.57180216433E+02  0.41800000000E+01 0.  1.
        -11    1    1    2    0    0  0.24395804988E+03  0.14751295796E+03  0.10125038516E+03  0.30253469778E+03  0.00000000000E+00 0. -1.
         11    1    1    2    0    0  0.23365654057E+02 -0.12091271311E+02 -0.63375997939E+01  0.27061371040E+02  0.00000000000E+00 0.  1.
</event>
<event>
 7    1  0.2490079E-009  0.9890272E+02  0.7561462E-02  0.1282620E+00
          2   -1    0    0  501    0  0.00000000000E+00  0.00000000000E+00  0.10869989081E+03  0.10869989081E+03  0.00000000000E+00 0. -1.
         -2   -1    0    0    0  501 -0.00000000000E+00 -0.00000000000E+00 -0.19020442729E+03  0.19020442729E+03  0.00000000000E+00 0.  1.
         25    2    1    2    0    0  0.55897607972E+01 -0.66922973153E+02 -0.11378339254E+03  0.18194516876E+03  0.12508978477E+03 0.  0.
          5    1    3    3  502    0 -0.48804001313E+02 -0.56930160282E+02 -0.99521378022E+02  0.12467899092E+03  0.41800000000E+01 0.  1.
         -5    1    3    3    0  502  0.54393762110E+02 -0.99928128706E+01 -0.14262014514E+02  0.57266177833E+02  0.41800000000E+01 0.  1.
        -11    1    1    2    0    0 -0.35739938530E+01  0.23359335639E+02 -0.31695050614E+02  0.39534898848E+02  0.00000000000E+00 0.  1.
         11    1    1    2    0    0 -0.20157669442E+01  0.43563637514E+02  0.63973906670E+02  0.77424250493E+02  0.00000000000E+00 0. -1.
</event>
<event>
 7    1  0.2490079E-009  0.1325454E+03  0.7561462E-02  0.1223727E+00
          2   -1    0    0  501    0  0.00000000000E+00  0.00000000000E+00  0.59994744915E+03  0.59994744915E+03  0.00000000000E+00 0.  1.
         -2   -1    0    0    0  501 -0.00000000000E+00 -0.00000000000E+00 -0.56017888429E+02  0.56017888429E+02  0.00000000000E+00 0. -1.
         25    2    1    2    0    0 -0.46067554829E+02  0.11069676868E+03  0.44209023610E+03  0.47483294002E+03  0.12508616977E+03 0.  0.
          5    1    3    3  502    0 -0.38956604456E+02  0.36712062654E+02  0.36013355471E+03  0.36411405109E+03  0.41800000000E+01 0. -1.
         -5    1    3    3    0  502 -0.71109503733E+01  0.73984706024E+02  0.81956681389E+02  0.11071888893E+03  0.41800000000E+01 0. -1.
        -11    1    1    2    0    0 -0.10171315187E+02 -0.61193044913E+02  0.10367282874E+02  0.62892964253E+02  0.00000000000E+00 0. -1.
         11    1    1    2    0    0  0.56238870016E+02 -0.49503723765E+02  0.91472041750E+02  0.11823943331E+03  0.00000000000E+00 0.  1.
</event>
<event>
 7    1  0.2490079E-009  0.1332977E+03  0.7561462E-02  0.1222643E+00
         -2   -1    0    0    0  501 -0.00000000000E+00  0.00000000000E+00  0.23991981682E+03  0.23991981682E+03  0.00000000000E+00 0.  1.
          2   -1    0    0  501    0  0.00000000000E+00 -0.00000000000E+00 -0.95629481850E+02  0.95629481850E+02  0.00000000000E+00 0. -1.
         25    2    1    2    0    0  0.60594918903E+02 -0.52376364464E+02  0.57628085310E+01  0.14864489875E+03  0.12508824170E+03 0.  0.
          5    1    3    3  502    0  0.81829595233E+02 -0.79137471541E+02  0.11446769476E+01  0.11391929048E+03  0.41800000000E+01 0.  1.
         -5    1    3    3    0  502 -0.21234676330E+02  0.26761107077E+02  0.46181315835E+01  0.34725608276E+02  0.41800000000E+01 0.  1.
        -11    1    1    2    0    0 -0.82114401625E+02  0.30548190114E+02  0.71085182717E+02  0.11282318058E+03  0.00000000000E+00 0. -1.
         11    1    1    2    0    0  0.21519482722E+02  0.21828174350E+02  0.67442343726E+02  0.74081219343E+02  0.00000000000E+00 0.  1.
</event>
<event>
 7    1  0.2490079E-009  0.1375441E+03  0.7561462E-02  0.1216672E+00
         -2   -1    0    0    0  501 -0.00000000000E+00  0.00000000000E+00  0.13139017565E+02  0.13139017565E+02  0.00000000000E+00 0.  1.
          2   -1    0    0  501    0  0.00000000000E+00 -0.00000000000E+00 -0.22369363170E+04  0.22369363170E+04  0.00000000000E+00 0. -1.
         25    2    1    2    0    0 -0.31586923664E+02  0.78883112331E+02 -0.18459274262E+04  0.18521110412E+04  0.12508783719E+03 0.  0.
          5    1    3    3  502    0 -0.61830275587E+02  0.96847076372E+02 -0.14877006798E+04  0.14921370997E+04  0.41800000000E+01 0. -1.
         -5    1    3    3    0  502  0.30243351923E+02 -0.17963964042E+02 -0.35822674640E+03  0.35997394153E+03  0.41800000000E+01 0. -1.
        -11    1    1    2    0    0  0.54914810185E+02 -0.84421729806E+02 -0.31313567109E+03  0.32893253616E+03  0.00000000000E+00 0. -1.
         11    1    1    2    0    0 -0.23327886521E+02  0.55386174756E+01 -0.64734202161E+02  0.69031757203E+02  0.00000000000E+00 0.  1.
</event>
<event>
 7    1  0.2490079E-009  0.6768817E+02  0.7561462E-02  0.1368136E+00
          2   -1    0    0  501    0  0.00000000000E+00  0.00000000000E+00  0.22442497221E+04  0.22442497221E+04  0.00000000000E+00 0. -1.
         -2   -1    0    0    0  501 -0.00000000000E+00 -0.00000000000E+00 -0.69529368950E+01  0.69529368950E+01  0.00000000000E+00 0.  1.
         25    2    1    2    0    0  0.13776783440E+02 -0.11299278243E+02  0.17992930265E+04  0.18037242396E+04  0.12509302059E+03 0.  0.
          5    1    3    3  502    0 -0.37266373851E+01  0.13660282626E+02  0.24086619076E+02  0.28251172828E+02  0.41800000000E+01 0. -1.
         -5    1    3    3    0  502  0.17503420825E+02 -0.24959560868E+02  0.17752064075E+04  0.17754730668E+04  0.41800000000E+01 0. -1.
        -11    1    1    2    0    0 -0.41352295852E+02 -0.21811842774E+02  0.27111559534E+03  0.27511712941E+03  0.00000000000E+00 0.  1.
         11    1    1    2    0    0  0.27575512412E+02  0.33111121017E+02  0.16688816335E+03  0.17236128999E+03  0.00000000000E+00 0. -1.
</event>
<event>
 7    1  0.2490079E-009  0.1060971E+03  0.7561462E-02  0.1267973E+00
         -1   -1    0    0    0  501 -0.00000000000E+00  0.00000000000E+00  0.70621724698E+02  0.70621724698E+02  0.00000000000E+00 0.  1.
          1   -1    0    0  501    0  0.00000000000E+00 -0.00000000000E+00 -0.24064969358E+03  0.24064969358E+03  0.00000000000E+00 0. -1.
         25    2    1    2    0    0 -0.25369869216E+02  0.60302217793E+02 -0.13052086357E+03  0.19225848871E+03  0.12509053890E+03 0.  0.
          5    1    3    3  502    0 -0.38187760902E+02 -0.53558441409E+00  0.89954216810E+01  0.39458610526E+02  0.41800000000E+01 0.  1.
         -5    1    3    3    0  502  0.12817891686E+02  0.60837802207E+02 -0.13951628525E+03  0.15279987819E+03  0.41800000000E+01 0.  1.
        -11    1    1    2    0    0 -0.24346863552E+02 -0.56590612635E+02 -0.14738857445E+02  0.63344306153E+02  0.00000000000E+00 0.  1.
         11    1    1    2    0    0  0.49716732768E+02 -0.37116051577E+01 -0.24768247868E+02  0.55668623410E+02  0.00000000000E+00 0. -1.
</event>
<event>
 7    1  0.2490079E-009  0.9683459E+02  0.7561462E-02  0.1287097E+00
         -2   -1    0    0    0  501 -0.00000000000E+00  0.00000000000E+00  0.42410863961E+02  0.42410863961E+02  0.00000000000E+00 0.  1.
          2   -1    0    0  501    0  0.00000000000E+00 -0.00000000000E+00 -0.55050644190E+03  0.55050644190E+03  0.00000000000E+00 0. -1.
         25    2    1    2    0    0  0.22249517944E+01  0.53948434084E+02 -0.45421898240E+03  0.47421282510E+03  0.12509010978E+03 0.  0.
          5    1    3    3  502    0 -0.20485194578E+02  0.73566322309E+02 -0.14888766961E+03  0.16738177181E+03  0.41800000000E+01 0.  1.
         -5    1    3    3    0  502  0.22710146373E+02 -0.19617888225E+02 -0.30533131280E+03  0.30683105329E+03  0.41800000000E+01 0.  1.
        -11    1    1    2    0    0 -0.25460831323E+01  0.16371882679E+02  0.13456969224E+02  0.21345048664E+02  0.00000000000E+00 0.  1.
         11    1    1    2    0    0  0.32113133794E+00 -0.70320316762E+02 -0.67333564759E+02  0.97359432096E+02  0.00000000000E+00 0. -1.
</event>
<event>
 7    1  0.2490079E-009  0.9968802E+02  0.7561462E-02  0.1280953E+00
          1   -1    0    0  501    0  0.00000000000E+00  0.00000000000E+00  0.19448418083E+03  0.19448418083E+03  0.00000000000E+00 0. -1.
         -1   -1    0    0    0  501 -0.00000000000E+00 -0.00000000000E+00 -0.79054157226E+02  0.79054157226E+02  0.00000000000E+00 0.  1.
         25    2    1    2    0    0 -0.28183317032E+02  0.45153450188E+02  0.96560049323E+02  0.16674705824E+03  0.12509038685E+03 0.  0.
          5    1    3    3  502    0  0.47612098260E+02  0.26312725140E+02  0.57703531376E+02  0.79413105582E+02  0.41800000000E+01 0. -1.
         -5    1    3    3    0  502 -0.75795415292E+02  0.18840725048E+02  0.38856517947E+02  0.87333952656E+02  0.41800000000E+01 0. -1.
        -11    1    1    2    0    0  0.23659840131E+02 -0.25917864132E+01  0.48982101817E+02  0.54458715466E+02  0.00000000000E+00 0. -1.
         11    1    1    2    0    0  0.45234769007E+01 -0.42561663775E+02 -0.30112127537E+02  0.52332564349E+02  0.00000000000E+00 0.  1.
</event>
<event>
 7    1  0.2490079E-009  0.1084805E+03  0.7561462E-02  0.1263410E+00
          1   -1    0    0  501    0  0.00000000000E+00  0.00000000000E+00  0.15134693449E+03  0.15134693449E+03  0.00000000000E+00 0. -1.
         -1   -1    0    0    0  501 -0.00000000000E+00 -0.00000000000E+00 -0.10527692643E+03  0.10527692643E+03  0.00000000000E+00 0.  1.
         25    2    1    2    0    0  0.24184121983E+02  0.40976885682E+02  0.68937543047E+02  0.15055220471E+03  0.12509837963E+03 0.  0.
          5    1    3    3  502    0 -0.45046358945E+02  0.19656086935E+02 -0.16076750012E+01  0.49351729723E+02  0.41800000000E+01 0. -1.
         -5    1    3    3    0  502  0.69230480928E+02  0.21320798747E+02  0.70545218049E+02  0.10120047499E+03  0.41800000000E+01 0. -1.
        -11    1    1    2    0    0 -0.12529426701E+02 -0.66154964833E+02  0.40003644477E+01  0.67449750343E+02  0.00000000000E+00 0. -1.
         11    1    1    2    0    0 -0.11654695283E+02  0.25178079152E+02 -0.26867899441E+02  0.38621905860E+02  0.00000000000E+00 0.  1.
</event>
<event>
 7    1  0.2490079E-009  0.1508961E+03  0.7561462E-02  0.1199376E+00
         -2   -1    0    0    0  501 -0.00000000000E+00  0.00000000000E+00  0.28637482604E+02  0.28637482604E+02  0.00000000000E+00 0.  1.
          2   -1    0    0  501    0  0.00000000000E+00 -0.00000000000E+00 -0.10309157807E+04  0.10309157807E+04  0.00000000000E+00 0. -1.
         25    2    1    2    0    0 -0.25420430568E+02 -0.13130403447E+03 -0.55553416600E+03  0.58493886734E+03  0.12509324990E+03 0.  0.
          5    1    3    3  502    0  0.34548949211E+02 -0.82935186452E+02 -0.41482440164E+03  0.42446275648E+03  0.41800000000E+01 0. -1.
         -5    1    3    3    0  502 -0.59969379780E+02 -0.48368848016E+02 -0.14070976436E+03  0.16047611086E+03  0.41800000000E+01 0. -1.
        -11    1    1    2    0    0  0.77258875941E+01  0.81009022856E+02 -0.12967634987E+03  0.15309509084E+03  0.00000000000E+00 0.  1.
         11    1    1    2    0    0  0.17694542974E+02  0.50295011611E+02 -0.31706778220E+03  0.32151930510E+03  0.00000000000E+00 0. -1.
</event>
<event>
 7    1  0.2490079E-009  0.8872150E+02  0.7561462E-02  0.1305978E+00
         -2   -1    0    0    0  501 -0.00000000000E+00  0.00000000000E+00  0.10589511094E+02  0.10589511094E+02  0.00000000000E+00 0.  1.
          2   -1    0    0  501    0  0.00000000000E+00 -0.00000000000E+00 -0.13065294669E+04  0.13065294669E+04  0.00000000000E+00 0. -1.
         25    2    1    2    0    0  0.29807073890E+02  0.15160461579E+02 -0.99657638267E+03  0.10049530339E+04  0.12509121732E+03 0.  0.
          5    1    3    3  502    0 -0.36650410928E+02 -0.45775593881E+01 -0.11989486527E+03  0.12552472980E+03  0.41800000000E+01 0. -1.
         -5    1    3    3    0  502  0.66457484818E+02  0.19738020967E+02 -0.87668151739E+03  0.87942830413E+03  0.41800000000E+01 0. -1.
        -11    1    1    2    0    0  0.16439689746E+02  0.88936050619E+01 -0.17777203111E+02  0.25795126679E+02  0.00000000000E+00 0.  1.
         11    1    1    2    0    0 -0.46246763636E+02 -0.24054066640E+02 -0.28158636998E+03  0.28637081735E+03  0.00000000000E+00 0. -1.
</event>
<event>
 7    1  0.2490079E-009  0.1310289E+03  0.7561462E-02  0.1225937E+00
         -2   -1    0    0    0  501 -0.00000000000E+00  0.00000000000E+00  0.16080417442E+03  0.16080417442E+03  0.00000000000E+00 0.  1.
          2   -1    0    0  501    0  0.00000000000E+00 -0.00000000000E+00 -0.14469358636E+03  0.14469358636E+03  0.00000000000E+00 0. -1.
         25    2    1    2    0    0 -0.70759323557E+02 -0.41923462973E+02 -0.59477307517E+02  0.16108875902E+03  0.12509028562E+03 0.  0.
          5    1    3    3  502    0 -0.30997607062E+02 -0.84081893672E+02 -0.48421030940E+02  0.10194451983E+03  0.41800000000E+01 0. -1.
         -5    1    3    3    0  502 -0.39761716495E+02  0.42158430698E+02 -0.11056276577E+02  0.59144239190E+02  0.41800000000E+01 0. -1.
        -11    1    1    2    0    0  0.77726418796E+01  0.50127265050E+02  0.60817693176E+02  0.79195634137E+02  0.00000000000E+00 0.  1.
         11    1    1    2    0    0  0.62986681678E+02 -0.82038020762E+01  0.14770202393E+02  0.65213367618E+02  0.00000000000E+00 0. -1.
</event>
<event>
 7    1  0.2490079E-009  0.9751806E+02  0.7561462E-02  0.1285603E+00
         -3   -1    0    0    0  501 -0.00000000000E+00  0.00000000000E+00  0.24159036850E+03  0.24159036850E+03  0.00000000000E+00 0.  1.
          3   -1    0    0  501    0  0.00000000000E+00 -0.00000000000E+00 -0.98587410563E+02  0.98587410563E+02  0.00000000000E+00 0. -1.
         25    2    1    2    0    0  0.91804151946E+02 -0.25207806999E+02  0.13511037926E+03  0.20728131497E+03  0.12508914063E+03 0.  0.
          5    1    3    3  502    0  0.29652530764E+02 -0.11659222606E+02 -0.21181735518E+02  0.38488288765E+02  0.41800000000E+01 0.  1.
         -5    1    3    3    0  502  0.62151621182E+02 -0.13548584393E+02  0.15629211478E+03  0.16879302621E+03  0.41800000000E+01 0.  1.
        -11    1    1    2    0    0 -0.47471663058E+02  0.27316027064E+02  0.48187731858E+02  0.72950542354E+02  0.00000000000E+00 0.  1.
         11    1    1    2    0    0 -0.44332488888E+02 -0.21082200655E+01 -0.40295153182E+02  0.59945921736E+02  0.00000000000E+00 0. -1.
</event>
<event>
 7    1  0.2490079E-009  0.1090615E+03  0.7561462E-02  0.1262318E+00
          3   -1    0    0  501    0  0.00000000000E+00  0.00000000000E+00  0.97161344715E+02  0.97161344715E+02  0.00000000000E+00 0. -1.
         -3   -1    0    0    0  501 -0.00000000000E+00 -0.00000000000E+00 -0.20290054160E+03  0.20290054160E+03  0.00000000000E+00 0.  1.
         25    2    1    2    0    0 -0.57363084301E+01 -0.54120842749E+02 -0.13143063417E+03  0.18942727768E+03  0.12508681416E+03 0.  0.
          5    1    3    3  502    0  0.69188243654E+01 -0.91696719047E+02 -0.11229757199E+03  0.14520459872E+03  0.41800000000E+01 0. -1.
         -5    1    3    3    0  502 -0.12655132796E+02  0.37575876299E+02 -0.19133062176E+02  0.44222678955E+02  0.41800000000E+01 0. -1.
        -11    1    1    2    0    0 -0.28693255766E+02  0.10329425605E+02 -0.21756225134E+02  0.37461090372E+02  0.00000000000E+00 0.  1.
         11    1    1    2    0    0  0.34429564196E+02  0.43791417144E+02  0.47447662419E+02  0.73173518265E+02  0.00000000000E+00 0. -1.
</event>
<event>
 7    1  0.2490079E-009  0.4098995E+03  0.7561462E-02  0.1040405E+00
         -1   -1    0    0    0  501 -0.00000000000E+00  0.00000000000E+00  0.30161031407E+03  0.30161031407E+03  0.00000000000E+00 0.  1.
          1   -1    0    0  501    0  0.00000000000E+00 -0.00000000000E+00 -0.92548780773E+03  0.92548780773E+03  0.00000000000E+00 0. -1.
         25    2    1    2    0    0  0.37746416314E+02  0.40509265696E+03  0.56434477239E+02  0.42936851349E+03  0.12509043724E+03 0.  0.
          5    1    3    3  502    0  0.48369262192E+02  0.28548511596E+03 -0.14310169730E+02  0.28993721789E+03  0.41800000000E+01 0.  1.
         -5    1    3    3    0  502 -0.10622845879E+02  0.11960754100E+03  0.70744646970E+02  0.13943129560E+03  0.41800000000E+01 0.  1.
        -11    1    1    2    0    0 -0.42455165113E+02 -0.18064133864E+03 -0.23883907268E+03  0.30245303257E+03  0.00000000000E+00 0.  1.
         11    1    1    2    0    0  0.47087487997E+01 -0.22445131832E+03 -0.44147289822E+03  0.49527657574E+03  0.00000000000E+00 0. -1.
</event>
<event>
 7    1  0.2490079E-009  0.8982164E+02  0.7561462E-02  0.1303284E+00
          2   -1    0    0  501    0  0.00000000000E+00  0.00000000000E+00  0.82483398703E+02  0.82483398703E+02  0.00000000000E+00 0. -1.
         -2   -1    0    0    0  501 -0.00000000000E+00 -0.00000000000E+00 -0.24222080046E+03  0.24222080046E+03  0.00000000000E+00 0.  1.
         25    2    1    2    0    0  0.56803821812E+02 -0.30569267851E+02 -0.16041336815E+03  0.21340234859E+03  0.12508780674E+03 0.  0.
          5    1    3    3  502    0 -0.18574800579E+00  0.28437511271E+02  0.45674891793E+01  0.29104310798E+02  0.41800000000E+01 0.  1.
         -5    1    3    3    0  502  0.56989569817E+02 -0.59006779122E+02 -0.16498085732E+03  0.18429803779E+03  0.41800000000E+01 0.  1.
        -11    1    1    2    0    0 -0.57460906316E+01  0.13913327075E+02 -0.40771930754E+02  0.43462035908E+02  0.00000000000E+00 0.  1.
         11    1    1    2    0    0 -0.51057731180E+02  0.16655940775E+02  0.41447897142E+02  0.67839814665E+02  0.00000000000E+00 0. -1.
</event>
<event>
 7    1  0.2490079E-009  0.1127422E+03  0.7561462E-02  0.1255574E+00
         -2   -1    0    0    0  501 -0.00000000000E+00  0.00000000000E+00  0.50629924286E+02  0.50629924286E+02  0.00000000000E+00 0.  1.
          2   -1    0    0  501    0  0.00000000000E+00 -0.00000000000E+00 -0.36774441271E+03  0.36774441271E+03  0.00000000000E+00 0. -1.
         25    2    1    2    0    0 -0.43377183452E+02  0.72084810506E+02 -0.18162829543E+03  0.23604152377E+03  0.12509581645E+03 0.  0.
          5    1    3    3  502    0  0.11627821566E+02 -0.68793312688E+01  0.12791008384E+02  0.19068658279E+02  0.41800000000E+01 0.  1.
         -5    1    3    3    0  502 -0.55005005018E+02  0.78964141775E+02 -0.19441930382E+03  0.21697286549E+03  0.41800000000E+01 0.  1.
        -11    1    1    2    0    0  0.57757137578E+02 -0.79948041831E+02 -0.88295222177E+02  0.13237682045E+03  0.00000000000E+00 0. -1.
         11    1    1    2    0    0 -0.14379954126E+02  0.78632313247E+01 -0.47190970818E+02  0.49955992776E+02  0.00000000000E+00 0.  1.
</event>
<event>
 7    1  0.2490079E-009  0.1628228E+03  0.7561462E-02  0.1185546E+00
         -2   -1    0    0    0  501 -0.00000000000E+00  0.00000000000E+00  0.14669602083E+03  0.14669602083E+03  0.00000000000E+00 0. -1.
          2   -1    0    0  501    0  0.00000000000E+00 -0.00000000000E+00 -0.27047134709E+03  0.27047134709E+03  0.00000000000E+00 0.  1.
         25    2    1    2    0    0  0.77362313402E+02  0.14144369008E+03 -0.17943109828E+02  0.20484459698E+03  0.12509240074E+03 0.  0.
          5    1    3    3  502    0  0.17519329058E+02  0.14063660875E+02  0.45113293760E+02  0.50570694298E+02  0.41800000000E+01 0. -1.
         -5    1    3    3    0  502  0.59842984343E+02  0.12738002920E+03 -0.63056403589E+02  0.15427390268E+03  0.41800000000E+01 0. -1.
        -11    1    1    2    0    0 -0.29850525284E+01 -0.15036122699E+02  0.15629365827E+02  0.21892295462E+02  0.00000000000E+00 0. -1.
         11    1    1    2    0    0 -0.74377260873E+02 -0.12640756738E+03 -0.12146158226E+03  0.19043047548E+03  0.00000000000E+00 0.  1.
</event>
<event>
 7    1  0.2490079E-009  0.9558749E+02  0.7561462E-02  0.1289858E+00
          1   -1    0    0  501    0  0.00000000000E+00  0.00000000000E+00  0.84571144088E+03  0.84571144088E+03  0.00000000000E+00 0.  1.
         -1   -1    0    0    0  501 -0.00000000000E+00 -0.00000000000E+00 -0.19084026344E+02  0.19084026344E+02  0.00000000000E+00 0. -1.
         25    2    1    2    0    0  0.10691346327E+02  0.56030335661E+02  0.54451436151E+03  0.56160309036E+03  0.12509371610E+03 0.  0.
          5    1    3    3  502    0  0.34202860675E+02  0.25756288191E+02  0.50340684594E+03  0.50524167187E+03  0.41800000000E+01 0.  1.
         -5    1    3    3    0  502 -0.23511514348E+02  0.30274047471E+02  0.41107515574E+02  0.56361418486E+02  0.41800000000E+01 0.  1.
        -11    1    1    2    0    0 -0.41695724996E+02 -0.65086329553E+02  0.21998261900E+03  0.23316757159E+03  0.00000000000E+00 0.  1.
         11    1    1    2    0    0  0.31004378668E+02  0.90559938916E+01  0.62130434022E+02  0.70024805274E+02  0.00000000000E+00 0. -1.
</event>
<event>
 7    1  0.3654223E-009  0.2302788E+03  0.7561462E-02  0.1126444E+00
         -2   -1    0    0    0  501 -0.00000000000E+00  0.00000000000E+00  0.37992323731E+02  0.37992323731E+02  0.00000000000E+00 0. -1.
          2   -1    0    0  501    0  0.00000000000E+00 -0.00000000000E+00 -0.14493526156E+04  0.14493526156E+04  0.00000000000E+00 0.  1.
         25    2    1    2    0    0 -0.13634959336E+03  0.15493129725E+03 -0.79999511112E+03  0.83560196264E+03  0.12507415266E+03 0.  0.
          5    1    3    3  502    0 -0.15172151996E+03  0.16266464638E+03 -0.71633676128E+03  0.75009001777E+03  0.41800000000E+01 0.  1.
         -5    1    3    3    0  502  0.15371926595E+02 -0.77333491281E+01 -0.83658349847E+02  0.85511944868E+02  0.41800000000E+01 0.  1.
        -11    1    1    2    0    0  0.11800520396E+03 -0.78407314833E+02 -0.45729920449E+03  0.47874366587E+03  0.00000000000E+00 0.  1.
         11    1    1    2    0    0  0.18344389406E+02 -0.76523982418E+02 -0.15406597626E+03  0.17299931084E+03  0.00000000000E+00 0. -1.
</event>
<event>
 7    1  0.2490079E-009  0.1799004E+03  0.7561462E-02  0.1167899E+00
          2   -1    0    0  501    0  0.00000000000E+00  0.00000000000E+00  0.89742554420E+02  0.89742554420E+02  0.00000000000E+00 0. -1.
         -2   -1    0    0    0  501 -0.00000000000E+00 -0.00000000000E+00 -0.45913459762E+03  0.45913459762E+03  0.00000000000E+00 0.  1.
         25    2    1    2    0    0  0.11030719274E+03 -0.13157544365E+03 -0.22279425444E+03  0.30784071798E+03  0.12509537839E+03 0.  0.
          5    1    3    3  502    0  0.10831223871E+02 -0.41407260648E+02 -0.14794687256E+03  0.15407019876E+03  0.41800000000E+01 0. -1.
         -5    1    3    3    0  502  0.99475968872E+02 -0.90168183002E+02 -0.74847381876E+02  0.15377051922E+03  0.41800000000E+01 0. -1.
        -11    1    1    2    0    0 -0.56837289451E+02  0.11188049797E+03 -0.64483548037E+02  0.14108809753E+03  0.00000000000E+00 0.  1.
         11    1    1    2    0    0 -0.53469903291E+02  0.19694945678E+02 -0.82114240725E+02  0.99948336520E+02  0.00000000000E+00 0. -1.
</event>
<event>
 7    1  0.2490079E-009  0.7850486E+02  0.7561462E-02  0.1333349E+00
          1   -1    0    0  501    0  0.00000000000E+00  0.00000000000E+00  0.13781020105E+03  0.13781020105E+03  0.00000000000E+00 0. -1.
         -1   -1    0    0    0  501 -0.00000000000E+00 -0.00000000000E+00 -0.12561160051E+03  0.12561160051E+03  0.00000000000E+00 0.  1.
         25    2    1    2    0    0 -0.88546736720E+01  0.90019261009E+00  0.84192103419E+02  0.15104534202E+03  0.12508864647E+03 0.  0.
          5    1    3    3  502    0 -0.39938846043E+02 -0.26626984084E+02  0.96225235321E+02  0.10761447866E+03  0.41800000000E+01 0. -1.
         -5    1    3    3    0  502  0.31084172371E+02  0.27527176694E+02 -0.12033131903E+02  0.43430863360E+02  0.41800000000E+01 0. -1.
        -11    1    1    2    0    0 -0.54167822794E+01 -0.32223212542E+02 -0.10862402093E+00  0.32675506974E+02  0.00000000000E+00 0.  1.
         11    1    1    2    0    0  0.14271455951E+02  0.31323019932E+02 -0.71884878856E+02  0.79700952571E+02  0.00000000000E+00 0. -1.
</event>
<event>
 7    1  0.2490079E-009  0.1126396E+03  0.7561462E-02  0.1255758E+00
          1   -1    0    0  501    0  0.00000000000E+00  0.00000000000E+00  0.26852947360E+03  0.26852947360E+03  0.00000000000E+00 0. -1.
         -1   -1    0    0    0  501 -0.00000000000E+00 -0.00000000000E+00 -0.85031238713E+02  0.85031238713E+02  0.00000000000E+00 0.  1.
         25    2    1    2    0    0 -0.46762955349E+02 -0.56648170418E+02  0.13127383008E+02  0.14564560430E+03  0.12507807427E+03 0.  0.
          5    1    3    3  502    0  0.22898978882E+02 -0.51028805525E+02 -0.29807865637E+02  0.63516009643E+02  0.41800000000E+01 0. -1.
         -5    1    3    3    0  502 -0.69661934231E+02 -0.56193648937E+01  0.42935248645E+02  0.82129594659E+02  0.41800000000E+01 0. -1.
        -11    1    1    2    0    0  0.20110575176E+02 -0.13444073245E+02  0.28267709933E+01  0.24355060533E+02  0.00000000000E+00 0.  1.
         11    1    1    2    0    0  0.26652380174E+02  0.70092243663E+02  0.16754408089E+03  0.18356004748E+03  0.00000000000E+00 0. -1.
</event>
<event>
 7    1  0.2490079E-009  0.9824473E+02  0.7561462E-02  0.1284031E+00
          4   -1    0    0  501    0  0.00000000000E+00  0.00000000000E+00  0.13073074608E+03  0.13073074608E+03  0.00000000000E+00 0. -1.
         -4   -1    0    0    0  501 -0.00000000000E+00 -0.00000000000E+00 -0.11148039693E+03  0.11148039693E+03  0.00000000000E+00 0.  1.
         25    2    1    2    0    0 -0.15910984281E+02  0.47430243002E+02  0.39361519627E+02  0.14035143829E+03  0.12508560920E+03 0.  0.
          5    1    3    3  502    0 -0.41459955730E+02 -0.29210748716E+02  0.29594618789E+02  0.58868579318E+02  0.41800000000E+01 0. -1.
         -5    1    3    3    0  502  0.25548971449E+02  0.76640991718E+02  0.97669008379E+01  0.81482858968E+02  0.41800000000E+01 0. -1.
        -11    1    1    2    0    0  0.28992207834E+02 -0.23054465684E+02 -0.49286516267E+02  0.61654011944E+02  0.00000000000E+00 0.  1.
         11    1    1    2    0    0 -0.13081223553E+02 -0.24375777318E+02  0.29175345796E+02  0.40205692779E+02  0.00000000000E+00 0. -1.
</event>
<event>
 7    1  0.2490079E-009  0.8564357E+02  0.7561462E-02  0.1313758E+00
          1   -1    0    0  501    0  0.00000000000E+00  0.00000000000E+00  0.60983385933E+03  0.60983385933E+03  0.00000000000E+00 0. -1.
         -1   -1    0    0    0  501 -0.00000000000E+00 -0.00000000000E+00 -0.20053789590E+02  0.20053789590E+02  0.00000000000E+00 0.  1.
         25    2    1    2    0    0  0.35505546212E+01  0.20479808929E+02  0.31314779566E+03  0.33784883275E+03  0.12509301681E+03 0.  0.
          5    1    3    3  502    0  0.36854780935E+02 -0.25890116293E+02  0.24364113974E+03  0.24780445995E+03  0.41800000000E+01 0.  1.
         -5    1    3    3    0  502 -0.33304226314E+02  0.46369925222E+02  0.69506655916E+02  0.90044372795E+02  0.41800000000E+01 0.  1.
        -11    1    1    2    0    0 -0.12818170178E+02  0.21929157775E+02  0.21613313932E+02  0.33351593463E+02  0.00000000000E+00 0.  1.
         11    1    1    2    0    0  0.92676155566E+01 -0.42408966704E+02  0.25501896015E+03  0.25868722271E+03  0.00000000000E+00 0. -1.
</event>
<event>
 7    1  0.2490079E-009  0.9330462E+02  0.7561462E-02  0.1295041E+00
         -2   -1    0    0    0  501 -0.00000000000E+00  0.00000000000E+00  0.97424761725E+02  0.97424761725E+02  0.00000000000E+00 0.  1.
          2   -1    0    0  501    0  0.00000000000E+00 -0.00000000000E+00 -0.15964860735E+03  0.15964860735E+03  0.00000000000E+00 0. -1.
         25    2    1    2    0    0 -0.52578019400E+02  0.17338974008E+02 -0.93500603382E+01  0.13711414756E+03  0.12509107758E+03 0.  0.
          5    1    3    3  502    0  0.28703077867E+02 -0.23333859905E+02 -0.24931764258E+02  0.44804028459E+02  0.41800000000E+01 0. -1.
         -5    1    3    3    0  502 -0.81281097267E+02  0.40672833913E+02  0.15581703920E+02  0.92310119101E+02  0.41800000000E+01 0. -1.
        -11    1    1    2    0    0  0.30495289477E+02 -0.28617735081E+00  0.23595534357E+02  0.38558965486E+02  0.00000000000E+00 0.  1.
         11    1    1    2    0    0  0.22082729923E+02 -0.17052796657E+02 -0.76469319643E+02  0.81400256027E+02  0.00000000000E+00 0. -1.
</event>
<event>
 7    1  0.2490079E-009  0.3468708E+03  0.7561462E-02  0.1063907E+00
          2   -1    0    0  501    0  0.00000000000E+00  0.00000000000E+00  0.12172379151E+04  0.12172379151E+04  0.00000000000E+00 0. -1.
         -2   -1    0    0    0  501 -0.00000000000E+00 -0.00000000000E+00 -0.14441147014E+03  0.14441147014E+03  0.00000000000E+00 0.  1.
         25    2    1    2    0    0  0.30394888870E+03 -0.13711543432E+03  0.16944256695E+03  0.39438965794E+03  0.12508736757E+03 0.  0.
          5    1    3    3  502    0  0.10044517333E+03 -0.11033353044E+03  0.89708567590E+02  0.17414884519E+03  0.41800000000E+01 0.  1.
         -5    1    3    3    0  502  0.20350371537E+03 -0.26781903889E+02  0.79733999362E+02  0.22024081275E+03  0.41800000000E+01 0.  1.
        -11    1    1    2    0    0 -0.96069089222E+02  0.76004597006E+02  0.24114887341E+03  0.27047873820E+03  0.00000000000E+00 0.  1.
         11    1    1    2    0    0 -0.20787979947E+03  0.61110837318E+02  0.66223500460E+03  0.69678098911E+03  0.00000000000E+00 0. -1.
</event>
<event>
 7    1  0.2490079E-009  0.1740415E+03  0.7561462E-02  0.1173698E+00
         -2   -1    0    0    0  501 -0.00000000000E+00  0.00000000000E+00  0.13981767345E+03  0.13981767345E+03  0.00000000000E+00 0. -1.
          2   -1    0    0  501    0  0.00000000000E+00 -0.00000000000E+00 -0.22931777447E+03  0.22931777447E+03  0.00000000000E+00 0.  1.
         25    2    1    2    0    0 -0.98793056565E+02  0.97437942963E+02 -0.80143888494E+02  0.20328418854E+03  0.12508875926E+03 0.  0.
          5    1    3    3  502    0 -0.93825955603E+01 -0.28556191749E+02 -0.24562289188E+02  0.39041870304E+02  0.41800000000E+01 0.  1.
         -5    1    3    3    0  502 -0.89410461004E+02  0.12599413471E+03 -0.55581599306E+02  0.16424231824E+03  0.41800000000E+01 0.  1.
        -11    1    1    2    0    0  0.24558351844E+02  0.14758636330E+02  0.90928996355E+01  0.30060120016E+02  0.00000000000E+00 0. -1.
         11    1    1    2    0    0  0.74234704721E+02 -0.11219657929E+03 -0.18449112168E+02  0.13579113936E+03  0.00000000000E+00 0.  1.
</event>
<event>
 7    1  0.2490079E-009  0.7897546E+02  0.7561462E-02  0.1331984E+00
         -2   -1    0    0    0  501 -0.00000000000E+00  0.00000000000E+00  0.48882087772E+02  0.48882087772E+02  0.00000000000E+00 0. -1.
          2   -1    0    0  501    0  0.00000000000E+00 -0.00000000000E+00 -0.45763571780E+03  0.45763571780E+03  0.00000000000E+00 0.  1.
         25    2    1    2    0    0 -0.48383254315E+02 -0.13110019654E+02 -0.69963960090E+02  0.15183904471E+03  0.12508927961E+03 0.  0.
          5    1    3    3  502    0 -0.27400464044E+02  0.71576605084E+01  0.33612914038E+02  0.44151080665E+02  0.41800000000E+01 0.  1.
         -5    1    3    3    0  502 -0.20982790271E+02 -0.20267680162E+02 -0.10357687413E+03  0.10768796405E+03  0.41800000000E+01 0.  1.
        -11    1    1    2    0    0  0.66532956001E+02 -0.13259602177E+02 -0.27580102376E+03  0.28402228080E+03  0.00000000000E+00 0.  1.
         11    1    1    2    0    0 -0.18149701686E+02  0.26369621831E+02 -0.62988646180E+02  0.70656480060E+02  0.00000000000E+00 0. -1.
</event>
<event>
 7    1  0.2490079E-009  0.1004074E+03  0.7561462E-02  0.1279441E+00
          1   -1    0    0  501    0  0.00000000000E+00  0.00000000000E+00  0.60969307134E+02  0.60969307134E+02  0.00000000000E+00 0. -1.
         -1   -1    0    0    0  501 -0.00000000000E+00 -0.00000000000E+00 -0.21662021927E+03  0.21662021927E+03  0.00000000000E+00 0.  1.
         25    2    1    2    0    0  0.17085591212E+02 -0.33845469587E+02 -0.94441522168E+02  0.16125629219E+03  0.12508779885E+03 0.  0.
          5    1    3    3  502    0 -0.46620784906E+02 -0.18646747826E+02 -0.54445334986E+01  0.50678537220E+02  0.41800000000E+01 0.  1.
         -5    1    3    3    0  502  0.63706376118E+02 -0.15198721761E+02 -0.88996988669E+02  0.11057775497E+03  0.41800000000E+01 0.  1.
        -11    1    1    2    0    0 -0.30432101947E+01  0.57345513493E+02 -0.67112485503E+02  0.88328108530E+02  0.00000000000E+00 0.  1.
         11    1    1    2    0    0 -0.14042381017E+02 -0.23500043905E+02  0.59030955299E+01  0.28005125692E+02  0.00000000000E+00 0. -1.
</event>
<event>
 7    1  0.2490079E-009  0.8098534E+02  0.7561462E-02  0.1326278E+00
          2   -1    0    0  501    0  0.00000000000E+00  0.00000000000E+00  0.11983657732E+03  0.11983657732E+03  0.00000000000E+00 0.  1.
         -2   -1    0    0    0  501 -0.00000000000E+00 -0.00000000000E+00 -0.17656580448E+03  0.17656580448E+03  0.00000000000E+00 0. -1.
         25    2    1    2    0    0  0.13745318664E+02 -0.25637424860E+02  0.62505637857E+02  0.14282935030E+03  0.12508819770E+03 0.  0.
          5    1    3    3  502    0  0.22569375589E+02 -0.47671913106E+02 -0.20237109816E+02  0.56648045221E+02  0.41800000000E+01 0. -1.
         -5    1    3    3    0  502 -0.88240569247E+01  0.22034488246E+02  0.82742747673E+02  0.86181305080E+02  0.41800000000E+01 0. -1.
        -11    1    1    2    0    0 -0.47371511798E+02  0.14728611629E+02 -0.10370743777E+03  0.11496184054E+03  0.00000000000E+00 0.  1.
         11    1    1    2    0    0  0.33626193134E+02  0.10908813232E+02 -0.15527427242E+02  0.38611190963E+02  0.00000000000E+00 0. -1.
</event>
<event>
 7    1  0.2490079E-009  0.9136937E+02  0.7561462E-02  0.1299569E+00
         -3   -1    0    0    0  501 -0.00000000000E+00  0.00000000000E+00  0.15117285989E+03  0.15117285989E+03  0.00000000000E+00 0.  1.
          3   -1    0    0  501    0  0.00000000000E+00 -0.00000000000E+00 -0.79183085567E+02  0.79183085567E+02  0.00000000000E+00 0. -1.
         25    2    1    2    0    0 -0.45585725635E+01 -0.31648844747E+02  0.37392563670E+02  0.13442770947E+03  0.12510066067E+03 0.  0.
          5    1    3    3  502    0  0.48437675954E+02 -0.46537260286E+02 -0.78681683445E+00  0.67305397461E+02  0.41800000000E+01 0. -1.
         -5    1    3    3    0  502 -0.52996248517E+02  0.14888415539E+02  0.38179380505E+02  0.67122312012E+02  0.41800000000E+01 0. -1.
        -11    1    1    2    0    0  0.22350382211E+02 -0.17194032550E+01  0.50233203178E+02  0.55007914286E+02  0.00000000000E+00 0.  1.
         11    1    1    2    0    0 -0.17791809648E+02  0.33368248002E+02 -0.15635992527E+02  0.40920321695E+02  0.00000000000E+00 0. -1.
</event>
<event>
 7    1  0.2490079E-009  0.9381900E+02  0.7561462E-02  0.1293858E+00
          1   -1    0    0  501    0  0.00000000000E+00  0.00000000000E+00  0.14219483664E+03  0.14219483664E+03  0.00000000000E+00 0. -1.
         -1   -1    0    0    0  501 -0.00000000000E+00 -0.00000000000E+00 -0.11530906119E+03  0.11530906119E+03  0.00000000000E+00 0.  1.
         25    2    1    2    0    0  0.16633286313E+02  0.28352244004E+02  0.76704948913E+02  0.15037229490E+03  0.12509061488E+03 0.  0.
          5    1    3    3  502    0  0.49558685066E+01 -0.33500041574E+02 -0.16439964989E+02  0.37875562926E+02  0.41800000000E+01 0. -1.
         -5    1    3    3    0  502  0.11677417806E+02  0.61852285578E+02  0.93144913902E+02  0.11249673197E+03  0.41800000000E+01 0. -1.
        -11    1    1    2    0    0 -0.91606834347E+01 -0.58581588030E+02 -0.47377157080E+02  0.75896742948E+02  0.00000000000E+00 0. -1.
         11    1    1    2    0    0 -0.74726028780E+01  0.30229344026E+02 -0.24420163809E+01  0.31234859981E+02  0.00000000000E+00 0.  1.
</event>
<event>
 7    1  0.2490079E-009  0.9657968E+02  0.7561462E-02  0.1287657E+00
         -1   -1    0    0    0  501 -0.00000000000E+00  0.00000000000E+00  0.28753576554E+02  0.28753576554E+02  0.00000000000E+00 0.  1.
          1   -1    0    0  501    0  0.00000000000E+00 -0.00000000000E+00 -0.38054402953E+03  0.38054402953E+03  0.00000000000E+00 0. -1.
         25    2    1    2    0    0  0.38717491336E+02  0.41383297462E+02 -0.19771584739E+03  0.24073370844E+03  0.12509812400E+03 0.  0.
          5    1    3    3  502    0 -0.11670063015E+02  0.70797358442E+02 -0.70329057933E+02  0.10055896341E+03  0.41800000000E+01 0.  1.
         -5    1    3    3    0  502  0.50387554351E+02 -0.29414060980E+02 -0.12738678945E+03  0.14017474503E+03  0.41800000000E+01 0.  1.
        -11    1    1    2    0    0 -0.25572639295E+02 -0.42497996468E+02 -0.86477047163E+02  0.99691119316E+02  0.00000000000E+00 0.  1.
         11    1    1    2    0    0 -0.13144852041E+02  0.11146990062E+01 -0.67597558428E+02  0.68872778327E+02  0.00000000000E+00 0. -1.
</event>
<event>
 7    1  0.3240263E-009  0.1055705E+03  0.7561462E-02  0.1269000E+00
          1   -1    0    0  501    0  0.00000000000E+00  0.00000000000E+00  0.13437762811E+04  0.13437762811E+04  0.00000000000E+00 0. -1.
         -1   -1    0    0    0  501 -0.00000000000E+00 -0.00000000000E+00 -0.18126914830E+02  0.18126914830E+02  0.00000000000E+00 0.  1.
         25    2    1    2    0    0  0.25619112794E+02  0.35117195496E+02  0.11629989222E+04  0.11705138764E+04  0.12508671232E+03 0.  0.
          5    1    3    3  502    0 -0.38559255540E+02  0.49153551562E+02  0.71023073585E+03  0.71298531427E+03  0.41800000000E+01 0.  1.
         -5    1    3    3    0  502  0.64178368334E+02 -0.14036356066E+02  0.45276818630E+03  0.45752856215E+03  0.41800000000E+01 0.  1.
        -11    1    1    2    0    0  0.16318767659E+02 -0.37291503448E+02  0.25687905332E+02  0.48133427965E+02  0.00000000000E+00 0.  1.
         11    1    1    2    0    0 -0.41937880453E+02  0.21743079517E+01  0.13696253878E+03  0.14325589154E+03  0.00000000000E+00 0. -1.
</event>
<event>
 7    1  0.2490079E-009  0.7635057E+02  0.7561462E-02  0.1339739E+00
          1   -1    0    0  501    0  0.00000000000E+00  0.00000000000E+00  0.15301398450E+03  0.15301398450E+03  0.00000000000E+00 0. -1.
         -1   -1    0    0    0  501 -0.00000000000E+00 -0.00000000000E+00 -0.11540082581E+03  0.11540082581E+03  0.00000000000E+00 0.  1.
         25    2    1    2    0    0  0.24718972879E+02  0.12374908305E+02 -0.54196345562E+02  0.13910263900E+03  0.12509250309E+03 0.  0.
          5    1    3    3  502    0 -0.28955554460E+02  0.33195667866E+02  0.17040097076E+02  0.47415333043E+02  0.41800000000E+01 0. -1.
         -5    1    3    3    0  502  0.53674527339E+02 -0.20820759561E+02 -0.71236442638E+02  0.91687305956E+02  0.41800000000E+01 0. -1.
        -11    1    1    2    0    0 -0.14577485796E+02  0.15374138172E+02  0.97024949561E+02  0.99311167821E+02  0.00000000000E+00 0.  1.
         11    1    1    2    0    0 -0.10141487083E+02 -0.27749046477E+02 -0.52154453159E+01  0.30001003491E+02  0.00000000000E+00 0. -1.
</event>
<event>
 7    1  0.2490079E-009  0.1076462E+03  0.7561462E-02  0.1264992E+00
          3   -1    0    0  501    0  0.00000000000E+00  0.00000000000E+00  0.71007411882E+02  0.71007411882E+02  0.00000000000E+00 0. -1.
         -3   -1    0    0    0  501 -0.00000000000E+00 -0.00000000000E+00 -0.18874643016E+03  0.18874643016E+03  0.00000000000E+00 0.  1.
         25    2    1    2    0    0  0.38845211875E+02 -0.10094098213E+02 -0.64790080153E+02  0.14647760601E+03  0.12508834188E+03 0.  0.
          5    1    3    3  502    0  0.81330642378E+02 -0.21694173610E+02 -0.27595985905E+02  0.88681009220E+02  0.41800000000E+01 0. -1.
         -5    1    3    3    0  502 -0.42485430502E+02  0.11600075397E+02 -0.37194094248E+02  0.57796596795E+02  0.41800000000E+01 0. -1.
        -11    1    1    2    0    0  0.22978104112E+02  0.97252907519E+01 -0.44308526869E+02  0.50850959697E+02  0.00000000000E+00 0. -1.
         11    1    1    2    0    0 -0.61823315987E+02  0.36880746119E+00 -0.86404112588E+01  0.62425276333E+02  0.00000000000E+00 0.  1.
</event>
<event>
 7    1  0.2490079E-009  0.7331396E+02  0.7561462E-02  0.1349173E+00
          2   -1    0    0  501    0  0.00000000000E+00  0.00000000000E+00  0.65793490809E+02  0.65793490809E+02  0.00000000000E+00 0. -1.
         -2   -1    0    0    0  501 -0.00000000000E+00 -0.00000000000E+00 -0.19548381956E+03  0.19548381956E+03  0.00000000000E+00 0.  1.
         25    2    1    2    0    0 -0.12930874766E+02 -0.28758443541E+02 -0.86233975474E+02  0.15517260573E+03  0.12509190000E+03 0.  0.
          5    1    3    3  502    0 -0.58044377923E+01 -0.48500032621E+02  0.15340041803E+02  0.51368608555E+02  0.41800000000E+01 0.  1.
         -5    1    3    3    0  502 -0.71264369733E+01  0.19741589081E+02 -0.10157401728E+03  0.10380399717E+03  0.41800000000E+01 0.  1.
        -11    1    1    2    0    0 -0.28484075105E+02  0.66255634109E+01  0.13564328958E+02  0.32237115956E+02  0.00000000000E+00 0. -1.
         11    1    1    2    0    0  0.41414949870E+02  0.22132880130E+02 -0.57020682235E+02  0.73867588685E+02  0.00000000000E+00 0.  1.
</event>
<event>
 7    1  0.2490079E-009  0.8042382E+02  0.7561462E-02  0.1327853E+00
         -2   -1    0    0    0  501 -0.00000000000E+00  0.00000000000E+00  0.14168071966E+03  0.14168071966E+03  0.00000000000E+00 0.  1.
          2   -1    0    0  501    0  0.00000000000E+00 -0.00000000000E+00 -0.12343715241E+03  0.12343715241E+03  0.00000000000E+00 0. -1.
         25    2    1    2    0    0 -0.46334246668E+02  0.38466317021E+02  0.53484746631E+02  0.14877797382E+03  0.12509095656E+03 0.  0.
          5    1    3    3  502    0 -0.66351682549E+01  0.22825261697E+02  0.89554573881E+02  0.92749728476E+02  0.41800000000E+01 0. -1.
         -5    1    3    3    0  502 -0.39699078413E+02  0.15641055324E+02 -0.36069827250E+02  0.56028245344E+02  0.41800000000E+01 0. -1.
        -11    1    1    2    0    0  0.23933673132E+02  0.20024509468E+02  0.16317875333E+02  0.35214695007E+02  0.00000000000E+00 0.  1.
         11    1    1    2    0    0  0.22400573536E+02 -0.58490826489E+02 -0.51559054708E+02  0.81125203239E+02  0.00000000000E+00 0. -1.
</event>
<event>
 7    1  0.2490079E-009  0.9473900E+02  0.7561462E-02  0.1291765E+00
         -2   -1    0    0    0  501 -0.00000000000E+00  0.00000000000E+00  0.29933480178E+03  0.29933480178E+03  0.00000000000E+00 0.  1.
          2   -1    0    0  501    0  0.00000000000E+00 -0.00000000000E+00 -0.45295795556E+02  0.45295795556E+02  0.00000000000E+00 0. -1.
         25    2    1    2    0    0  0.37018335260E+02  0.79475289641E+01  0.14142139631E+03  0.19256000715E+03  0.12508327089E+03 0.  0.
          5    1    3    3  502    0  0.51288202042E+02 -0.42307431579E+02  0.38191650617E+02  0.76788495312E+02  0.41800000000E+01 0. -1.
         -5    1    3    3    0  502 -0.14269866782E+02  0.50254960543E+02  0.10322974569E+03  0.11577151184E+03  0.41800000000E+01 0. -1.
        -11    1    1    2    0    0 -0.24157051196E+02  0.25192963122E+02  0.98801905161E+00  0.34917398171E+02  0.00000000000E+00 0. -1.
         11    1    1    2    0    0 -0.12861284064E+02 -0.33140492086E+02  0.11162959086E+03  0.11715319202E+03  0.00000000000E+00 0.  1.
</event>
<event>
 7    1  0.2490079E-009  0.1218575E+03  0.7561462E-02  0.1240064E+00
          4   -1    0    0  501    0  0.00000000000E+00  0.00000000000E+00  0.47793048609E+03  0.47793048609E+03  0.00000000000E+00 0. -1.
         -4   -1    0    0    0  501 -0.00000000000E+00 -0.00000000000E+00 -0.57995275982E+02  0.57995275982E+02  0.00000000000E+00 0.  1.
         25    2    1    2    0    0 -0.72177831203E+02 -0.83930999931E+02  0.31958767274E+03  0.36060564698E+03  0.12508437152E+03 0.  0.
          5    1    3    3  502    0 -0.59075564961E+02 -0.28960674460E+02  0.44016571972E+02  0.79268998031E+02  0.41800000000E+01 0. -1.
         -5    1    3    3    0  502 -0.13102266242E+02 -0.54970325471E+02  0.27557110077E+03  0.28133664895E+03  0.41800000000E+01 0. -1.
        -11    1    1    2    0    0  0.73438382105E+02  0.53967832288E+02  0.25421091829E+02  0.94614770506E+02  0.00000000000E+00 0.  1.
         11    1    1    2    0    0 -0.12605509024E+01  0.29963167643E+02  0.74926445536E+02  0.80705344584E+02  0.00000000000E+00 0. -1.
</event>
<event>
 7    1  0.2490079E-009  0.1058837E+03  0.7561462E-02  0.1268388E+00
          1   -1    0    0  501    0  0.00000000000E+00  0.00000000000E+00  0.16975722228E+03  0.16975722228E+03  0.00000000000E+00 0. -1.
         -1   -1    0    0    0  501 -0.00000000000E+00 -0.00000000000E+00 -0.10548700396E+03  0.10548700396E+03  0.00000000000E+00 0.  1.
         25    2    1    2    0    0  0.11150984306E+02 -0.14636191379E+02  0.11519612836E+03  0.17104398060E+03  0.12508929914E+03 0.  0.
          5    1    3    3  502    0  0.54528973209E+02  0.30915072194E+02  0.49365017402E+02  0.79896983366E+02  0.41800000000E+01 0. -1.
         -5    1    3    3    0  502 -0.43377988902E+02 -0.45551263573E+02  0.65831110958E+02  0.91146997231E+02  0.41800000000E+01 0. -1.
        -11    1    1    2    0    0 -0.71780291127E+01 -0.35193212748E+02 -0.38578323937E+02  0.52710277966E+02  0.00000000000E+00 0.  1.
         11    1    1    2    0    0 -0.39729551936E+01  0.49829404127E+02 -0.12347586111E+02  0.51489967677E+02  0.00000000000E+00 0. -1.
</event>
<event>
 7    1  0.2490079E-009  0.1178310E+03  0.7561462E-02  0.1246719E+00
          1   -1    0    0  501    0  0.00000000000E+00  0.00000000000E+00  0.36485730001E+02  0.36485730001E+02  0.00000000000E+00 0. -1.
         -1   -1    0    0    0  501 -0.00000000000E+00 -0.00000000000E+00 -0.43635488326E+03  0.43635488326E+03  0.00000000000E+00 0.  1.
         25    2    1    2    0    0 -0.55646699520E+02 -0.35709284079E+02 -0.24548143727E+03  0.28333824930E+03  0.12509084433E+03 0.  0.
          5    1    3    3  502    0 -0.35278673513E+02 -0.80782320342E+02 -0.18594571568E+03  0.20582431747E+03  0.41800000000E+01 0. -1.
         -5    1    3    3    0  502 -0.20368026007E+02  0.45073036263E+02 -0.59535721594E+02  0.77513931826E+02  0.41800000000E+01 0. -1.
        -11    1    1    2    0    0 -0.96247905199E+01  0.30857654999E+02 -0.15253703836E+02  0.35742229160E+02  0.00000000000E+00 0.  1.
         11    1    1    2    0    0  0.65271490040E+02  0.48516290801E+01 -0.13913401216E+03  0.15376013481E+03  0.00000000000E+00 0. -1.
</event>
<event>
 7    1  0.2490079E-009  0.1183169E+03  0.7561462E-02  0.1245900E+00
         -1   -1    0    0    0  501 -0.00000000000E+00  0.00000000000E+00  0.50528543361E+03  0.50528543361E+03  0.00000000000E+00 0.  1.
          1   -1    0    0  501    0  0.00000000000E+00 -0.00000000000E+00 -0.49818815241E+02  0.49818815241E+02  0.00000000000E+00 0. -1.
         25    2    1    2    0    0 -0.77814292569E+02  0.82006824064E+02  0.28953198948E+03  0.33504796965E+03  0.12509270847E+03 0.  0.
          5    1    3    3  502    0 -0.14415859646E+02 -0.31755359694E+01  0.18617644574E+03  0.18680750089E+03  0.41800000000E+01 0.  1.
         -5    1    3    3    0  502 -0.63398432923E+02  0.85182360033E+02  0.10335554374E+03  0.14824046877E+03  0.41800000000E+01 0.  1.
        -11    1    1    2    0    0  0.68859546979E+01 -0.18791426261E+02  0.10566160650E+03  0.10754026762E+03  0.00000000000E+00 0.  1.
         11    1    1    2    0    0  0.70928337871E+02 -0.63215397803E+02  0.60273022384E+02  0.11251601157E+03  0.00000000000E+00 0. -1.
</event>
<event>
 7    1  0.2490079E-009  0.9183842E+02  0.7561462E-02  0.1298460E+00
          1   -1    0    0  501    0  0.00000000000E+00  0.00000000000E+00  0.63205364144E+02  0.63205364144E+02  0.00000000000E+00 0. -1.
         -1   -1    0    0    0  501 -0.00000000000E+00 -0.00000000000E+00 -0.30129429646E+03  0.30129429646E+03  0.00000000000E+00 0.  1.
         25    2    1    2    0    0  0.38728139811E+02 -0.21151842950E+02 -0.22645433923E+03  0.26244269858E+03  0.12508930013E+03 0.  0.
          5    1    3    3  502    0 -0.28099853777E+02 -0.51739423498E+02 -0.99682323013E+02  0.11584734631E+03  0.41800000000E+01 0.  1.
         -5    1    3    3    0  502  0.66827993588E+02  0.30587580548E+02 -0.12677201621E+03  0.14659535227E+03  0.41800000000E+01 0.  1.
        -11    1    1    2    0    0 -0.29747205058E+02  0.19173050114E+01  0.37869108010E+02  0.48193792223E+02  0.00000000000E+00 0. -1.
         11    1    1    2    0    0 -0.89809347525E+01  0.19234537939E+02 -0.49503701095E+02  0.53863169800E+02  0.00000000000E+00 0.  1.
</event>
<event>
 7    1  0.2490079E-009  0.1598644E+03  0.7561462E-02  0.1188850E+00
          3   -1    0    0  501    0  0.00000000000E+00  0.00000000000E+00  0.29972310319E+03  0.29972310319E+03  0.00000000000E+00 0. -1.
         -3   -1    0    0    0  501 -0.00000000000E+00 -0.00000000000E+00 -0.94086867558E+02  0.94086867558E+02  0.00000000000E+00 0.  1.
         25    2    1    2    0    0 -0.11301052146E+03 -0.37141861030E+02  0.15933340752E+03  0.23491589884E+03  0.12508976367E+03 0.  0.
          5    1    3    3  502    0 -0.10537361707E+03  0.24567839798E+02  0.11790211525E+03  0.16007985229E+03  0.41800000000E+01 0. -1.
         -5    1    3    3    0  502 -0.76369043911E+01 -0.61709700828E+02  0.41431292266E+02  0.74836046554E+02  0.41800000000E+01 0. -1.
        -11    1    1    2    0    0  0.13274990567E+02  0.47063374544E+02  0.10169585582E+01  0.48910334315E+02  0.00000000000E+00 0.  1.
         11    1    1    2    0    0  0.99735530895E+02 -0.99215135140E+01  0.45285869552E+02  0.10998373759E+03  0.00000000000E+00 0. -1.
</event>
<event>
 7    1  0.2688738E-009  0.1743306E+03  0.7561462E-02  0.1173405E+00
          2   -1    0    0  501    0  0.00000000000E+00  0.00000000000E+00  0.60489856471E+03  0.60489856471E+03  0.00000000000E+00 0. -1.
         -2   -1    0    0    0  501 -0.00000000000E+00 -0.00000000000E+00 -0.60127318654E+02  0.60127318654E+02  0.00000000000E+00 0.  1.
         25    2    1    2    0    0 -0.31630346851E+02  0.15251852422E+03  0.31797487748E+03  0.37552333577E+03  0.12508946369E+03 0.  0.
          5    1    3    3  502    0 -0.50428311533E+02  0.14160690152E+03  0.31972263468E+03  0.35332076742E+03  0.41800000000E+01 0.  1.
         -5    1    3    3    0  502  0.18797964682E+02  0.10911622692E+02 -0.17477572021E+01  0.22202568347E+02  0.41800000000E+01 0.  1.
        -11    1    1    2    0    0  0.59650101750E+02 -0.11190018490E+03  0.13455302727E+03  0.18488997584E+03  0.00000000000E+00 0.  1.
         11    1    1    2    0    0 -0.28019754899E+02 -0.40618339317E+02  0.92243341310E+02  0.10461257176E+03  0.00000000000E+00 0. -1.
</event>
<event>
 7    1  0.2490079E-009  0.1387820E+03  0.7561462E-02  0.1214977E+00
          1   -1    0    0  501    0  0.00000000000E+00  0.00000000000E+00  0.80282761209E+03  0.80282761209E+03  0.00000000000E+00 0. -1.
         -1   -1    0    0    0  501 -0.00000000000E+00 -0.00000000000E+00 -0.28459097792E+02  0.28459097792E+02  0.00000000000E+00 0.  1.
         25    2    1    2    0    0 -0.75320238190E+02 -0.58699398597E+02  0.55991206521E+03  0.58160795568E+03  0.12509011021E+03 0.  0.
          5    1    3    3  502    0 -0.17549646328E+02  0.39098897802E+02  0.17845825957E+03  0.18357978294E+03  0.41800000000E+01 0.  1.
         -5    1    3    3    0  502 -0.57770591862E+02 -0.97798296399E+02  0.38145380564E+03  0.39802817275E+03  0.41800000000E+01 0.  1.
        -11    1    1    2    0    0  0.11510787788E+02  0.55789268669E+02  0.61016542768E+02  0.83474302785E+02  0.00000000000E+00 0.  1.
         11    1    1    2    0    0  0.63809450402E+02  0.29101299282E+01  0.15343990632E+03  0.16620445141E+03  0.00000000000E+00 0. -1.
</event>
<event>
 7    1  0.2490079E-009  0.1445257E+03  0.7561462E-02  0.1207366E+00
          1   -1    0    0  501    0  0.00000000000E+00  0.00000000000E+00  0.10274040094E+03  0.10274040094E+03  0.00000000000E+00 0. -1.
         -1   -1    0    0    0  501 -0.00000000000E+00 -0.00000000000E+00 -0.26860832365E+03  0.26860832365E+03  0.00000000000E+00 0.  1.
         25    2    1    2    0    0 -0.92818885879E+02 -0.73341621721E+02 -0.13951588996E+03  0.22159331227E+03  0.12507826925E+03 0.  0.
          5    1    3    3  502    0  0.15993573561E+02  0.20940674232E+02 -0.12130150737E+02  0.29307323137E+02  0.41800000000E+01 0. -1.
         -5    1    3    3    0  502 -0.10881245944E+03 -0.94282295952E+02 -0.12738573923E+03  0.19228598914E+03  0.41800000000E+01 0. -1.
        -11    1    1    2    0    0  0.45986508382E+02  0.34446945446E+02 -0.57573099337E+02  0.81338876135E+02  0.00000000000E+00 0.  1.
         11    1    1    2    0    0  0.46832377497E+02  0.38894676275E+02  0.31221066590E+02  0.68416536185E+02  0.00000000000E+00 0. -1.
</event>
<event>
 7    1  0.2490079E-009  0.1015211E+03  0.7561462E-02  0.1277129E+00
         -2   -1    0    0    0  501 -0.00000000000E+00  0.00000000000E+00  0.60963467827E+03  0.60963467827E+03  0.00000000000E+00 0. -1.
          2   -1    0    0  501    0  0.00000000000E+00 -0.00000000000E+00 -0.30284118594E+02  0.30284118594E+02  0.00000000000E+00 0.  1.
         25    2    1    2    0    0  0.67813319829E+02 -0.37188686825E+02  0.38431943752E+03  0.41149827771E+03  0.12509099780E+03 0.  0.
          5    1    3    3  502    0  0.12719869288E+01  0.30427869579E+02  0.21653482313E+03  0.21870591036E+03  0.41800000000E+01 0. -1.
         -5    1    3    3    0  502  0.66541332900E+02 -0.67616556404E+02  0.16778461439E+03  0.19279236735E+03  0.41800000000E+01 0. -1.
        -11    1    1    2    0    0 -0.57122820838E+02  0.31565104429E+02  0.20347307248E+03  0.21368355974E+03  0.00000000000E+00 0. -1.
         11    1    1    2    0    0 -0.10690498991E+02  0.56235823952E+01 -0.84419503200E+01  0.14736959416E+02  0.00000000000E+00 0.  1.
</event>
<event>
 7    1  0.2490079E-009  0.1244516E+03  0.7561462E-02  0.1235929E+00
          1   -1    0    0  501    0  0.00000000000E+00  0.00000000000E+00  0.35567823382E+03  0.35567823382E+03  0.00000000000E+00 0. -1.
         -1   -1    0    0    0  501 -0.00000000000E+00 -0.00000000000E+00 -0.62005403044E+02  0.62005403044E+02  0.00000000000E+00 0.  1.
         25    2    1    2    0    0  0.98960149655E+02  0.21811548232E+02  0.17249763537E+03  0.23594949118E+03  0.12509145982E+03 0.  0.
          5    1    3    3  502    0  0.32532871053E+02  0.48624578217E+02  0.11618383638E+02  0.59792947277E+02  0.41800000000E+01 0. -1.
         -5    1    3    3    0  502  0.66427278602E+02 -0.26813029985E+02  0.16087925174E+03  0.17615654390E+03  0.41800000000E+01 0. -1.
        -11    1    1    2    0    0 -0.46893383417E+02 -0.41704792655E+02  0.10728560225E+03  0.12429191281E+03  0.00000000000E+00 0.  1.
         11    1    1    2    0    0 -0.52066766238E+02  0.19893244423E+02  0.13889593148E+02  0.57442232878E+02  0.00000000000E+00 0. -1.
</event>
<event>
 7    1  0.2490079E-009  0.7356365E+02  0.7561462E-02  0.1348378E+00
          2   -1    0    0  501    0  0.00000000000E+00  0.00000000000E+00  0.34374137354E+03  0.34374137354E+03  0.00000000000E+00 0. -1.
         -2   -1    0    0    0  501 -0.00000000000E+00 -0.00000000000E+00 -0.40992297872E+02  0.40992297872E+02  0.00000000000E+00 0.  1.
         25    2    1    2    0    0  0.10177042374E+02  0.46835176418E+02  0.15475926439E+03  0.20468189430E+03  0.12508853664E+03 0.  0.
          5    1    3    3  502    0 -0.28324636067E+02  0.52507517873E+02  0.18036675419E+02  0.62466939270E+02  0.41800000000E+01 0.  1.
         -5    1    3    3    0  502  0.38501678441E+02 -0.56723414556E+01  0.13672258897E+03  0.14221495503E+03  0.41800000000E+01 0.  1.
        -11    1    1    2    0    0 -0.90273369974E+01 -0.30594258517E+02  0.15783432134E+03  0.16102538452E+03  0.00000000000E+00 0. -1.
         11    1    1    2    0    0 -0.11497053766E+01 -0.16240917900E+02 -0.98445100585E+01  0.19026392590E+02  0.00000000000E+00 0.  1.
</event>
<event>
 7    1  0.2490079E-009  0.1460697E+03  0.7561462E-02  0.1205387E+00
          2   -1    0    0  501    0  0.00000000000E+00  0.00000000000E+00  0.14405522788E+03  0.14405522788E+03  0.00000000000E+00 0. -1.
         -2   -1    0    0    0  501 -0.00000000000E+00 -0.00000000000E+00 -0.32803865730E+03  0.32803865730E+03  0.00000000000E+00 0.  1.
         25    2    1    2    0    0  0.43495074724E+02  0.13622428165E+03 -0.22156012790E+03  0.29186185783E+03  0.12508228228E+03 0.  0.
          5    1    3    3  502    0  0.14818373104E+02  0.79737698379E+02 -0.21280504844E+03  0.22777433079E+03  0.41800000000E+01 0. -1.
         -5    1    3    3    0  502  0.28676701620E+02  0.56486583269E+02 -0.87550794615E+01  0.64087527036E+02  0.41800000000E+01 0. -1.
        -11    1    1    2    0    0 -0.10786943186E+02 -0.90958321383E+02 -0.26385506940E+02  0.95320351178E+02  0.00000000000E+00 0.  1.
         11    1    1    2    0    0 -0.32708131538E+02 -0.45265960265E+02  0.63962205426E+02  0.84911676172E+02  0.00000000000E+00 0. -1.
</event>
<event>
 7    1  0.2490079E-009  0.1310371E+03  0.7561462E-02  0.1225925E+00
         -2   -1    0    0    0  501 -0.00000000000E+00  0.00000000000E+00  0.24535942726E+02  0.24535942726E+02  0.00000000000E+00 0.  1.
          2   -1    0    0  501    0  0.00000000000E+00 -0.00000000000E+00 -0.76015015496E+03  0.76015015496E+03  0.00000000000E+00 0. -1.
         25    2    1    2    0    0  0.75131199626E+02  0.14475650654E+02 -0.49689420863E+03  0.51807737136E+03  0.12508423773E+03 0.  0.
          5    1    3    3  502    0  0.94395590717E+02 -0.27624608167E+02 -0.29868717312E+03  0.31449188592E+03  0.41800000000E+01 0. -1.
         -5    1    3    3    0  502 -0.19264391091E+02  0.42100258821E+02 -0.19820703551E+03  0.20358548544E+03  0.41800000000E+01 0. -1.
        -11    1    1    2    0    0 -0.34445242642E+02  0.37643580235E+02 -0.12581592513E+03  0.13576877730E+03  0.00000000000E+00 0. -1.
         11    1    1    2    0    0 -0.40685956983E+02 -0.52119230889E+02 -0.11290407847E+03  0.13083994902E+03  0.00000000000E+00 0.  1.
</event>
<event>
 7    1  0.2490079E-009  0.7980622E+02  0.7561462E-02  0.1329602E+00
          1   -1    0    0  501    0  0.00000000000E+00  0.00000000000E+00  0.58889981411E+02  0.58889981411E+02  0.00000000000E+00 0. -1.
         -1   -1    0    0    0  501 -0.00000000000E+00 -0.00000000000E+00 -0.26717520826E+03  0.26717520826E+03  0.00000000000E+00 0.  1.
         25    2    1    2    0    0  0.79873283621E+01  0.59859631262E+02 -0.99923070750E+02  0.17111062405E+03  0.12508897924E+03 0.  0.
          5    1    3    3  502    0  0.19613725815E+02  0.75993673656E+02 -0.11941093417E+03  0.14295516876E+03  0.41800000000E+01 0.  1.
         -5    1    3    3    0  502 -0.11626397453E+02 -0.16134042394E+02  0.19487863423E+02  0.28155455289E+02  0.41800000000E+01 0.  1.
        -11    1    1    2    0    0 -0.65527304473E+01 -0.26242401881E+02  0.12282005422E+02  0.29706053087E+02  0.00000000000E+00 0. -1.
         11    1    1    2    0    0 -0.14345979148E+01 -0.33617229380E+02 -0.12064416152E+03  0.12524851254E+03  0.00000000000E+00 0.  1.
</event>
<event>
 7    1  0.2490079E-009  0.8493405E+02  0.7561462E-02  0.1315605E+00
          1   -1    0    0  501    0  0.00000000000E+00  0.00000000000E+00  0.52739354790E+03  0.52739354790E+03  0.00000000000E+00 0. -1.
         -1   -1    0    0    0  501 -0.00000000000E+00 -0.00000000000E+00 -0.31120691602E+02  0.31120691602E+02  0.00000000000E+00 0.  1.
         25    2    1    2    0    0  0.44330999001E+01  0.54749955909E+02  0.22750911032E+03  0.26537645345E+03  0.12508819578E+03 0.  0.
          5    1    3    3  502    0  0.33092814846E+01  0.13311557067E+02 -0.14153849434E+02  0.20148269139E+02  0.41800000000E+01 0. -1.
         -5    1    3    3    0  502  0.11238184155E+01  0.41438398841E+02  0.24166295975E+03  0.24522818431E+03  0.41800000000E+01 0. -1.
        -11    1    1    2    0    0 -0.50917548174E+02 -0.41048225367E+02  0.11981283352E+03  0.13650153331E+03  0.00000000000E+00 0.  1.
         11    1    1    2    0    0  0.46484448274E+02 -0.13701730542E+02  0.14895091246E+03  0.15663625274E+03  0.00000000000E+00 0. -1.
</event>
<event>
 7    1  0.2490079E-009  0.8613290E+02  0.7561462E-02  0.1312496E+00
          1   -1    0    0  501    0  0.00000000000E+00  0.00000000000E+00  0.52400840032E+03  0.52400840032E+03  0.00000000000E+00 0. -1.
         -1   -1    0    0    0  501 -0.00000000000E+00 -0.00000000000E+00 -0.30079205975E+02  0.30079205975E+02  0.00000000000E+00 0.  1.
         25    2    1    2    0    0  0.10066611533E+02 -0.48756918844E+01  0.13780901842E+03  0.18644942400E+03  0.12508778163E+03 0.  0.
          5    1    3    3  502    0 -0.36635804320E+02 -0.18043635089E+02  0.13098919336E+03  0.13727125010E+03  0.41800000000E+01 0.  1.
         -5    1    3    3    0  502  0.46702415854E+02  0.13167943204E+02  0.68198250548E+01  0.49178173904E+02  0.41800000000E+01 0.  1.
        -11    1    1    2    0    0 -0.12879631312E+02  0.42690967872E+02  0.26831034856E+03  0.27199052701E+03  0.00000000000E+00 0. -1.
         11    1    1    2    0    0  0.28130197789E+01 -0.37815275987E+02  0.87809827364E+02  0.95647655277E+02  0.00000000000E+00 0.  1.
</event>
<event>
 7    1  0.2490079E-009  0.7682546E+02  0.7561462E-02  0.1338310E+00
         -1   -1    0    0    0  501 -0.00000000000E+00  0.00000000000E+00  0.71056477304E+02  0.71056477304E+02  0.00000000000E+00 0.  1.
          1   -1    0    0  501    0  0.00000000000E+00 -0.00000000000E+00 -0.19151584629E+03  0.19151584629E+03  0.00000000000E+00 0. -1.
         25    2    1    2    0    0 -0.31695852361E+02  0.17946498056E+02 -0.10121870382E+03  0.16498429440E+03  0.12509151668E+03 0.  0.
          5    1    3    3  502    0 -0.61663103162E+02 -0.14999391679E+02 -0.10204900826E+03  0.12024471934E+03  0.41800000000E+01 0. -1.
         -5    1    3    3    0  502  0.29967250802E+02  0.32945889735E+02  0.83030443834E+00  0.44739575060E+02  0.41800000000E+01 0. -1.
        -11    1    1    2    0    0  0.13916491864E+02  0.62817088870E+01  0.33539865483E+02  0.36851746078E+02  0.00000000000E+00 0.  1.
         11    1    1    2    0    0  0.17779360497E+02 -0.24228206943E+02 -0.52780530646E+02  0.60736283115E+02  0.00000000000E+00 0. -1.
</event>
<event>
 7    1  0.2490079E-009  0.5513664E+02  0.7561462E-02  0.1419454E+00
          1   -1    0    0  501    0  0.00000000000E+00  0.00000000000E+00  0.33367386171E+02  0.33367386171E+02  0.00000000000E+00 0. -1.
         -1   -1    0    0    0  501 -0.00000000000E+00 -0.00000000000E+00 -0.45576031065E+03  0.45576031065E+03  0.00000000000E+00 0.  1.
         25    2    1    2    0    0 -0.23530326638E+02  0.33038044049E+02 -0.31839517737E+03  0.34448341104E+03  0.12509253727E+03 0.  0.
          5    1    3    3  502    0 -0.61974490141E+01  0.35409547813E+02 -0.32371087487E+03  0.32572756617E+03  0.41800000000E+01 0. -1.
         -5    1    3    3    0  502 -0.17332877624E+02 -0.23715037645E+01  0.53156975029E+01  0.18755844870E+02  0.41800000000E+01 0. -1.
        -11    1    1    2    0    0 -0.74215049888E+01 -0.22028209267E+02 -0.10896717883E+03  0.11141887992E+03  0.00000000000E+00 0.  1.
         11    1    1    2    0    0  0.30951831627E+02 -0.11009834782E+02  0.49694317257E+01  0.33225405862E+02  0.00000000000E+00 0. -1.
</event>
<event>
 7    1  0.2490079E-009  0.1243188E+03  0.7561462E-02  0.1236138E+00
         -1   -1    0    0    0  501 -0.00000000000E+00  0.00000000000E+00  0.31821109055E+02  0.31821109055E+02  0.00000000000E+00 0.  1.
          1   -1    0    0  501    0  0.00000000000E+00 -0.00000000000E+00 -0.65295101170E+03  0.65295101170E+03  0.00000000000E+00 0. -1.
         25    2    1    2    0    0  0.81371371064E+02 -0.23840639812E+02 -0.22569465050E+03  0.27161582951E+03  0.12508959766E+03 0.  0.
          5    1    3    3  502    0  0.64522707906E+01  0.35193323936E+02 -0.13574344076E+03  0.14044200212E+03  0.41800000000E+01 0.  1.
         -5    1    3    3    0  502  0.74919100273E+02 -0.59033963748E+02 -0.89951209735E+02  0.13117382740E+03  0.41800000000E+01 0.  1.
        -11    1    1    2    0    0 -0.28298508981E+02 -0.30206737378E+02 -0.10144624609E+03  0.10956547558E+03  0.00000000000E+00 0.  1.
         11    1    1    2    0    0 -0.53072862083E+02  0.54047377190E+02 -0.29398900605E+03  0.30359081566E+03  0.00000000000E+00 0. -1.
</event>
<event>
 7    1  0.2490079E-009  0.1359871E+03  0.7561462E-02  0.1218833E+00
         -2   -1    0    0    0  501 -0.00000000000E+00  0.00000000000E+00  0.91152789352E+02  0.91152789352E+02  0.00000000000E+00 0.  1.
          2   -1    0    0  501    0  0.00000000000E+00 -0.00000000000E+00 -0.24866849766E+03  0.24866849766E+03  0.00000000000E+00 0. -1.
         25    2    1    2    0    0  0.86570394058E+02  0.41847036169E+02 -0.13131226979E+03  0.20527012871E+03  0.12508919211E+03 0.  0.
          5    1    3    3  502    0  0.11054178623E+02  0.74447487232E+02 -0.64957198819E+02  0.99506448528E+02  0.41800000000E+01 0.  1.
         -5    1    3    3    0  502  0.75516215436E+02 -0.32600451063E+02 -0.66355070970E+02  0.10576368019E+03  0.41800000000E+01 0.  1.
        -11    1    1    2    0    0 -0.57729783166E+02 -0.57450306245E+02 -0.48598550147E+02  0.94842419984E+02  0.00000000000E+00 0. -1.
         11    1    1    2    0    0 -0.28840610892E+02  0.15603270076E+02  0.22395111628E+02  0.39708738314E+02  0.00000000000E+00 0.  1.
</event>
<event>
 7    1  0.2490079E-009  0.1125626E+03  0.7561462E-02  0.1255897E+00
          1   -1    0    0  501    0  0.00000000000E+00  0.00000000000E+00  0.11576855960E+03  0.11576855960E+03  0.00000000000E+00 0. -1.
         -1   -1    0    0    0  501 -0.00000000000E+00 -0.00000000000E+00 -0.13495959068E+03  0.13495959068E+03  0.00000000000E+00 0.  1.
         25    2    1    2    0    0  0.47459534327E+02 -0.27640728887E+02  0.15715252766E+02  0.13752019042E+03  0.12509363018E+03 0.  0.
          5    1    3    3  502    0 -0.35778864796E+02 -0.25364343188E+02 -0.17993859439E+02  0.47589163146E+02  0.41800000000E+01 0.  1.
         -5    1    3    3    0  502  0.83238399123E+02 -0.22763856990E+01  0.33709112205E+02  0.89931027271E+02  0.41800000000E+01 0.  1.
        -11    1    1    2    0    0  0.36987730745E+01  0.43868539899E+02  0.76867477808E+01  0.44690220480E+02  0.00000000000E+00 0. -1.
         11    1    1    2    0    0 -0.51158307402E+02 -0.16227811012E+02 -0.42593031626E+02  0.68517739378E+02  0.00000000000E+00 0.  1.
</event>
<event>
 7    1  0.2490079E-009  0.9542222E+02  0.7561462E-02  0.1290228E+00
         -1   -1    0    0    0  501 -0.00000000000E+00  0.00000000000E+00  0.35096141244E+03  0.35096141244E+03  0.00000000000E+00 0.  1.
          1   -1    0    0  501    0  0.00000000000E+00 -0.00000000000E+00 -0.41750132879E+02  0.41750132879E+02  0.00000000000E+00 0. -1.
         25    2    1    2    0    0 -0.47716817686E+02 -0.79708194770E+01  0.20513609663E+03  0.24508629775E+03  0.12508415789E+03 0.  0.
          5    1    3    3  502    0  0.19714040940E+02 -0.19323390844E+02 -0.92554300553E+00  0.27935029510E+02  0.41800000000E+01 0. -1.
         -5    1    3    3    0  502 -0.67430858626E+02  0.11352571367E+02  0.20606163963E+03  0.21715126824E+03  0.41800000000E+01 0. -1.
        -11    1    1    2    0    0 -0.30384330824E+00 -0.31961345154E+02  0.78562961963E+01  0.32914150372E+02  0.00000000000E+00 0. -1.
         11    1    1    2    0    0  0.48020660995E+02  0.39932164631E+02  0.96218886740E+02  0.11471109720E+03  0.00000000000E+00 0.  1.
</event>
<event>
 7    1  0.3768524E-009  0.1140085E+03  0.7561462E-02  0.1253322E+00
         -2   -1    0    0    0  501 -0.00000000000E+00  0.00000000000E+00  0.24329112496E+02  0.24329112496E+02  0.00000000000E+00 0.  1.
          2   -1    0    0  501    0  0.00000000000E+00 -0.00000000000E+00 -0.70473976304E+03  0.70473976304E+03  0.00000000000E+00 0. -1.
         25    2    1    2    0    0  0.32097277596E+02  0.65616778630E+02 -0.35901860821E+03  0.38714006834E+03  0.12508906669E+03 0.  0.
          5    1    3    3  502    0  0.63885457283E+02 -0.78751933192E+01 -0.16941195344E+03  0.18127672959E+03  0.41800000000E+01 0. -1.
         -5    1    3    3    0  502 -0.31788179686E+02  0.73491971949E+02 -0.18960665477E+03  0.20586333875E+03  0.41800000000E+01 0. -1.
        -11    1    1    2    0    0 -0.38166943307E+02 -0.33929727323E+02 -0.29732277578E+03  0.30167660657E+03  0.00000000000E+00 0. -1.
         11    1    1    2    0    0  0.60696657103E+01 -0.31687051306E+02 -0.24069266556E+02  0.40252200622E+02  0.00000000000E+00 0.  1.
</event>
<event>
 7    1  0.2490079E-009  0.2065366E+03  0.7561462E-02  0.1144338E+00
         -1   -1    0    0    0  501 -0.00000000000E+00  0.00000000000E+00  0.86815209642E+03  0.86815209642E+03  0.00000000000E+00 0.  1.
          1   -1    0    0  501    0  0.00000000000E+00 -0.00000000000E+00 -0.58444949447E+02  0.58444949447E+02  0.00000000000E+00 0. -1.
         25    2    1    2    0    0 -0.15744834664E+03 -0.11765016603E+03  0.45480533018E+03  0.51100496440E+03  0.12508653747E+03 0.  0.
          5    1    3    3  502    0 -0.12303215222E+03 -0.89262010340E+02  0.43715321170E+03  0.46284448778E+03  0.41800000000E+01 0.  1.
         -5    1    3    3    0  502 -0.34416194423E+02 -0.28388155685E+02  0.17652118485E+02  0.48160476625E+02  0.41800000000E+01 0.  1.
        -11    1    1    2    0    0  0.66911741691E+02  0.10539700201E+03  0.20100777256E+03  0.23662171042E+03  0.00000000000E+00 0.  1.
         11    1    1    2    0    0  0.90536604948E+02  0.12253164011E+02  0.15389404423E+03  0.17897037105E+03  0.00000000000E+00 0. -1.
</event>
<event>
 7    1  0.2521553E-009  0.1674980E+03  0.7561462E-02  0.1180482E+00
          2   -1    0    0  501    0  0.00000000000E+00  0.00000000000E+00  0.30015592565E+03  0.30015592565E+03  0.00000000000E+00 0. -1.
         -2   -1    0    0    0  501 -0.00000000000E+00 -0.00000000000E+00 -0.12531785634E+03  0.12531785634E+03  0.00000000000E+00 0.  1.
         25    2    1    2    0    0  0.10578255606E+03  0.11806756623E+03  0.11855287377E+03  0.23416149020E+03  0.12508765028E+03 0.  0.
          5    1    3    3  502    0  0.52060262934E+02  0.92222728554E+02  0.53111932409E+01  0.10611778273E+03  0.41800000000E+01 0.  1.
         -5    1    3    3    0  502  0.53722293123E+02  0.25844837677E+02  0.11324168053E+03  0.12804370747E+03  0.41800000000E+01 0.  1.
        -11    1    1    2    0    0  0.88455548498E+00 -0.32473999397E+02 -0.16446792777E+02  0.36412086838E+02  0.00000000000E+00 0.  1.
         11    1    1    2    0    0 -0.10666711154E+03 -0.85593566834E+02  0.72731988316E+02  0.15490020495E+03  0.00000000000E+00 0. -1.
</event>
<event>
 7    1  0.2490079E-009  0.1340258E+03  0.7561462E-02  0.1221602E+00
          1   -1    0    0  501    0  0.00000000000E+00  0.00000000000E+00  0.88470159503E+02  0.88470159503E+02  0.00000000000E+00 0. -1.
         -1   -1    0    0    0  501 -0.00000000000E+00 -0.00000000000E+00 -0.29411509831E+03  0.29411509831E+03  0.00000000000E+00 0.  1.
         25    2    1    2    0    0  0.10427771774E+03  0.40038118034E+02 -0.14291592877E+03  0.22033933590E+03  0.12509023518E+03 0.  0.
          5    1    3    3  502    0  0.10777198972E+03  0.64000015228E+02 -0.70504797629E+02  0.14387217454E+03  0.41800000000E+01 0.  1.
         -5    1    3    3    0  502 -0.34942719837E+01 -0.23961897193E+02 -0.72411131136E+02  0.76467161359E+02  0.41800000000E+01 0.  1.
        -11    1    1    2    0    0 -0.50824704696E+02  0.74664464778E+00 -0.78186083531E+02  0.93256483655E+02  0.00000000000E+00 0.  1.
         11    1    1    2    0    0 -0.53453013045E+02 -0.40784762682E+02  0.15457073488E+02  0.68989438260E+02  0.00000000000E+00 0. -1.
</event>
<event>
 7    1  0.3273465E-009  0.9575742E+02  0.7561462E-02  0.1289479E+00
         -2   -1    0    0    0  501 -0.00000000000E+00  0.00000000000E+00  0.29654494997E+02  0.29654494997E+02  0.00000000000E+00 0.  1.
          2   -1    0    0  501    0  0.00000000000E+00 -0.00000000000E+00 -0.59760788965E+03  0.59760788965E+03  0.00000000000E+00 0. -1.
         25    2    1    2    0    0 -0.27859513138E+02 -0.18561585353E+02 -0.47600135690E+03  0.49330006942E+03  0.12508789629E+03 0.  0.
          5    1    3    3  502    0 -0.59274182002E+02  0.24685114917E+02 -0.35735625509E+03  0.36310294546E+03  0.41800000000E+01 0.  1.
         -5    1    3    3    0  502  0.31414668864E+02 -0.43246700270E+02 -0.11864510181E+03  0.13019712396E+03  0.41800000000E+01 0.  1.
        -11    1    1    2    0    0 -0.21438722356E+02  0.19261378694E+01 -0.76817722680E+02  0.79776508705E+02  0.00000000000E+00 0. -1.
         11    1    1    2    0    0  0.49298235495E+02  0.16635447483E+02 -0.15134315076E+02  0.54185806524E+02  0.00000000000E+00 0.  1.
</event>
<event>
 7    1  0.2490079E-009  0.1235933E+03  0.7561462E-02  0.1237284E+00
          2   -1    0    0  501    0  0.00000000000E+00  0.00000000000E+00  0.10576371174E+04  0.10576371174E+04  0.00000000000E+00 0. -1.
         -2   -1    0    0    0  501 -0.00000000000E+00 -0.00000000000E+00 -0.20015652965E+02  0.20015652965E+02  0.00000000000E+00 0.  1.
         25    2    1    2    0    0 -0.37397492716E+02  0.57995335994E+02  0.81083811470E+03  0.82332730121E+03  0.12508942884E+03 0.  0.
          5    1    3    3  502    0 -0.72436693012E+02  0.67154712544E+02  0.45446890893E+03  0.46509815254E+03  0.41800000000E+01 0.  1.
         -5    1    3    3    0  502  0.35039200295E+02 -0.91593765498E+01  0.35636920577E+03  0.35822914867E+03  0.41800000000E+01 0.  1.
        -11    1    1    2    0    0  0.34839414280E+02  0.15637072328E+02  0.10794956049E+03  0.11450506726E+03  0.00000000000E+00 0.  1.
         11    1    1    2    0    0  0.25580784365E+01 -0.73632408323E+02  0.11883378928E+03  0.13982040192E+03  0.00000000000E+00 0. -1.
</event>
<event>
 7    1  0.2490079E-009  0.1360843E+03  0.7561462E-02  0.1218697E+00
         -2   -1    0    0    0  501 -0.00000000000E+00  0.00000000000E+00  0.57856151961E+03  0.57856151961E+03  0.00000000000E+00 0.  1.
          2   -1    0    0  501    0  0.00000000000E+00 -0.00000000000E+00 -0.40715662693E+02  0.40715662693E+02  0.00000000000E+00 0. -1.
         25    2    1    2    0    0  0.10448341280E+03 -0.29279789811E+02  0.29209816975E+03  0.33577229784E+03  0.12509038966E+03 0.  0.
          5    1    3    3  502    0  0.38212143566E+01 -0.47714907209E+02  0.16868263568E+03  0.17539275364E+03  0.41800000000E+01 0. -1.
         -5    1    3    3    0  502  0.10066219844E+03  0.18435117398E+02  0.12341553407E+03  0.16037954420E+03  0.41800000000E+01 0. -1.
        -11    1    1    2    0    0 -0.31046497230E+02 -0.16500680911E+02  0.15161632558E+03  0.15563954395E+03  0.00000000000E+00 0.  1.
         11    1    1    2    0    0 -0.73436915570E+02  0.45780470723E+02  0.94131361589E+02  0.12786534051E+03  0.00000000000E+00 0. -1.
</event>
<event>
 7    1  0.2490079E-009  0.1701417E+03  0.7561462E-02  0.1177700E+00
         -2   -1    0    0    0  501 -0.00000000000E+00  0.00000000000E+00  0.48203792040E+02  0.48203792040E+02  0.00000000000E+00 0. -1.
          2   -1    0    0  501    0  0.00000000000E+00 -0.00000000000E+00 -0.91429469601E+03  0.91429469601E+03  0.00000000000E+00 0.  1.
         25    2    1    2    0    0 -0.65925355826E+02  0.15319579589E+03 -0.59793582517E+03  0.63323786696E+03  0.12509132950E+03 0.  0.
          5    1    3    3  502    0  0.48681793843E+01  0.19748144193E+02 -0.50147910590E+01  0.21361388039E+02  0.41800000000E+01 0.  1.
         -5    1    3    3    0  502 -0.70793535211E+02  0.13344765169E+03 -0.59292103411E+03  0.61187647892E+03  0.41800000000E+01 0.  1.
        -11    1    1    2    0    0  0.52953582669E+02 -0.14091201821E+03 -0.27210103156E+03  0.31096503046E+03  0.00000000000E+00 0.  1.
         11    1    1    2    0    0  0.12971773157E+02 -0.12283777680E+02  0.39459527656E+01  0.18295590620E+02  0.00000000000E+00 0. -1.
</event>
<event>
 7    1  0.2490079E-009  0.1238256E+03  0.7561462E-02  0.1236916E+00
         -4   -1    0    0    0  501 -0.00000000000E+00  0.00000000000E+00  0.23556586819E+03  0.23556586819E+03  0.00000000000E+00 0. -1.
          4   -1    0    0  501    0  0.00000000000E+00 -0.00000000000E+00 -0.96951409645E+02  0.96951409645E+02  0.00000000000E+00 0.  1.
         25    2    1    2    0    0  0.95544676682E+02  0.43098275344E+02  0.86114337007E+02  0.18452602965E+03  0.12509168637E+03 0.  0.
          5    1    3    3  502    0  0.63255999706E+02  0.69516212355E+01 -0.20786832487E+02  0.67076160754E+02  0.41800000000E+01 0. -1.
         -5    1    3    3    0  502  0.32288676976E+02  0.36146654109E+02  0.10690116949E+03  0.11744986889E+03  0.41800000000E+01 0. -1.
        -11    1    1    2    0    0 -0.92554439781E+02 -0.65016436307E+02  0.31317746107E+02  0.11736380419E+03  0.00000000000E+00 0.  1.
         11    1    1    2    0    0 -0.29902369018E+01  0.21918160963E+02  0.21182375432E+02  0.30627443995E+02  0.00000000000E+00 0. -1.
</event>
<event>
 7    1  0.2490079E-009  0.1142293E+03  0.7561462E-02  0.1252932E+00
          1   -1    0    0  501    0  0.00000000000E+00  0.00000000000E+00  0.42992494628E+03  0.42992494628E+03  0.00000000000E+00 0. -1.
         -1   -1    0    0    0  501 -0.00000000000E+00 -0.00000000000E+00 -0.36261460429E+02  0.36261460429E+02  0.00000000000E+00 0.  1.
         25    2    1    2    0    0  0.50677648108E+02  0.12227541144E+02  0.16028878321E+03  0.20990098476E+03  0.12509273600E+03 0.  0.
          5    1    3    3  502    0  0.46262694129E+02  0.64460162380E+02  0.72455559960E+02  0.10752967019E+03  0.41800000000E+01 0.  1.
         -5    1    3    3    0  502  0.44149539791E+01 -0.52232621236E+02  0.87833223246E+02  0.10237131456E+03  0.41800000000E+01 0.  1.
        -11    1    1    2    0    0 -0.71302610339E+02  0.20557328111E+01  0.11535290594E+03  0.13562662418E+03  0.00000000000E+00 0.  1.
         11    1    1    2    0    0  0.20624962231E+02 -0.14283273956E+02  0.11802179671E+03  0.12065879777E+03  0.00000000000E+00 0. -1.
</event>
<event>
 7    1  0.2490079E-009  0.9507420E+02  0.7561462E-02  0.1291009E+00
         -1   -1    0    0    0  501 -0.00000000000E+00  0.00000000000E+00  0.44878769852E+02  0.44878769852E+02  0.00000000000E+00 0.  1.
          1   -1    0    0  501    0  0.00000000000E+00 -0.00000000000E+00 -0.27506880998E+03  0.27506880998E+03  0.00000000000E+00 0. -1.
         25    2    1    2    0    0 -0.47800390132E+01  0.66575399734E+01 -0.16874583117E+03  0.21021412119E+03  0.12509056558E+03 0.  0.
          5    1    3    3  502    0 -0.58981535174E+02 -0.22968884588E+02 -0.86946643649E+02  0.10762705233E+03  0.41800000000E+01 0.  1.
         -5    1    3    3    0  502  0.54201496161E+02  0.29626424561E+02 -0.81799187521E+02  0.10258706886E+03  0.41800000000E+01 0.  1.
        -11    1    1    2    0    0 -0.17169761997E+02  0.22502777383E+02 -0.67075733290E+02  0.72803363338E+02  0.00000000000E+00 0. -1.
         11    1    1    2    0    0  0.21949801010E+02 -0.29160317356E+02  0.56315243365E+01  0.36930095303E+02  0.00000000000E+00 0.  1.
</event>
<event>
 7    1  0.2490079E-009  0.8069938E+02  0.7561462E-02  0.1327078E+00
          2   -1    0    0  501    0  0.00000000000E+00  0.00000000000E+00  0.32642057095E+02  0.32642057095E+02  0.00000000000E+00 0. -1.
         -2   -1    0    0    0  501 -0.00000000000E+00 -0.00000000000E+00 -0.38990608249E+03  0.38990608249E+03  0.00000000000E+00 0.  1.
         25    2    1    2    0    0 -0.18986219974E+02 -0.11762939190E+02 -0.23871604708E+03  0.27042829120E+03  0.12508903334E+03 0.  0.
          5    1    3    3  502    0  0.17585820138E+02  0.30552570788E+02 -0.12930019479E+02  0.37780662453E+02  0.41800000000E+01 0. -1.
         -5    1    3    3    0  502 -0.36572040112E+02 -0.42315509978E+02 -0.22578602760E+03  0.23264762875E+03  0.41800000000E+01 0. -1.
        -11    1    1    2    0    0 -0.20073228902E+02 -0.12674556991E+02  0.12444768542E+01  0.23772413342E+02  0.00000000000E+00 0. -1.
         11    1    1    2    0    0  0.39059448876E+02  0.24437496181E+02 -0.11979245517E+03  0.12834743504E+03  0.00000000000E+00 0.  1.
</event>
<event>
 7    1  0.2490079E-009  0.1882950E+03  0.7561462E-02  0.1160008E+00
         -1   -1    0    0    0  501 -0.00000000000E+00  0.00000000000E+00  0.50162351044E+03  0.50162351044E+03  0.00000000000E+00 0.  1.
          1   -1    0    0  501    0  0.00000000000E+00 -0.00000000000E+00 -0.87396302684E+02  0.87396302684E+02  0.00000000000E+00 0. -1.
         25    2    1    2    0    0 -0.14343815052E+03 -0.64495467718E+02  0.33474383160E+03  0.39042929253E+03  0.12508969299E+03 0.  0.
          5    1    3    3  502    0 -0.57038405349E+02  0.36014142943E+02  0.97383050905E+02  0.11853830259E+03  0.41800000000E+01 0. -1.
         -5    1    3    3    0  502 -0.86399745170E+02 -0.10050961066E+03  0.23736078069E+03  0.27189098994E+03  0.41800000000E+01 0. -1.
        -11    1    1    2    0    0 -0.55888279294E+00  0.27789949044E+02  0.32442004924E+02  0.42720923460E+02  0.00000000000E+00 0.  1.
         11    1    1    2    0    0  0.14399703331E+03  0.36705518674E+02  0.47041371235E+02  0.15586959714E+03  0.00000000000E+00 0. -1.
</event>
<event>
 7    1  0.3973968E-009  0.1385715E+03  0.7561462E-02  0.1215264E+00
         -2   -1    0    0    0  501 -0.00000000000E+00  0.00000000000E+00  0.34065989469E+02  0.34065989469E+02  0.00000000000E+00 0.  1.
          2   -1    0    0  501    0  0.00000000000E+00 -0.00000000000E+00 -0.73113358816E+03  0.73113358816E+03  0.00000000000E+00 0. -1.
         25    2    1    2    0    0  0.47764581753E+00 -0.11006856399E+03 -0.44755653204E+03  0.47756692573E+03  0.12509197517E+03 0.  0.
          5    1    3    3  502    0 -0.42561927268E+02 -0.70868444177E+02 -0.12599639555E+03  0.15075283787E+03  0.41800000000E+01 0.  1.
         -5    1    3    3    0  502  0.43039573086E+02 -0.39200119811E+02 -0.32156013649E+03  0.32681408786E+03  0.41800000000E+01 0.  1.
        -11    1    1    2    0    0  0.37407149915E+02  0.77458713005E+02 -0.11133815395E+03  0.14069588342E+03  0.00000000000E+00 0. -1.
         11    1    1    2    0    0 -0.37884795733E+02  0.32609850983E+02 -0.13817291269E+03  0.14693676848E+03  0.00000000000E+00 0.  1.
</event>
<event>
 7    1  0.2490079E-009  0.1187984E+03  0.7561462E-02  0.1245093E+00
          3   -1    0    0  501    0  0.00000000000E+00  0.00000000000E+00  0.52799534018E+03  0.52799534018E+03  0.00000000000E+00 0. -1.
         -3   -1    0    0    0  501 -0.00000000000E+00 -0.00000000000E+00 -0.33146189848E+02  0.33146189848E+02  0.00000000000E+00 0.  1.
         25    2    1    2    0    0 -0.60993866417E+02 -0.45422838152E+02  0.26086454972E+03  0.29913251256E+03  0.12508581375E+03 0.  0.
          5    1    3    3  502    0  0.27591102972E+02 -0.49201158006E+02  0.11949024836E+03  0.13220217383E+03  0.41800000000E+01 0. -1.
         -5    1    3    3    0  502 -0.88584969389E+02  0.37783198540E+01  0.14137430136E+03  0.16693033872E+03  0.41800000000E+01 0. -1.
        -11    1    1    2    0    0  0.30494922421E+02  0.52724220276E+02  0.60990307125E+02  0.86195134784E+02  0.00000000000E+00 0.  1.
         11    1    1    2    0    0  0.30498943996E+02 -0.73013821244E+01  0.17299429349E+03  0.17581388269E+03  0.00000000000E+00 0. -1.
</event>
<event>
 7    1  0.2490079E-009  0.1247407E+03  0.7561462E-02  0.1235475E+00
          1   -1    0    0  501    0  0.00000000000E+00  0.00000000000E+00  0.84855084917E+03  0.84855084917E+03  0.00000000000E+00 0. -1.
         -1   -1    0    0    0  501 -0.00000000000E+00 -0.00000000000E+00 -0.29707327056E+02  0.29707327056E+02  0.00000000000E+00 0.  1.
         25    2    1    2    0    0 -0.38521284430E+02  0.10350379934E+03  0.54224681893E+03  0.56734103250E+03  0.12508920288E+03 0.  0.
          5    1    3    3  502    0 -0.68758197805E+01  0.34208846158E+02  0.21849939023E+02  0.41381327775E+02  0.41800000000E+01 0. -1.
         -5    1    3    3    0  502 -0.31645464650E+02  0.69294953181E+02  0.52039687991E+03  0.52595970472E+03  0.41800000000E+01 0. -1.
        -11    1    1    2    0    0  0.63637654498E+02 -0.87752323806E+02  0.18254877866E+03  0.21230703708E+03  0.00000000000E+00 0.  1.
         11    1    1    2    0    0 -0.25116370067E+02 -0.15751475534E+02  0.94047924526E+02  0.98610106655E+02  0.00000000000E+00 0. -1.
</event>
<event>
 7    1  0.2490079E-009  0.1130585E+03  0.7561462E-02  0.1255009E+00
         -1   -1    0    0    0  501 -0.00000000000E+00  0.00000000000E+00  0.26912957426E+02  0.26912957426E+02  0.00000000000E+00 0.  1.
          1   -1    0    0  501    0  0.00000000000E+00 -0.00000000000E+00 -0.49903895060E+03  0.49903895060E+03  0.00000000000E+00 0. -1.
         25    2    1    2    0    0 -0.11834859242E+02  0.25927211223E+02 -0.22767413593E+03  0.26133726646E+03  0.12509744400E+03 0.  0.
          5    1    3    3  502    0 -0.40131242717E+02 -0.38971348004E+02 -0.11913531344E+03  0.13168134991E+03  0.41800000000E+01 0.  1.
         -5    1    3    3    0  502  0.28296383475E+02  0.64898559226E+02 -0.10853882250E+03  0.12965591655E+03  0.41800000000E+01 0.  1.
        -11    1    1    2    0    0 -0.13623565553E+02 -0.57184801187E+02 -0.11697763306E+03  0.13091779734E+03  0.00000000000E+00 0.  1.
         11    1    1    2    0    0  0.25458424794E+02  0.31257589965E+02 -0.12747422418E+03  0.13369684421E+03  0.00000000000E+00 0. -1.
</event>
<event>
 7    1  0.2490079E-009  0.8458045E+02  0.7561462E-02  0.1316533E+00
         -2   -1    0    0    0  501 -0.00000000000E+00  0.00000000000E+00  0.24412813887E+03  0.24412813887E+03  0.00000000000E+00 0.  1.
          2   -1    0    0  501    0  0.00000000000E+00 -0.00000000000E+00 -0.69600332040E+02  0.69600332040E+02  0.00000000000E+00 0. -1.
         25    2    1    2    0    0 -0.26426195226E+02 -0.13272210667E+02  0.17497883537E+03  0.21711675384E+03  0.12509035375E+03 0.  0.
          5    1    3    3  502    0 -0.21668455606E+02 -0.59307490492E+02  0.15328540178E+03  0.16583361298E+03  0.41800000000E+01 0.  1.
         -5    1    3    3    0  502 -0.47577396200E+01  0.46035279825E+02  0.21693433587E+02  0.51283140852E+02  0.41800000000E+01 0.  1.
        -11    1    1    2    0    0 -0.67251662667E+01 -0.14616832283E+02 -0.36733700980E+02  0.40102923022E+02  0.00000000000E+00 0. -1.
         11    1    1    2    0    0  0.33151361493E+02  0.27889042950E+02  0.36282672440E+02  0.56508794049E+02  0.00000000000E+00 0.  1.
</event>
<event>
 7    1  0.2490079E-009  0.1165826E+03  0.7561462E-02  0.1248844E+00
          4   -1    0    0  501    0  0.00000000000E+00  0.00000000000E+00  0.50525341319E+02  0.50525341319E+02  0.00000000000E+00 0. -1.
         -4   -1    0    0    0  501 -0.00000000000E+00 -0.00000000000E+00 -0.36305797660E+03  0.36305797660E+03  0.00000000000E+00 0.  1.
         25    2    1    2    0    0  0.75340480777E+02 -0.46340802837E+01 -0.13012265869E+03  0.19564324042E+03  0.12508680375E+03 0.  0.
          5    1    3    3  502    0  0.32071056990E+02  0.58811409434E+02 -0.77134093970E+02  0.10224712920E+03  0.41800000000E+01 0. -1.
         -5    1    3    3    0  502  0.43269423787E+02 -0.63445489718E+02 -0.52988564723E+02  0.93396111224E+02  0.41800000000E+01 0. -1.
        -11    1    1    2    0    0 -0.24130457851E+02 -0.20892710395E+02 -0.14749518911E+03  0.15090929446E+03  0.00000000000E+00 0.  1.
         11    1    1    2    0    0 -0.51210022926E+02  0.25526790678E+02 -0.34914787480E+02  0.67030783041E+02  0.00000000000E+00 0. -1.
</event>
<event>
 7    1  0.2490079E-009  0.1284406E+03  0.7561462E-02  0.1229788E+00
          1   -1    0    0  501    0  0.00000000000E+00  0.00000000000E+00  0.45519860491E+03  0.45519860491E+03  0.00000000000E+00 0. -1.
         -1   -1    0    0    0  501 -0.00000000000E+00 -0.00000000000E+00 -0.51963742255E+02  0.51963742255E+02  0.00000000000E+00 0.  1.
         25    2    1    2    0    0  0.47456781850E+02  0.97276777893E+02  0.20855858624E+03  0.26619318771E+03  0.12508881496E+03 0.  0.
          5    1    3    3  502    0  0.77803751620E+02  0.51539388052E+02  0.68906678201E+02  0.11608331055E+03  0.41800000000E+01 0.  1.
         -5    1    3    3    0  502 -0.30346969769E+02  0.45737389841E+02  0.13965190803E+03  0.15010987716E+03  0.41800000000E+01 0.  1.
        -11    1    1    2    0    0 -0.35126300428E+02 -0.65427363545E+02  0.43670466809E+02  0.86149327063E+02  0.00000000000E+00 0.  1.
         11    1    1    2    0    0 -0.12330481423E+02 -0.31849414348E+02  0.15100580961E+03  0.15481983240E+03  0.00000000000E+00 0. -1.
</event>
<event>
 7    1  0.2490079E-009  0.1284477E+03  0.7561462E-02  0.1229777E+00
          4   -1    0    0  501    0  0.00000000000E+00  0.00000000000E+00  0.68293177295E+02  0.68293177295E+02  0.00000000000E+00 0. -1.
         -4   -1    0    0    0  501 -0.00000000000E+00 -0.00000000000E+00 -0.25409167517E+03  0.25409167517E+03  0.00000000000E+00 0.  1.
         25    2    1    2    0    0 -0.36320336851E+02  0.61483922252E+02 -0.13198125710E+03  0.19536766921E+03  0.12510009745E+03 0.  0.
          5    1    3    3  502    0  0.45686529913E+02  0.34082674948E+02 -0.59017336329E+02  0.82154769396E+02  0.41800000000E+01 0.  1.
         -5    1    3    3    0  502 -0.82006866764E+02  0.27401247304E+02 -0.72963920767E+02  0.11321289981E+03  0.41800000000E+01 0.  1.
        -11    1    1    2    0    0  0.41890937453E+02  0.86910702328E+01 -0.94743264269E+01  0.43819495704E+02  0.00000000000E+00 0. -1.
         11    1    1    2    0    0 -0.55706006018E+01 -0.70174992485E+02 -0.44342914356E+02  0.83197687558E+02  0.00000000000E+00 0.  1.
</event>
<event>
 7    1  0.2490079E-009  0.1305478E+03  0.7561462E-02  0.1226645E+00
          1   -1    0    0  501    0  0.00000000000E+00  0.00000000000E+00  0.13539762772E+03  0.13539762772E+03  0.00000000000E+00 0. -1.
         -1   -1    0    0    0  501 -0.00000000000E+00 -0.00000000000E+00 -0.25258277866E+03  0.25258277866E+03  0.00000000000E+00 0.  1.
         25    2    1    2    0    0  0.23992186846E+02  0.96894325157E+02 -0.15326480877E+03  0.22159031278E+03  0.12509208542E+03 0.  0.
          5    1    3    3  502    0 -0.40895184811E+02  0.32631163310E+02 -0.10689056753E+03  0.11908095896E+03  0.41800000000E+01 0. -1.
         -5    1    3    3    0  502  0.64887371656E+02  0.64263161847E+02 -0.46374241243E+02  0.10250935383E+03  0.41800000000E+01 0. -1.
        -11    1    1    2    0    0  0.11476194490E+02  0.24237320915E+01  0.57577428451E+02  0.58760001568E+02  0.00000000000E+00 0. -1.
         11    1    1    2    0    0 -0.35468381336E+02 -0.99318057248E+02 -0.21497770619E+02  0.10763009204E+03  0.00000000000E+00 0.  1.
</event>
<event>
 7    1  0.2490079E-009  0.9704061E+02  0.7561462E-02  0.1286645E+00
          1   -1    0    0  501    0  0.00000000000E+00  0.00000000000E+00  0.12416271042E+03  0.12416271042E+03  0.00000000000E+00 0. -1.
         -1   -1    0    0    0  501 -0.00000000000E+00 -0.00000000000E+00 -0.13394431910E+03  0.13394431910E+03  0.00000000000E+00 0.  1.
         25    2    1    2    0    0 -0.22206753971E+02  0.55689641653E+02  0.29705377310E+02  0.14186766784E+03  0.12509815997E+03 0.  0.
          5    1    3    3  502    0  0.42768746162E+02  0.53946957306E+02 -0.28957784286E+01  0.69031136334E+02  0.41800000000E+01 0. -1.
         -5    1    3    3    0  502 -0.64975500132E+02  0.17426843473E+01  0.32601155738E+02  0.72836531505E+02  0.41800000000E+01 0. -1.
        -11    1    1    2    0    0  0.16510436211E+02 -0.43313741931E+02 -0.69350126012E+02  0.83415314672E+02  0.00000000000E+00 0.  1.
         11    1    1    2    0    0  0.56963177599E+01 -0.12375899723E+02  0.29863140027E+02  0.32824047012E+02  0.00000000000E+00 0. -1.
</event>
<event>
 7    1  0.2490079E-009  0.7872891E+02  0.7561462E-02  0.1332698E+00
          1   -1    0    0  501    0  0.00000000000E+00  0.00000000000E+00  0.35644712641E+02  0.35644712641E+02  0.00000000000E+00 0. -1.
         -1   -1    0    0    0  501 -0.00000000000E+00 -0.00000000000E+00 -0.35746455169E+03  0.35746455169E+03  0.00000000000E+00 0.  1.
         25    2    1    2    0    0  0.19072506755E+02 -0.18426767963E+02 -0.19039590460E+03  0.22934904201E+03  0.12508827399E+03 0.  0.
          5    1    3    3  502    0  0.89301758505E+01  0.19202391424E+02 -0.18889539816E+03  0.19012475831E+03  0.41800000000E+01 0.  1.
         -5    1    3    3    0  502  0.10142330905E+02 -0.37629159388E+02 -0.15005064455E+01  0.39224283703E+02  0.41800000000E+01 0.  1.
        -11    1    1    2    0    0  0.37070999151E+02  0.16289753335E+02 -0.43603462148E+02  0.59505268280E+02  0.00000000000E+00 0.  1.
         11    1    1    2    0    0 -0.56143505907E+02  0.21370146286E+01 -0.87820472294E+02  0.10425495404E+03  0.00000000000E+00 0. -1.
</event>
<event>
 7    1  0.2490079E-009  0.1374778E+03  0.7561462E-02  0.1216764E+00
          1   -1    0    0  501    0  0.00000000000E+00  0.00000000000E+00  0.17375046956E+03  0.17375046956E+03  0.00000000000E+00 0. -1.
         -1   -1    0    0    0  501 -0.00000000000E+00 -0.00000000000E+00 -0.17855425519E+03  0.17855425519E+03  0.00000000000E+00 0.  1.
         25    2    1    2    0    0  0.67444719524E+02  0.58555727899E+02 -0.10805588802E+03  0.18789440209E+03  0.12510262963E+03 0.  0.
          5    1    3    3  502    0  0.92023504754E+02  0.80724664217E+01 -0.89292529619E+02  0.12854617220E+03  0.41800000000E+01 0. -1.
         -5    1    3    3    0  502 -0.24578785230E+02  0.50483261477E+02 -0.18763358404E+02  0.59348229892E+02  0.41800000000E+01 0. -1.
        -11    1    1    2    0    0  0.10737127557E+02 -0.45704943139E+02  0.25615742621E+02  0.53482651445E+02  0.00000000000E+00 0. -1.
         11    1    1    2    0    0 -0.78181847081E+02 -0.12850784759E+02  0.77636359774E+02  0.11092767121E+03  0.00000000000E+00 0.  1.
</event>
<event>
 7    1  0.2490079E-009  0.1965078E+03  0.7561462E-02  0.1152719E+00
          2   -1    0    0  501    0  0.00000000000E+00  0.00000000000E+00  0.26729010066E+03  0.26729010066E+03  0.00000000000E+00 0. -1.
         -2   -1    0    0    0  501 -0.00000000000E+00 -0.00000000000E+00 -0.18170543298E+03  0.18170543298E+03  0.00000000000E+00 0.  1.
         25    2    1    2    0    0  0.40332343944E+02 -0.18691132482E+03  0.70873518222E+02  0.23923539916E+03  0.12509188347E+03 0.  0.
          5    1    3    3  502    0  0.48995030075E+02 -0.16272321511E+03  0.10232302613E+03  0.19841076529E+03  0.41800000000E+01 0.  1.
         -5    1    3    3    0  502 -0.86626861317E+01 -0.24188109712E+02 -0.31449507910E+02  0.40824633865E+02  0.41800000000E+01 0.  1.
        -11    1    1    2    0    0 -0.51025827308E+02  0.14408348001E+03 -0.19258015100E+02  0.15406023306E+03  0.00000000000E+00 0.  1.
         11    1    1    2    0    0  0.10693483364E+02  0.42827844806E+02  0.33969164557E+02  0.55699901417E+02  0.00000000000E+00 0. -1.
</event>
<event>
 7    1  0.2490079E-009  0.1158590E+03  0.7561462E-02  0.1250089E+00
          1   -1    0    0  501    0  0.00000000000E+00  0.00000000000E+00  0.44547547116E+03  0.44547547116E+03  0.00000000000E+00 0. -1.
         -1   -1    0    0    0  501 -0.00000000000E+00 -0.00000000000E+00 -0.38649388184E+02  0.38649388184E+02  0.00000000000E+00 0.  1.
         25    2    1    2    0    0 -0.47480002510E+02 -0.42489943999E+02  0.29036009927E+03  0.32251542069E+03  0.12508982116E+03 0.  0.
          5    1    3    3  502    0  0.23439989195E+02 -0.42415100962E+02  0.42229684767E+02  0.64415002590E+02  0.41800000000E+01 0.  1.
         -5    1    3    3    0  502 -0.70919991705E+02 -0.74843036657E-01  0.24813041450E+03  0.25810041810E+03  0.41800000000E+01 0.  1.
        -11    1    1    2    0    0 -0.29173205687E+01  0.58945796631E+02  0.62292391528E+02  0.85810603902E+02  0.00000000000E+00 0.  1.
         11    1    1    2    0    0  0.50397323078E+02 -0.16455852633E+02  0.54173592174E+02  0.75798834743E+02  0.00000000000E+00 0. -1.
</event>
<event>
 7    1  0.2490079E-009  0.1289479E+03  0.7561462E-02  0.1229025E+00
          2   -1    0    0  501    0  0.00000000000E+00  0.00000000000E+00  0.13112196961E+04  0.13112196961E+04  0.00000000000E+00 0. -1.
         -2   -1    0    0    0  501 -0.00000000000E+00 -0.00000000000E+00 -0.25891381424E+02  0.25891381424E+02  0.00000000000E+00 0.  1.
         25    2    1    2    0    0  0.76300024170E+02 -0.66952573463E+02  0.10652226100E+04  0.10773348810E+04  0.12508755352E+03 0.  0.
          5    1    3    3  502    0  0.10179864379E+03 -0.27092553199E+02  0.55640095838E+03  0.56630068798E+03  0.41800000000E+01 0. -1.
         -5    1    3    3    0  502 -0.25498619615E+02 -0.39860020264E+02  0.50882165166E+03  0.51103419300E+03  0.41800000000E+01 0. -1.
        -11    1    1    2    0    0 -0.16051197779E+02  0.16777833205E+01 -0.57084766537E+01  0.17118487454E+02  0.00000000000E+00 0.  1.
         11    1    1    2    0    0 -0.60248826391E+02  0.65274790142E+02  0.22581418125E+03  0.24265770905E+03  0.00000000000E+00 0. -1.
</event>
<event>
 7    1  0.2490079E-009  0.1296992E+03  0.7561462E-02  0.1227903E+00
         -1   -1    0    0    0  501 -0.00000000000E+00  0.00000000000E+00  0.65807150623E+02  0.65807150623E+02  0.00000000000E+00 0.  1.
          1   -1    0    0  501    0  0.00000000000E+00 -0.00000000000E+00 -0.32850928645E+03  0.32850928645E+03  0.00000000000E+00 0. -1.
         25    2    1    2    0    0  0.21425661505E+02  0.91922214772E+02 -0.17346421777E+03  0.23376472915E+03  0.12508941286E+03 0.  0.
          5    1    3    3  502    0  0.53404644928E+02  0.89150782094E+02 -0.17244126333E+03  0.20137869735E+03  0.41800000000E+01 0. -1.
         -5    1    3    3    0  502 -0.31978983424E+02  0.27714326781E+01 -0.10229544378E+01  0.32386031799E+02  0.41800000000E+01 0. -1.
        -11    1    1    2    0    0  0.27777576138E+02 -0.14623274229E+02 -0.53837423699E+02  0.62320960164E+02  0.00000000000E+00 0. -1.
         11    1    1    2    0    0 -0.49203237642E+02 -0.77298940544E+02 -0.35400494356E+02  0.98230747754E+02  0.00000000000E+00 0.  1.
</event>
<event>
 7    1  0.2490079E-009  0.1132428E+03  0.7561462E-02  0.1254680E+00
         -2   -1    0    0    0  501 -0.00000000000E+00  0.00000000000E+00  0.86249902984E+01  0.86249902984E+01  0.00000000000E+00 0.  1.
          2   -1    0    0  501    0  0.00000000000E+00 -0.00000000000E+00 -0.21058830537E+04  0.21058830537E+04  0.00000000000E+00 0. -1.
         25    2    1    2    0    0 -0.55464757714E+02  0.13429112987E+02 -0.15934857527E+04  0.15994062600E+04  0.12508740957E+03 0.  0.
          5    1    3    3  502    0 -0.52820359837E+02 -0.40269412885E+02 -0.47715516300E+03  0.48177394907E+03  0.41800000000E+01 0. -1.
         -5    1    3    3    0  502 -0.26443978775E+01  0.53698525873E+02 -0.11163305897E+04  0.11176323109E+04  0.41800000000E+01 0. -1.
        -11    1    1    2    0    0  0.32446051058E+02  0.37817792554E+02 -0.27902642904E+03  0.28344078705E+03  0.00000000000E+00 0. -1.
         11    1    1    2    0    0  0.23018706656E+02 -0.51246905542E+02 -0.22474588171E+03  0.23166099699E+03  0.00000000000E+00 0.  1.
</event>
<event>
 7    1  0.2490079E-009  0.3331488E+03  0.7561462E-02  0.1069752E+00
         -2   -1    0    0    0  501 -0.00000000000E+00  0.00000000000E+00  0.25139413071E+03  0.25139413071E+03  0.00000000000E+00 0.  1.
          2   -1    0    0  501    0  0.00000000000E+00 -0.00000000000E+00 -0.46420901067E+03  0.46420901067E+03  0.00000000000E+00 0. -1.
         25    2    1    2    0    0  0.10915977287E+03 -0.30117641019E+03 -0.62184001183E+02  0.34948364419E+03  0.12509548947E+03 0.  0.
          5    1    3    3  502    0  0.27317855622E+02 -0.20235537923E+03  0.55957574380E+01  0.20431042470E+03  0.41800000000E+01 0. -1.
         -5    1    3    3    0  502  0.81841917249E+02 -0.98821030960E+02 -0.67779758621E+02  0.14517321949E+03  0.41800000000E+01 0. -1.
        -11    1    1    2    0    0 -0.10028031436E+03  0.13970691571E+03 -0.79204327461E+02  0.18933433190E+03  0.00000000000E+00 0. -1.
         11    1    1    2    0    0 -0.88794585099E+01  0.16146949448E+03 -0.71426551317E+02  0.17678516529E+03  0.00000000000E+00 0.  1.
</event>
<event>
 7    1  0.2490079E-009  0.8273715E+02  0.7561462E-02  0.1321458E+00
         -2   -1    0    0    0  501 -0.00000000000E+00  0.00000000000E+00  0.26324294843E+02  0.26324294843E+02  0.00000000000E+00 0.  1.
          2   -1    0    0  501    0  0.00000000000E+00 -0.00000000000E+00 -0.69678138563E+03  0.69678138563E+03  0.00000000000E+00 0. -1.
         25    2    1    2    0    0 -0.47814739941E+01 -0.27785390262E+02 -0.47439387733E+03  0.49141980156E+03  0.12509588366E+03 0.  0.
          5    1    3    3  502    0 -0.18997815821E+02 -0.47031169988E+02 -0.71336113514E+02  0.87630824757E+02  0.41800000000E+01 0.  1.
         -5    1    3    3    0  502  0.14216341827E+02  0.19245779726E+02 -0.40305776382E+03  0.40378897680E+03  0.41800000000E+01 0.  1.
        -11    1    1    2    0    0  0.35558300003E+02 -0.14151846918E+02 -0.11543581747E+02  0.39974013432E+02  0.00000000000E+00 0.  1.
         11    1    1    2    0    0 -0.30776826009E+02  0.41937237180E+02 -0.18451963171E+03  0.19171186549E+03  0.00000000000E+00 0. -1.
</event>
<event>
 7    1  0.2490079E-009  0.1091908E+03  0.7561462E-02  0.1262076E+00
          1   -1    0    0  501    0  0.00000000000E+00  0.00000000000E+00  0.12841021114E+03  0.12841021114E+03  0.00000000000E+00 0. -1.
         -1   -1    0    0    0  501 -0.00000000000E+00 -0.00000000000E+00 -0.11748329109E+03  0.11748329109E+03  0.00000000000E+00 0.  1.
         25    2    1    2    0    0 -0.52455942171E+02  0.27282760420E+02  0.53964275756E+02  0.14851214836E+03  0.12509092799E+03 0.  0.
          5    1    3    3  502    0 -0.68708919153E+02 -0.30902311678E+02  0.43385641005E+02  0.87038236906E+02  0.41800000000E+01 0. -1.
         -5    1    3    3    0  502  0.16252976982E+02  0.58185072098E+02  0.10578634751E+02  0.61473911451E+02  0.41800000000E+01 0. -1.
        -11    1    1    2    0    0  0.39396075687E+02  0.11830908504E+02 -0.37707192925E+02  0.55801913711E+02  0.00000000000E+00 0.  1.
         11    1    1    2    0    0  0.13059866484E+02 -0.39113668924E+02 -0.53301627826E+01  0.41579440166E+02  0.00000000000E+00 0. -1.
</event>
<event>
 7    1  0.2490079E-009  0.1104101E+03  0.7561462E-02  0.1259812E+00
          1   -1    0    0  501    0  0.00000000000E+00  0.00000000000E+00  0.27735014734E+03  0.27735014734E+03  0.00000000000E+00 0. -1.
         -1   -1    0    0    0  501 -0.00000000000E+00 -0.00000000000E+00 -0.97295094329E+02  0.97295094329E+02  0.00000000000E+00 0.  1.
         25    2    1    2    0    0 -0.53752261734E+02  0.57490378173E+02 -0.94206391969E+01  0.14809022391E+03  0.12509003458E+03 0.  0.
          5    1    3    3  502    0 -0.70951599121E+02  0.48266550613E+02  0.40016190644E+02  0.94776353800E+02  0.41800000000E+01 0. -1.
         -5    1    3    3    0  502  0.17199337387E+02  0.92238275605E+01 -0.49436829841E+02  0.53313870110E+02  0.41800000000E+01 0. -1.
        -11    1    1    2    0    0  0.21988209233E+02 -0.75359242992E+02  0.84053101344E+02  0.11501052428E+03  0.00000000000E+00 0.  1.
         11    1    1    2    0    0  0.31764052501E+02  0.17868864818E+02  0.10542259087E+03  0.11154449348E+03  0.00000000000E+00 0. -1.
</event>
<event>
 7    1  0.2490079E-009  0.1190596E+03  0.7561462E-02  0.1244656E+00
         -2   -1    0    0    0  501 -0.00000000000E+00  0.00000000000E+00  0.31125110573E+02  0.31125110573E+02  0.00000000000E+00 0.  1.
          2   -1    0    0  501    0  0.00000000000E+00 -0.00000000000E+00 -0.57383674479E+03  0.57383674479E+03  0.00000000000E+00 0. -1.
         25    2    1    2    0    0  0.60963198983E+02  0.16103220959E+02 -0.40112042475E+03  0.42487699260E+03  0.12508812226E+03 0.  0.
          5    1    3    3  502    0  0.49774214660E+02 -0.47116666803E+02 -0.27308445391E+03  0.28158487903E+03  0.41800000000E+01 0.  1.
         -5    1    3    3    0  502  0.11188984323E+02  0.63219887762E+02 -0.12803597085E+03  0.14329211356E+03  0.41800000000E+01 0.  1.
        -11    1    1    2    0    0 -0.64248708103E+02  0.21209134150E+02 -0.60510358359E+02  0.90770189672E+02  0.00000000000E+00 0. -1.
         11    1    1    2    0    0  0.32855091195E+01 -0.37312355109E+02 -0.81080851104E+02  0.89314673093E+02  0.00000000000E+00 0.  1.
</event>
<event>
 7    1  0.2490079E-009  0.1542879E+03  0.7561462E-02  0.1195301E+00
         -3   -1    0    0    0  501 -0.00000000000E+00  0.00000000000E+00  0.86577265356E+02  0.86577265356E+02  0.00000000000E+00 0.  1.
          3   -1    0    0  501    0  0.00000000000E+00 -0.00000000000E+00 -0.33117939774E+03  0.33117939774E+03  0.00000000000E+00 0. -1.
         25    2    1    2    0    0 -0.10199720639E+03 -0.83385321968E+02 -0.15574648421E+03  0.23929234405E+03  0.12508923432E+03 0.  0.
          5    1    3    3  502    0  0.32157739144E+00 -0.72044260525E+02 -0.96308721601E+02  0.12034667068E+03  0.41800000000E+01 0.  1.
         -5    1    3    3    0  502 -0.10231878378E+03 -0.11341061444E+02 -0.59437762611E+02  0.11894567337E+03  0.41800000000E+01 0.  1.
        -11    1    1    2    0    0  0.59332227761E+02  0.61399654575E+02 -0.97601309414E+02  0.12967747080E+03  0.00000000000E+00 0. -1.
         11    1    1    2    0    0  0.42664978630E+02  0.21985667394E+02  0.87456612387E+01  0.48786848256E+02  0.00000000000E+00 0.  1.
</event>
<event>
 7    1  0.2490079E-009  0.1624430E+03  0.7561462E-02  0.1185966E+00
         -2   -1    0    0    0  501 -0.00000000000E+00  0.00000000000E+00  0.78797952171E+02  0.78797952171E+02  0.00000000000E+00 0.  1.
          2   -1    0    0  501    0  0.00000000000E+00 -0.00000000000E+00 -0.36159810611E+03  0.36159810611E+03  0.00000000000E+00 0. -1.
         25    2    1    2    0    0  0.27591625343E+02  0.12586993214E+03 -0.14239318842E+03  0.22918723328E+03  0.12508569137E+03 0.  0.
          5    1    3    3  502    0 -0.26714308530E+02 -0.13302413932E+02 -0.23727098890E+02  0.38354349406E+02  0.41800000000E+01 0.  1.
         -5    1    3    3    0  502  0.54305933873E+02  0.13917234607E+03 -0.11866608953E+03  0.19083288388E+03  0.41800000000E+01 0.  1.
        -11    1    1    2    0    0  0.16942267237E+02 -0.69442124348E+01 -0.55514937738E+02  0.58456572065E+02  0.00000000000E+00 0. -1.
         11    1    1    2    0    0 -0.44533892580E+02 -0.11892571970E+03 -0.84892027775E+02  0.15275225293E+03  0.00000000000E+00 0.  1.
</event>
<event>
 7    1  0.2490079E-009  0.8711103E+02  0.7561462E-02  0.1310002E+00
         -2   -1    0    0    0  501 -0.00000000000E+00  0.00000000000E+00  0.90571638342E+02  0.90571638342E+02  0.00000000000E+00 0.  1.
          2   -1    0    0  501    0  0.00000000000E+00 -0.00000000000E+00 -0.15748493457E+03  0.15748493457E+03  0.00000000000E+00 0. -1.
         25    2    1    2    0    0  0.21211425803E+02  0.33530416602E+02 -0.67991950337E+02  0.14779914282E+03  0.12508983926E+03 0.  0.
          5    1    3    3  502    0  0.52500692306E+02  0.78161736686E+01  0.15035649744E+02  0.55325929062E+02  0.41800000000E+01 0.  1.
         -5    1    3    3    0  502 -0.31289266503E+02  0.25714242933E+02 -0.83027600081E+02  0.92473213760E+02  0.41800000000E+01 0.  1.
        -11    1    1    2    0    0 -0.30247502758E+02  0.12957031348E+02 -0.29245003775E+02  0.44023474763E+02  0.00000000000E+00 0. -1.
         11    1    1    2    0    0  0.90360769554E+01 -0.46487447950E+02  0.30323657887E+02  0.56233955323E+02  0.00000000000E+00 0.  1.
</event>
<event>
 7    1  0.2490079E-009  0.1994728E+03  0.7561462E-02  0.1150185E+00
          1   -1    0    0  501    0  0.00000000000E+00  0.00000000000E+00  0.40266906090E+03  0.40266906090E+03  0.00000000000E+00 0. -1.
         -1   -1    0    0    0  501 -0.00000000000E+00 -0.00000000000E+00 -0.17569179079E+03  0.17569179079E+03  0.00000000000E+00 0.  1.
         25    2    1    2    0    0 -0.14553579345E+03 -0.10368259154E+03  0.29624157342E+03  0.36788216238E+03  0.12508984216E+03 0.  0.
          5    1    3    3  502    0 -0.14876205259E+03 -0.11498264141E+03  0.21481893407E+03  0.28550972479E+03  0.41800000000E+01 0. -1.
         -5    1    3    3    0  502  0.32262591335E+01  0.11300049879E+02  0.81422639352E+02  0.82372437589E+02  0.41800000000E+01 0. -1.
        -11    1    1    2    0    0  0.71320002960E+02  0.10163639773E+03 -0.49342816905E+02  0.13360843441E+03  0.00000000000E+00 0. -1.
         11    1    1    2    0    0  0.74215790495E+02  0.20461938038E+01 -0.19921486407E+02  0.76870254901E+02  0.00000000000E+00 0.  1.
</event>
<event>
 7    1  0.2490079E-009  0.1226920E+03  0.7561462E-02  0.1238721E+00
          2   -1    0    0  501    0  0.00000000000E+00  0.00000000000E+00  0.34831258203E+03  0.34831258203E+03  0.00000000000E+00 0. -1.
         -2   -1    0    0    0  501 -0.00000000000E+00 -0.00000000000E+00 -0.57961859626E+02  0.57961859626E+02  0.00000000000E+00 0.  1.
         25    2    1    2    0    0  0.76684764775E+02 -0.19503738429E+02  0.97803824590E+02  0.17741172866E+03  0.12509350264E+03 0.  0.
          5    1    3    3  502    0  0.34996762376E+02  0.47319210885E+02  0.74768674285E+02  0.95245515117E+02  0.41800000000E+01 0.  1.
         -5    1    3    3    0  502  0.41688002399E+02 -0.66822949314E+02  0.23035150304E+02  0.82166213547E+02  0.41800000000E+01 0.  1.
        -11    1    1    2    0    0 -0.26321493488E+02  0.44179677786E+02  0.14969418808E+03  0.15828144204E+03  0.00000000000E+00 0. -1.
         11    1    1    2    0    0 -0.50363271288E+02 -0.24675939357E+02  0.42852709736E+02  0.70581270955E+02  0.00000000000E+00 0.  1.
</event>
<event>
 7    1  0.2490079E-009  0.1264575E+03  0.7561462E-02  0.1232809E+00
          2   -1    0    0  501    0  0.00000000000E+00  0.00000000000E+00  0.81389244593E+03  0.81389244593E+03  0.00000000000E+00 0. -1.
         -2   -1    0    0    0  501 -0.00000000000E+00 -0.00000000000E+00 -0.24131142023E+02  0.24131142023E+02  0.00000000000E+00 0.  1.
         25    2    1    2    0    0 -0.25612707671E+02  0.76973632707E+02  0.31903923802E+03  0.35215250072E+03  0.12507756568E+03 0.  0.
          5    1    3    3  502    0 -0.17475869042E+02  0.10843412262E+03  0.19483459587E+03  0.22369925591E+03  0.41800000000E+01 0. -1.
         -5    1    3    3    0  502 -0.81368386294E+01 -0.31460489915E+02  0.12420464216E+03  0.12845324481E+03  0.41800000000E+01 0. -1.
        -11    1    1    2    0    0 -0.23810839250E+02 -0.46318052923E+02  0.12700439991E+03  0.13726775182E+03  0.00000000000E+00 0.  1.
         11    1    1    2    0    0  0.49423546921E+02 -0.30655579784E+02  0.34371766598E+03  0.34860333542E+03  0.00000000000E+00 0. -1.
</event>
<event>
 7    1  0.2490079E-009  0.8348412E+02  0.7561462E-02  0.1319445E+00
         -2   -1    0    0    0  501 -0.00000000000E+00  0.00000000000E+00  0.39610601687E+02  0.39610601687E+02  0.00000000000E+00 0.  1.
          2   -1    0    0  501    0  0.00000000000E+00 -0.00000000000E+00 -0.34458748685E+03  0.34458748685E+03  0.00000000000E+00 0. -1.
         25    2    1    2    0    0  0.54356692893E+01 -0.44460454159E+02 -0.16749242783E+03  0.21379412542E+03  0.12509171115E+03 0.  0.
          5    1    3    3  502    0 -0.47943361738E+01 -0.54752309539E+02 -0.10542872225E+02  0.56119743531E+02  0.41800000000E+01 0.  1.
         -5    1    3    3    0  502  0.10230005463E+02  0.10291855381E+02 -0.15694955561E+03  0.15767438189E+03  0.41800000000E+01 0.  1.
        -11    1    1    2    0    0  0.31550632036E+02  0.50225955074E+02 -0.10610612011E+03  0.12155902957E+03  0.00000000000E+00 0.  1.
         11    1    1    2    0    0 -0.36986301325E+02 -0.57655009152E+01 -0.31378337222E+02  0.48844933548E+02  0.00000000000E+00 0. -1.
</event>
<event>
 7    1  0.2490079E-009  0.1002916E+03  0.7561462E-02  0.1279684E+00
         -4   -1    0    0    0  501 -0.00000000000E+00  0.00000000000E+00  0.15278646795E+02  0.15278646795E+02  0.00000000000E+00 0.  1.
          4   -1    0    0  501    0  0.00000000000E+00 -0.00000000000E+00 -0.84224608271E+03  0.84224608271E+03  0.00000000000E+00 0. -1.
         25    2    1    2    0    0  0.30314028069E+02  0.11391893171E+02 -0.53116836163E+03  0.54665923695E+03  0.12509107651E+03 0.  0.
          5    1    3    3  502    0  0.16209922330E+02 -0.45949325250E+02 -0.98626794387E+02  0.11008550787E+03  0.41800000000E+01 0. -1.
         -5    1    3    3    0  502  0.14104105738E+02  0.57341218421E+02 -0.43254156724E+03  0.43657372908E+03  0.41800000000E+01 0. -1.
        -11    1    1    2    0    0  0.24300520978E+02  0.18204426349E+02 -0.63211843241E+02  0.70125983661E+02  0.00000000000E+00 0. -1.
         11    1    1    2    0    0 -0.54614549046E+02 -0.29596319521E+02 -0.23258723104E+03  0.24073950889E+03  0.00000000000E+00 0.  1.
</event>
<event>
 7    1  0.2490079E-009  0.9737599E+02  0.7561462E-02  0.1285913E+00
         -1   -1    0    0    0  501 -0.00000000000E+00  0.00000000000E+00  0.15035534275E+02  0.15035534275E+02  0.00000000000E+00 0.  1.
          1   -1    0    0  501    0  0.00000000000E+00 -0.00000000000E+00 -0.90021126862E+03  0.90021126862E+03  0.00000000000E+00 0. -1.
         25    2    1    2    0    0 -0.48930385130E+01 -0.56222433132E-01 -0.66608395295E+03  0.67774733801E+03  0.12509866830E+03 0.  0.
          5    1    3    3  502    0  0.17095993015E+02 -0.52133814197E+02 -0.17612000162E+03  0.18451540567E+03  0.41800000000E+01 0. -1.
         -5    1    3    3    0  502 -0.21989031528E+02  0.52077591764E+02 -0.48996395133E+03  0.49323193234E+03  0.41800000000E+01 0. -1.
        -11    1    1    2    0    0 -0.27485117424E+02 -0.28700883640E+02 -0.55415082158E+02  0.68190935850E+02  0.00000000000E+00 0.  1.
         11    1    1    2    0    0  0.32378155937E+02  0.28757106073E+02 -0.16367669924E+03  0.16930852904E+03  0.00000000000E+00 0. -1.
</event>
<event>
 7    1  0.2490079E-009  0.1202690E+03  0.7561462E-02  0.1242654E+00
          1   -1    0    0  501    0  0.00000000000E+00  0.00000000000E+00  0.71754253581E+02  0.71754253581E+02  0.00000000000E+00 0. -1.
         -1   -1    0    0    0  501 -0.00000000000E+00 -0.00000000000E+00 -0.27785645963E+03  0.27785645963E+03  0.00000000000E+00 0.  1.
         25    2    1    2    0    0  0.85460292572E+01  0.83133782194E+02 -0.15526998251E+03  0.21619990060E+03  0.12509743879E+03 0.  0.
          5    1    3    3  502    0  0.39659900378E+02  0.12137928249E+02  0.10146641797E+01  0.41698188733E+02  0.41800000000E+01 0. -1.
         -5    1    3    3    0  502 -0.31113871121E+02  0.70995853945E+02 -0.15628464669E+03  0.17450171186E+03  0.41800000000E+01 0. -1.
        -11    1    1    2    0    0  0.38354911176E+02 -0.22148275190E+02 -0.30686449632E+02  0.53882311534E+02  0.00000000000E+00 0.  1.
         11    1    1    2    0    0 -0.46900940433E+02 -0.60985507004E+02 -0.20145773913E+02  0.79528501083E+02  0.00000000000E+00 0. -1.
</event>
<event>
 7    1  0.2490079E-009  0.8460139E+02  0.7561462E-02  0.1316478E+00
         -2   -1    0    0    0  501 -0.00000000000E+00  0.00000000000E+00  0.97603545244E+02  0.97603545244E+02  0.00000000000E+00 0.  1.
          2   -1    0    0  501    0  0.00000000000E+00 -0.00000000000E+00 -0.15331396805E+03  0.15331396805E+03  0.00000000000E+00 0. -1.
         25    2    1    2    0    0 -0.21816918533E+01  0.91738964502E+01 -0.91077645821E+02  0.15501468632E+03  0.12508195414E+03 0.  0.
          5    1    3    3  502    0  0.37891982927E+02 -0.40415374193E+02 -0.19053798408E+02  0.58734355152E+02  0.41800000000E+01 0.  1.
         -5    1    3    3    0  502 -0.40073674780E+02  0.49589270643E+02 -0.72023847412E+02  0.96280331166E+02  0.41800000000E+01 0.  1.
        -11    1    1    2    0    0  0.16736744467E+02  0.14377773791E+02 -0.22648450622E+02  0.31619476753E+02  0.00000000000E+00 0. -1.
         11    1    1    2    0    0 -0.14555052614E+02 -0.23551670241E+02  0.58015673640E+02  0.64283350221E+02  0.00000000000E+00 0.  1.
</event>
<event>
 7    1  0.2490079E-009  0.9367973E+02  0.7561462E-02  0.1294178E+00
          2   -1    0    0  501    0  0.00000000000E+00  0.00000000000E+00  0.50986355415E+03  0.50986355415E+03  0.00000000000E+00 0. -1.
         -2   -1    0    0    0  501 -0.00000000000E+00 -0.00000000000E+00 -0.30551014096E+02  0.30551014096E+02  0.00000000000E+00 0.  1.
         25    2    1    2    0    0  0.51247556729E+02  0.21627332076E+02  0.27815707224E+03  0.31001932508E+03  0.12508625633E+03 0.  0.
          5    1    3    3  502    0  0.21389776605E+02  0.57045403760E+02  0.24601685773E+03  0.25348267657E+03  0.41800000000E+01 0. -1.
         -5    1    3    3    0  502  0.29857780123E+02 -0.35418071685E+02  0.32140214506E+02  0.56536648506E+02  0.41800000000E+01 0. -1.
        -11    1    1    2    0    0 -0.50674833380E+02  0.69921451719E+01  0.35455329915E+02  0.62240736271E+02  0.00000000000E+00 0.  1.
         11    1    1    2    0    0 -0.57272334857E+00 -0.28619477248E+02  0.16570013790E+03  0.16815450690E+03  0.00000000000E+00 0. -1.
</event>
<event>
 7    1  0.2490079E-009  0.2032029E+03  0.7561462E-02  0.1147065E+00
         -2   -1    0    0    0  501 -0.00000000000E+00  0.00000000000E+00  0.25149808116E+02  0.25149808116E+02  0.00000000000E+00 0.  1.
          2   -1    0    0  501    0  0.00000000000E+00 -0.00000000000E+00 -0.18110256064E+04  0.18110256064E+04  0.00000000000E+00 0. -1.
         25    2    1    2    0    0  0.52624771666E+02 -0.16414277198E+03 -0.11953007651E+04  0.12141280911E+04  0.12510350302E+03 0.  0.
          5    1    3    3  502    0  0.58359787204E+01 -0.16545486644E+03 -0.89970731986E+03  0.91482244468E+03  0.41800000000E+01 0.  1.
         -5    1    3    3    0  502  0.46788792945E+02  0.13120944589E+01 -0.29559344521E+03  0.29930564643E+03  0.41800000000E+01 0.  1.
        -11    1    1    2    0    0 -0.32896881669E+01  0.13786610383E+03 -0.45379910451E+03  0.47429053531E+03  0.00000000000E+00 0. -1.
         11    1    1    2    0    0 -0.49335083499E+02  0.26276668147E+02 -0.13677592868E+03  0.14775678807E+03  0.00000000000E+00 0.  1.
</event>
<event>
 7    1  0.2490079E-009  0.2494621E+03  0.7561462E-02  0.1113645E+00
          1   -1    0    0  501    0  0.00000000000E+00  0.00000000000E+00  0.17251678552E+04  0.17251678552E+04  0.00000000000E+00 0. -1.
         -1   -1    0    0    0  501 -0.00000000000E+00 -0.00000000000E+00 -0.38585343964E+02  0.38585343964E+02  0.00000000000E+00 0.  1.
         25    2    1    2    0    0  0.45352816148E+02 -0.22393934742E+03  0.69729348252E+03  0.74435986051E+03  0.12509073472E+03 0.  0.
          5    1    3    3  502    0  0.27969670226E+02 -0.23677836199E+03  0.64052539162E+03  0.68347388017E+03  0.41800000000E+01 0.  1.
         -5    1    3    3    0  502  0.17383145922E+02  0.12839014575E+02  0.56768090898E+02  0.60885980337E+02  0.41800000000E+01 0.  1.
        -11    1    1    2    0    0 -0.47254244879E+02  0.69743511558E+02  0.23877859851E+03  0.25320414722E+03  0.00000000000E+00 0.  1.
         11    1    1    2    0    0  0.19014287314E+01  0.15419583586E+03  0.75051043021E+03  0.76618919144E+03  0.00000000000E+00 0. -1.
</event>
<event>
 7    1  0.2490079E-009  0.2366075E+03  0.7561462E-02  0.1122074E+00
         -2   -1    0    0    0  501 -0.00000000000E+00  0.00000000000E+00  0.93254286536E+02  0.93254286536E+02  0.00000000000E+00 0.  1.
          2   -1    0    0  501    0  0.00000000000E+00 -0.00000000000E+00 -0.78032194259E+03  0.78032194259E+03  0.00000000000E+00 0. -1.
         25    2    1    2    0    0  0.88629058668E+02 -0.21364012886E+03 -0.21709852241E+03  0.34099155533E+03  0.12508500178E+03 0.  0.
          5    1    3    3  502    0  0.64488353266E+02 -0.15289312415E+03 -0.21979898930E+03  0.27543442634E+03  0.41800000000E+01 0. -1.
         -5    1    3    3    0  502  0.24140705402E+02 -0.60747004718E+02  0.27004668861E+01  0.65557128986E+02  0.41800000000E+01 0. -1.
        -11    1    1    2    0    0 -0.10075199205E+03  0.19496351685E+03 -0.37019107198E+03  0.43035237489E+03  0.00000000000E+00 0.  1.
         11    1    1    2    0    0  0.12122933379E+02  0.18676612016E+02 -0.99778061670E+02  0.10223229891E+03  0.00000000000E+00 0. -1.
</event>
<event>
 7    1  0.2490079E-009  0.1165435E+03  0.7561462E-02  0.1248911E+00
         -2   -1    0    0    0  501 -0.00000000000E+00  0.00000000000E+00  0.78987213776E+02  0.78987213776E+02  0.00000000000E+00 0. -1.
          2   -1    0    0  501    0  0.00000000000E+00 -0.00000000000E+00 -0.25791876893E+03  0.25791876893E+03  0.00000000000E+00 0.  1.
         25    2    1    2    0    0 -0.23496743920E+02  0.74651161234E+02 -0.16053390281E+03  0.21804059894E+03  0.12508267660E+03 0.  0.
          5    1    3    3  502    0  0.45796837008E+02  0.60849699391E+02 -0.92186885644E+02  0.11964919758E+03  0.41800000000E+01 0.  1.
         -5    1    3    3    0  502 -0.69293580928E+02  0.13801461842E+02 -0.68347017163E+02  0.98391401361E+02  0.41800000000E+01 0.  1.
        -11    1    1    2    0    0  0.15632074854E+02 -0.57012959037E+01 -0.42309900641E+02  0.45464208247E+02  0.00000000000E+00 0.  1.
         11    1    1    2    0    0  0.78646690655E+01 -0.68949865330E+02  0.23912248299E+02  0.73401175517E+02  0.00000000000E+00 0. -1.
</event>
<event>
 7    1  0.2490079E-009  0.1792502E+03  0.7561462E-02  0.1168531E+00
          2   -1    0    0  501    0  0.00000000000E+00  0.00000000000E+00  0.11075949454E+04  0.11075949454E+04  0.00000000000E+00 0. -1.
         -2   -1    0    0    0  501 -0.00000000000E+00 -0.00000000000E+00 -0.71931609214E+02  0.71931609214E+02  0.00000000000E+00 0.  1.
         25    2    1    2    0    0  0.50127783171E+02  0.15085387553E+03  0.96219668282E+03  0.98322949662E+03  0.12509236661E+03 0.  0.
          5    1    3    3  502    0  0.55012262849E+02  0.46540947634E+02  0.17766713880E+03  0.19176937576E+03  0.41800000000E+01 0. -1.
         -5    1    3    3    0  502 -0.48844796778E+01  0.10431292790E+03  0.78452954402E+03  0.79146012086E+03  0.41800000000E+01 0. -1.
        -11    1    1    2    0    0 -0.75471476913E+02 -0.10341630270E+03  0.56109188308E+02  0.13978238982E+03  0.00000000000E+00 0.  1.
         11    1    1    2    0    0  0.25343693741E+02 -0.47437572831E+02  0.17357465101E+02  0.56514668214E+02  0.00000000000E+00 0. -1.
</event>
<event>
 7    1  0.2490079E-009  0.1103265E+03  0.7561462E-02  0.1259966E+00
         -3   -1    0    0    0  501 -0.00000000000E+00  0.00000000000E+00  0.14770865390E+03  0.14770865390E+03  0.00000000000E+00 0.  1.
          3   -1    0    0  501    0  0.00000000000E+00 -0.00000000000E+00 -0.10045724342E+03  0.10045724342E+03  0.00000000000E+00 0. -1.
         25    2    1    2    0    0  0.47045457076E+02  0.25089731142E+02  0.29070767330E+02  0.13905013766E+03  0.12508821539E+03 0.  0.
          5    1    3    3  502    0  0.24018805810E+02  0.63851191008E+02 -0.21040709855E+02  0.71512666689E+02  0.41800000000E+01 0.  1.
         -5    1    3    3    0  502  0.23026651267E+02 -0.38761459867E+02  0.50111477185E+02  0.67537470971E+02  0.41800000000E+01 0.  1.
        -11    1    1    2    0    0  0.99577667950E+01  0.27637778433E+02  0.50099412230E-01  0.29376971019E+02  0.00000000000E+00 0.  1.
         11    1    1    2    0    0 -0.57003223871E+02 -0.52727509575E+02  0.18130543737E+02  0.79738788641E+02  0.00000000000E+00 0. -1.
</event>
<event>
 7    1  0.2490079E-009  0.1666499E+03  0.7561462E-02  0.1181387E+00
         -2   -1    0    0    0  501 -0.00000000000E+00  0.00000000000E+00  0.32157409972E+02  0.32157409972E+02  0.00000000000E+00 0.  1.
          2   -1    0    0  501    0  0.00000000000E+00 -0.00000000000E+00 -0.12474929960E+04  0.12474929960E+04  0.00000000000E+00 0. -1.
         25    2    1    2    0    0  0.95529707248E+02  0.13010683770E+03 -0.79447923665E+03  0.82030343593E+03  0.12508699114E+03 0.  0.
          5    1    3    3  502    0  0.34575873379E+01 -0.11635259644E+01 -0.30829026342E+03  0.30834018166E+03  0.41800000000E+01 0. -1.
         -5    1    3    3    0  502  0.92072119910E+02  0.13127036366E+03 -0.48618897322E+03  0.51196325427E+03  0.41800000000E+01 0. -1.
        -11    1    1    2    0    0 -0.97841353032E+02 -0.11040766031E+03 -0.41201928445E+03  0.43763303414E+03  0.00000000000E+00 0. -1.
         11    1    1    2    0    0  0.23116457843E+01 -0.19699177390E+02 -0.88370649504E+01  0.21713935917E+02  0.00000000000E+00 0.  1.
</event>
<event>
 7    1  0.2490079E-009  0.2915675E+03  0.7561462E-02  0.1089534E+00
          2   -1    0    0  501    0  0.00000000000E+00  0.00000000000E+00  0.10713209707E+04  0.10713209707E+04  0.00000000000E+00 0. -1.
         -2   -1    0    0    0  501 -0.00000000000E+00 -0.00000000000E+00 -0.99924181689E+02  0.99924181689E+02  0.00000000000E+00 0.  1.
         25    2    1    2    0    0  0.28632691715E+03  0.45466672828E+02  0.30430378332E+03  0.43851896992E+03  0.12509105728E+03 0.  0.
          5    1    3    3  502    0  0.19900953442E+02  0.32399118541E+01  0.94609838051E+02  0.96824784186E+02  0.41800000000E+01 0. -1.
         -5    1    3    3    0  502  0.26642596371E+03  0.42226760974E+02  0.20969394527E+03  0.34169418573E+03  0.41800000000E+01 0. -1.
        -11    1    1    2    0    0 -0.98624421743E+02  0.38051560739E+01  0.14209457452E+03  0.17300902833E+03  0.00000000000E+00 0.  1.
         11    1    1    2    0    0 -0.18770249540E+03 -0.49271828902E+02  0.52499843115E+03  0.55971715412E+03  0.00000000000E+00 0. -1.
</event>
<event>
 7    1  0.2490079E-009  0.1325189E+03  0.7561462E-02  0.1223765E+00
         -2   -1    0    0    0  501 -0.00000000000E+00  0.00000000000E+00  0.35454689632E+02  0.35454689632E+02  0.00000000000E+00 0.  1.
          2   -1    0    0  501    0  0.00000000000E+00 -0.00000000000E+00 -0.65365548653E+03  0.65365548653E+03  0.00000000000E+00 0. -1.
         25    2    1    2    0    0 -0.14346891743E+02 -0.10044187113E+03 -0.41691341218E+03  0.44694370107E+03  0.12508987124E+03 0.  0.
          5    1    3    3  502    0  0.60646972476E+01 -0.12459518056E+03 -0.36761593747E+03  0.38822633792E+03  0.41800000000E+01 0.  1.
         -5    1    3    3    0  502 -0.20411588991E+02  0.24153309438E+02 -0.49297474713E+02  0.58717363148E+02  0.41800000000E+01 0.  1.
        -11    1    1    2    0    0  0.27042385988E+02  0.57388168480E+02 -0.18302316062E+03  0.19370640114E+03  0.00000000000E+00 0. -1.
         11    1    1    2    0    0 -0.12695494244E+02  0.43053702645E+02 -0.18264224100E+02  0.48460073953E+02  0.00000000000E+00 0.  1.
</event>
<event>
 7    1  0.2490079E-009  0.1595595E+03  0.7561462E-02  0.1189195E+00
          1   -1    0    0  501    0  0.00000000000E+00  0.00000000000E+00  0.26411793913E+03  0.26411793913E+03  0.00000000000E+00 0. -1.
         -1   -1    0    0    0  501 -0.00000000000E+00 -0.00000000000E+00 -0.16281212937E+03  0.16281212937E+03  0.00000000000E+00 0.  1.
         25    2    1    2    0    0  0.46086687268E+02 -0.12733434726E+03 -0.63231411677E+02  0.19489353156E+03  0.12508900226E+03 0.  0.
          5    1    3    3  502    0  0.81283500327E+02 -0.42990030977E+02 -0.22557915436E+02  0.94770681846E+02  0.41800000000E+01 0. -1.
         -5    1    3    3    0  502 -0.35196813059E+02 -0.84344316285E+02 -0.40673496241E+02  0.10012284972E+03  0.41800000000E+01 0. -1.
        -11    1    1    2    0    0 -0.36736592739E+02  0.92843044857E+02  0.16872591962E+03  0.19605571702E+03  0.00000000000E+00 0. -1.
         11    1    1    2    0    0 -0.93500945294E+01  0.34491302405E+02 -0.41886981855E+01  0.35980819915E+02  0.00000000000E+00 0.  1.
</event>
<event>
 7    1  0.2490079E-009  0.1104642E+03  0.7561462E-02  0.1259713E+00
         -2   -1    0    0    0  501 -0.00000000000E+00  0.00000000000E+00  0.28477154111E+02  0.28477154111E+02  0.00000000000E+00 0.  1.
          2   -1    0    0  501    0  0.00000000000E+00 -0.00000000000E+00 -0.45110184479E+03  0.45110184479E+03  0.00000000000E+00 0. -1.
         25    2    1    2    0    0  0.10748055755E+02 -0.26116555848E+02 -0.27354737011E+03  0.30211637728E+03  0.12509415070E+03 0.  0.
          5    1    3    3  502    0  0.55658711437E+02  0.21084487236E+02 -0.16489865446E+03  0.17536101734E+03  0.41800000000E+01 0.  1.
         -5    1    3    3    0  502 -0.44910655682E+02 -0.47201043085E+02 -0.10864871565E+03  0.12675535994E+03  0.41800000000E+01 0.  1.
        -11    1    1    2    0    0  0.14445929833E+02  0.55454628324E+02 -0.82067566658E+02  0.10009488593E+03  0.00000000000E+00 0.  1.
         11    1    1    2    0    0 -0.25193985589E+02 -0.29338072476E+02 -0.67009753918E+02  0.77367735695E+02  0.00000000000E+00 0. -1.
</event>
<event>
 7    1  0.2490079E-009  0.1425900E+03  0.7561462E-02  0.1209886E+00
         -1   -1    0    0    0  501 -0.00000000000E+00  0.00000000000E+00  0.12620105422E+02  0.12620105422E+02  0.00000000000E+00 0.  1.
          1   -1    0    0  501    0  0.00000000000E+00 -0.00000000000E+00 -0.18916300824E+04  0.18916300824E+04  0.00000000000E+00 0. -1.
         25    2    1    2    0    0 -0.52712959636E+01 -0.10321270179E+03 -0.12422058340E+04  0.12527583408E+04  0.12508987944E+03 0.  0.
          5    1    3    3  502    0  0.49746809795E+02 -0.56125549271E+02 -0.37038303652E+03  0.37792312513E+03  0.41800000000E+01 0. -1.
         -5    1    3    3    0  502 -0.55018105758E+02 -0.47087152515E+02 -0.87182279753E+03  0.87483521567E+03  0.41800000000E+01 0. -1.
        -11    1    1    2    0    0 -0.39223345751E+02  0.22122102799E+02 -0.21496778893E+03  0.21963380560E+03  0.00000000000E+00 0.  1.
         11    1    1    2    0    0  0.44494641714E+02  0.81090598987E+02 -0.42183635404E+03  0.43185804147E+03  0.00000000000E+00 0. -1.
</event>
<event>
 7    1  0.2490079E-009  0.1023003E+03  0.7561462E-02  0.1275532E+00
         -2   -1    0    0    0  501 -0.00000000000E+00  0.00000000000E+00  0.13353748037E+03  0.13353748037E+03  0.00000000000E+00 0.  1.
          2   -1    0    0  501    0  0.00000000000E+00 -0.00000000000E+00 -0.13013663195E+03  0.13013663195E+03  0.00000000000E+00 0. -1.
         25    2    1    2    0    0 -0.56859134780E+02  0.18128901625E+02  0.43439977707E+02  0.14524581112E+03  0.12509074987E+03 0.  0.
          5    1    3    3  502    0  0.37447890521E+02  0.11573922249E+02 -0.35808534524E+01  0.39580236130E+02  0.41800000000E+01 0. -1.
         -5    1    3    3    0  502 -0.94307025301E+02  0.65549793753E+01  0.47020831159E+02  0.10566557499E+03  0.41800000000E+01 0. -1.
        -11    1    1    2    0    0  0.32145537597E+02 -0.29244279058E+02  0.23462310938E+02  0.49386673096E+02  0.00000000000E+00 0.  1.
         11    1    1    2    0    0  0.24713597183E+02  0.11115377433E+02 -0.63501440219E+02  0.69041628103E+02  0.00000000000E+00 0. -1.
</event>
<event>
 7    1  0.2490079E-009  0.1259959E+03  0.7561462E-02  0.1233521E+00
          1   -1    0    0  501    0  0.00000000000E+00  0.00000000000E+00  0.12392825410E+03  0.12392825410E+03  0.00000000000E+00 0. -1.
         -1   -1    0    0    0  501 -0.00000000000E+00 -0.00000000000E+00 -0.16853699955E+03  0.16853699955E+03  0.00000000000E+00 0.  1.
         25    2    1    2    0    0 -0.64511323264E+02  0.29459435229E+02  0.43189720277E+02  0.15014191058E+03  0.12509065601E+03 0.  0.
          5    1    3    3  502    0 -0.95805020805E+01  0.72345202634E+02  0.13770991343E+02  0.74382302780E+02  0.41800000000E+01 0. -1.
         -5    1    3    3    0  502 -0.54930821183E+02 -0.42885767405E+02  0.29418728934E+02  0.75759607799E+02  0.41800000000E+01 0. -1.
        -11    1    1    2    0    0  0.26757532944E+02  0.29020230120E+02 -0.16814509460E+02  0.42905326637E+02  0.00000000000E+00 0. -1.
         11    1    1    2    0    0  0.37753790320E+02 -0.58479665348E+02 -0.70983956269E+02  0.99418016427E+02  0.00000000000E+00 0.  1.
</event>
<event>
 7    1  0.2490079E-009  0.2234664E+03  0.7561462E-02  0.1131325E+00
          1   -1    0    0  501    0  0.00000000000E+00  0.00000000000E+00  0.34044062280E+03  0.34044062280E+03  0.00000000000E+00 0. -1.
         -1   -1    0    0    0  501 -0.00000000000E+00 -0.00000000000E+00 -0.15950426571E+03  0.15950426571E+03  0.00000000000E+00 0.  1.
         25    2    1    2    0    0 -0.20547660879E+03 -0.97081237698E+00  0.83497950714E+02  0.25463856399E+03  0.12508921321E+03 0.  0.
          5    1    3    3  502    0 -0.68995508899E+02  0.54600028641E+02  0.56827195954E+02  0.10482531171E+03  0.41800000000E+01 0.  1.
         -5    1    3    3    0  502 -0.13648109989E+03 -0.55570841018E+02  0.26670754760E+02  0.14981325228E+03  0.41800000000E+01 0.  1.
        -11    1    1    2    0    0  0.15936241448E+03 -0.20288652991E+02  0.10782086738E+03  0.19347699613E+03  0.00000000000E+00 0. -1.
         11    1    1    2    0    0  0.46114194311E+02  0.21259465368E+02 -0.10382461004E+02  0.51829328388E+02  0.00000000000E+00 0.  1.
</event>
<event>
 7    1  0.2490079E-009  0.6347910E+02  0.7561462E-02  0.1383786E+00
          2   -1    0    0  501    0  0.00000000000E+00  0.00000000000E+00  0.19095838847E+03  0.19095838847E+03  0.00000000000E+00 0. -1.
         -2   -1    0    0    0  501 -0.00000000000E+00 -0.00000000000E+00 -0.70047207197E+02  0.70047207197E+02  0.00000000000E+00 0.  1.
         25    2    1    2    0    0 -0.28848889779E+02  0.25583186800E+02  0.83978869048E+02  0.15552137802E+03  0.12509072982E+03 0.  0.
          5    1    3    3  502    0 -0.16951530667E+02  0.34160292619E+02 -0.24798180388E+02  0.45680434919E+02  0.41800000000E+01 0. -1.
         -5    1    3    3    0  502 -0.11897359112E+02 -0.85771058195E+01  0.10877704944E+03  0.10984094310E+03  0.41800000000E+01 0. -1.
        -11    1    1    2    0    0 -0.12457805854E+02  0.12146758897E+02  0.45660137547E+02  0.48862959787E+02  0.00000000000E+00 0. -1.
         11    1    1    2    0    0  0.41306695633E+02 -0.37729945697E+02 -0.87278253234E+01  0.56621257856E+02  0.00000000000E+00 0.  1.
</event>
<event>
 7    1  0.2490079E-009  0.1159177E+03  0.7561462E-02  0.1249988E+00
         -4   -1    0    0    0  501 -0.00000000000E+00  0.00000000000E+00  0.52322178479E+03  0.52322178479E+03  0.00000000000E+00 0.  1.
          4   -1    0    0  501    0  0.00000000000E+00 -0.00000000000E+00 -0.42902152631E+02  0.42902152631E+02  0.00000000000E+00 0. -1.
         25    2    1    2    0    0 -0.10308224423E+02  0.75567360485E+02  0.39014625675E+03  0.41674756242E+03  0.12509094156E+03 0.  0.
          5    1    3    3  502    0 -0.30827699827E+02  0.10547746534E+03  0.28948727570E+03  0.30967111258E+03  0.41800000000E+01 0.  1.
         -5    1    3    3    0  502  0.20519475404E+02 -0.29910104859E+02  0.10065898105E+03  0.10707644984E+03  0.41800000000E+01 0.  1.
        -11    1    1    2    0    0  0.22402414143E+02 -0.66686780458E+02  0.10622252466E+03  0.12740572826E+03  0.00000000000E+00 0.  1.
         11    1    1    2    0    0 -0.12094189720E+02 -0.88805800272E+01 -0.16049149257E+02  0.21970646747E+02  0.00000000000E+00 0. -1.
</event>
<event>
 7    1  0.2490079E-009  0.2104020E+03  0.7561462E-02  0.1141248E+00
          3   -1    0    0  501    0  0.00000000000E+00  0.00000000000E+00  0.17160196574E+03  0.17160196574E+03  0.00000000000E+00 0. -1.
         -3   -1    0    0    0  501 -0.00000000000E+00 -0.00000000000E+00 -0.29990594985E+03  0.29990594985E+03  0.00000000000E+00 0.  1.
         25    2    1    2    0    0  0.16574285236E+03  0.10318097684E+03 -0.26954729272E+02  0.23343193290E+03  0.12508758042E+03 0.  0.
          5    1    3    3  502    0  0.61977055852E+02 -0.84844910668E+01 -0.48712808292E+02  0.79394912510E+02  0.41800000000E+01 0. -1.
         -5    1    3    3    0  502  0.10376579651E+03  0.11166546790E+03  0.21758079019E+02  0.15403702039E+03  0.41800000000E+01 0. -1.
        -11    1    1    2    0    0 -0.51482591858E+02 -0.69509100703E+02 -0.82484471036E+01  0.86890789066E+02  0.00000000000E+00 0. -1.
         11    1    1    2    0    0 -0.11426026050E+03 -0.33671876135E+02 -0.93100807738E+02  0.15118519363E+03  0.00000000000E+00 0.  1.
</event>
<event>
 7    1  0.2490079E-009  0.1172869E+03  0.7561462E-02  0.1247641E+00
          3   -1    0    0  501    0  0.00000000000E+00  0.00000000000E+00  0.98360340157E+02  0.98360340157E+02  0.00000000000E+00 0. -1.
         -3   -1    0    0    0  501 -0.00000000000E+00 -0.00000000000E+00 -0.15255259082E+03  0.15255259082E+03  0.00000000000E+00 0.  1.
         25    2    1    2    0    0 -0.57150916939E+02 -0.62168125508E+01 -0.30604158284E+02  0.14102511334E+03  0.12508633827E+03 0.  0.
          5    1    3    3  502    0 -0.84604465859E+02 -0.39400135355E+02 -0.28625995470E+02  0.97709806703E+02  0.41800000000E+01 0.  1.
         -5    1    3    3    0  502  0.27453548920E+02  0.33183322804E+02 -0.19781628139E+01  0.43315306634E+02  0.41800000000E+01 0.  1.
        -11    1    1    2    0    0 -0.17991224786E+02  0.13347048653E+02 -0.26063412550E+02  0.34367562480E+02  0.00000000000E+00 0.  1.
         11    1    1    2    0    0  0.75142141725E+02 -0.71302361026E+01  0.24753201684E+01  0.75520255162E+02  0.00000000000E+00 0. -1.
</event>
<event>
 7    1  0.2490079E-009  0.1181560E+03  0.7561462E-02  0.1246170E+00
         -2   -1    0    0    0  501 -0.00000000000E+00  0.00000000000E+00  0.33230038444E+02  0.33230038444E+02  0.00000000000E+00 0.  1.
          2   -1    0    0  501    0  0.00000000000E+00 -0.00000000000E+00 -0.49277101093E+03  0.49277101093E+03  0.00000000000E+00 0. -1.
         25    2    1    2    0    0  0.18202590275E+02  0.44761596719E+02 -0.15730289089E+03  0.20670784649E+03  0.12509596109E+03 0.  0.
          5    1    3    3  502    0 -0.38456837197E+02  0.63434536309E+02 -0.86615516241E+02  0.11411655786E+03  0.41800000000E+01 0. -1.
         -5    1    3    3    0  502  0.56659427472E+02 -0.18672939590E+02 -0.70687374653E+02  0.92591288627E+02  0.41800000000E+01 0. -1.
        -11    1    1    2    0    0 -0.14789408283E+02  0.26776988543E+02 -0.10895103670E+03  0.11316387282E+03  0.00000000000E+00 0.  1.
         11    1    1    2    0    0 -0.34131819920E+01 -0.71538585262E+02 -0.19328704489E+03  0.20612933007E+03  0.00000000000E+00 0. -1.
</event>
<event>
 7    1  0.2490079E-009  0.1666558E+03  0.7561462E-02  0.1181381E+00
         -1   -1    0    0    0  501 -0.00000000000E+00  0.00000000000E+00  0.87723465797E+02  0.87723465797E+02  0.00000000000E+00 0.  1.
          1   -1    0    0  501    0  0.00000000000E+00 -0.00000000000E+00 -0.44136551040E+03  0.44136551040E+03  0.00000000000E+00 0. -1.
         25    2    1    2    0    0 -0.14645594311E+02  0.13856703072E+03 -0.30023875994E+03  0.35384520270E+03  0.12509116304E+03 0.  0.
          5    1    3    3  502    0 -0.50210348929E+02  0.50451456664E+02 -0.52703922502E+02  0.88665689340E+02  0.41800000000E+01 0.  1.
         -5    1    3    3    0  502  0.35564754619E+02  0.88115574053E+02 -0.24753483743E+03  0.26517951336E+03  0.41800000000E+01 0.  1.
        -11    1    1    2    0    0  0.24179762195E+02  0.35680682949E+01 -0.70666923762E+01  0.25442683670E+02  0.00000000000E+00 0. -1.
         11    1    1    2    0    0 -0.95341678845E+01 -0.14213509901E+03 -0.46336592290E+02  0.14980108983E+03  0.00000000000E+00 0.  1.
</event>
<event>
 7    1  0.2490079E-009  0.1274617E+03  0.7561462E-02  0.1231271E+00
          3   -1    0    0  501    0  0.00000000000E+00  0.00000000000E+00  0.55663574940E+02  0.55663574940E+02  0.00000000000E+00 0. -1.
         -3   -1    0    0    0  501 -0.00000000000E+00 -0.00000000000E+00 -0.38275734708E+03  0.38275734708E+03  0.00000000000E+00 0.  1.
         25    2    1    2    0    0  0.77082760550E+01 -0.94608570254E+02 -0.14661555864E+03  0.21483109223E+03  0.12508427985E+03 0.  0.
          5    1    3    3  502    0  0.34547134881E+02 -0.10647278432E+03 -0.68545603908E+02  0.13132376230E+03  0.41800000000E+01 0. -1.
         -5    1    3    3    0  502 -0.26838858826E+02  0.11864214070E+02 -0.78069954736E+02  0.83507329924E+02  0.41800000000E+01 0. -1.
        -11    1    1    2    0    0 -0.34371168041E+02  0.64226750831E+02 -0.53633342036E+02  0.90459870068E+02  0.00000000000E+00 0. -1.
         11    1    1    2    0    0  0.26662891986E+02  0.30381819423E+02 -0.12684487146E+03  0.13312995973E+03  0.00000000000E+00 0.  1.
</event>
<event>
 7    1  0.2490079E-009  0.1460150E+03  0.7561462E-02  0.1205457E+00
         -2   -1    0    0    0  501 -0.00000000000E+00  0.00000000000E+00  0.11258682673E+02  0.11258682673E+02  0.00000000000E+00 0.  1.
          2   -1    0    0  501    0  0.00000000000E+00 -0.00000000000E+00 -0.27391897502E+04  0.27391897502E+04  0.00000000000E+00 0. -1.
         25    2    1    2    0    0 -0.21541523688E+02 -0.10897019269E+03 -0.21033734732E+04  0.21100159939E+04  0.12509590937E+03 0.  0.
          5    1    3    3  502    0  0.17353387029E+02  0.22539841667E+02 -0.47675701201E+03  0.47762318349E+03  0.41800000000E+01 0. -1.
         -5    1    3    3    0  502 -0.38894910717E+02 -0.13151003436E+03 -0.16266164612E+04  0.16323928104E+04  0.41800000000E+01 0. -1.
        -11    1    1    2    0    0  0.15017944798E+02 -0.17874204861E+01 -0.16692854368E+02  0.22525206434E+02  0.00000000000E+00 0. -1.
         11    1    1    2    0    0  0.65235788901E+01  0.11075761318E+03 -0.60786473995E+03  0.61790723255E+03  0.00000000000E+00 0.  1.
</event>
<event>
 7    1  0.2490079E-009  0.1849358E+03  0.7561462E-02  0.1163110E+00
         -2   -1    0    0    0  501 -0.00000000000E+00  0.00000000000E+00  0.11198544748E+04  0.11198544748E+04  0.00000000000E+00 0.  1.
          2   -1    0    0  501    0  0.00000000000E+00 -0.00000000000E+00 -0.38194605142E+02  0.38194605142E+02  0.00000000000E+00 0. -1.
         25    2    1    2    0    0  0.13777888979E+03  0.10831265457E+03  0.58828458827E+03  0.62645071986E+03  0.12508834476E+03 0.  0.
          5    1    3    3  502    0  0.49407934475E+02  0.33356251176E+02  0.40625224571E+03  0.41062408968E+03  0.41800000000E+01 0.  1.
         -5    1    3    3    0  502  0.88370955318E+02  0.74956403396E+02  0.18203234257E+03  0.21582663018E+03  0.41800000000E+01 0.  1.
        -11    1    1    2    0    0 -0.32172565765E+02  0.11756667838E+02  0.53150749433E+02  0.63232075657E+02  0.00000000000E+00 0. -1.
         11    1    1    2    0    0 -0.10560632403E+03 -0.12006932241E+03  0.44022453196E+03  0.46836628443E+03  0.00000000000E+00 0.  1.
</event>
<event>
 7    1  0.2490079E-009  0.7121425E+02  0.7561462E-02  0.1356012E+00
          2   -1    0    0  501    0  0.00000000000E+00  0.00000000000E+00  0.23935907531E+03  0.23935907531E+03  0.00000000000E+00 0. -1.
         -2   -1    0    0    0  501 -0.00000000000E+00 -0.00000000000E+00 -0.55785160561E+02  0.55785160561E+02  0.00000000000E+00 0.  1.
         25    2    1    2    0    0 -0.34241027822E+02 -0.19788132140E+02  0.11782590276E+03  0.17633883007E+03  0.12509365079E+03 0.  0.
          5    1    3    3  502    0 -0.35872829284E+02 -0.42066868101E+01  0.14236043476E+03  0.14693033002E+03  0.41800000000E+01 0.  1.
         -5    1    3    3    0  502  0.16318014611E+01 -0.15581445330E+02 -0.24534531999E+02  0.29408500046E+02  0.41800000000E+01 0.  1.
        -11    1    1    2    0    0  0.27189284613E+02 -0.29468349237E+02  0.51947645168E+01  0.40430513018E+02  0.00000000000E+00 0.  1.
         11    1    1    2    0    0  0.70517432092E+01  0.49256481377E+02  0.60553247469E+02  0.78374892784E+02  0.00000000000E+00 0. -1.
</event>
<event>
 7    1  0.2490079E-009  0.9139501E+02  0.7561462E-02  0.1299508E+00
         -3   -1    0    0    0  501 -0.00000000000E+00  0.00000000000E+00  0.40353608891E+02  0.40353608891E+02  0.00000000000E+00 0.  1.
          3   -1    0    0  501    0  0.00000000000E+00 -0.00000000000E+00 -0.33168374838E+03  0.33168374838E+03  0.00000000000E+00 0. -1.
         25    2    1    2    0    0  0.21728319232E+02  0.23828093681E+02 -0.12484189790E+03  0.17964688115E+03  0.12509038545E+03 0.  0.
          5    1    3    3  502    0  0.20950102201E+02  0.63375039626E+02 -0.12278667767E+03  0.13981896525E+03  0.41800000000E+01 0. -1.
         -5    1    3    3    0  502  0.77821703061E+00 -0.39546945945E+02 -0.20552202289E+01  0.39827915907E+02  0.41800000000E+01 0. -1.
        -11    1    1    2    0    0  0.14299519105E+02 -0.35494562852E+02 -0.14253225074E+03  0.14757975044E+03  0.00000000000E+00 0. -1.
         11    1    1    2    0    0 -0.36027838337E+02  0.11666469171E+02 -0.23955990854E+02  0.44810725679E+02  0.00000000000E+00 0.  1.
</event>
<event>
 7    1  0.2490079E-009  0.1008643E+03  0.7561462E-02  0.1278489E+00
         -1   -1    0    0    0  501 -0.00000000000E+00  0.00000000000E+00  0.11506534739E+03  0.11506534739E+03  0.00000000000E+00 0.  1.
          1   -1    0    0  501    0  0.00000000000E+00 -0.00000000000E+00 -0.12263819948E+03  0.12263819948E+03  0.00000000000E+00 0. -1.
         25    2    1    2    0    0  0.46521917612E+02 -0.12264912097E+02 -0.83828208826E+01  0.13428144418E+03  0.12508604110E+03 0.  0.
          5    1    3    3  502    0  0.77580343762E+02 -0.44846589001E+01  0.30635442001E+02  0.83635068065E+02  0.41800000000E+01 0. -1.
         -5    1    3    3    0  502 -0.31058426150E+02 -0.77802531970E+01 -0.39018262883E+02  0.50646376111E+02  0.41800000000E+01 0. -1.
        -11    1    1    2    0    0 -0.17205195430E+02  0.44699376494E+02  0.24389590248E+02  0.53748535991E+02  0.00000000000E+00 0.  1.
         11    1    1    2    0    0 -0.29316722182E+02 -0.32434464396E+02 -0.23579621457E+02  0.49673566695E+02  0.00000000000E+00 0. -1.
</event>
<event>
 7    1  0.2490079E-009  0.2061227E+03  0.7561462E-02  0.1144674E+00
         -1   -1    0    0    0  501 -0.00000000000E+00  0.00000000000E+00  0.39810484335E+02  0.39810484335E+02  0.00000000000E+00 0.  1.
          1   -1    0    0  501    0  0.00000000000E+00 -0.00000000000E+00 -0.13355557290E+04  0.13355557290E+04  0.00000000000E+00 0. -1.
         25    2    1    2    0    0 -0.67681121705E+02  0.18205704130E+03 -0.48273799729E+03  0.53517241702E+03  0.12509213157E+03 0.  0.
          5    1    3    3  502    0 -0.71805614066E+02  0.87348406601E+02 -0.14255685259E+03  0.18200472238E+03  0.41800000000E+01 0. -1.
         -5    1    3    3    0  502  0.41244923610E+01  0.94708634704E+02 -0.34018114470E+03  0.35316769464E+03  0.41800000000E+01 0. -1.
        -11    1    1    2    0    0  0.59541346890E+02 -0.70197818141E+02 -0.48175360047E+03  0.49046858944E+03  0.00000000000E+00 0. -1.
         11    1    1    2    0    0  0.81397748149E+01 -0.11185922316E+03 -0.33125364690E+03  0.34972520688E+03  0.00000000000E+00 0.  1.
</event>
<event>
 7    1  0.2490079E-009  0.1499354E+03  0.7561462E-02  0.1200552E+00
          2   -1    0    0  501    0  0.00000000000E+00  0.00000000000E+00  0.78564762481E+02  0.78564762481E+02  0.00000000000E+00 0. -1.
         -2   -1    0    0    0  501 -0.00000000000E+00 -0.00000000000E+00 -0.72527939590E+03  0.72527939590E+03  0.00000000000E+00 0.  1.
         25    2    1    2    0    0  0.29136685469E+02 -0.11076266892E+03 -0.32879831703E+02  0.17275936851E+03  0.12508957114E+03 0.  0.
          5    1    3    3  502    0 -0.38290984086E+02 -0.34306426550E+02 -0.46972011290E+02  0.69763691198E+02  0.41800000000E+01 0.  1.
         -5    1    3    3    0  502  0.67427669555E+02 -0.76456242375E+02  0.14092179587E+02  0.10299567731E+03  0.41800000000E+01 0.  1.
        -11    1    1    2    0    0  0.22565889088E+02 -0.15518917338E+01 -0.81607519237E+02  0.84684206994E+02  0.00000000000E+00 0.  1.
         11    1    1    2    0    0 -0.51702574556E+02  0.11231456066E+03 -0.53222728248E+03  0.54640058288E+03  0.00000000000E+00 0. -1.
</event>
<event>
 7    1  0.2490079E-009  0.1384220E+03  0.7561462E-02  0.1215468E+00
         -2   -1    0    0    0  501 -0.00000000000E+00  0.00000000000E+00  0.16921896003E+03  0.16921896003E+03  0.00000000000E+00 0.  1.
          2   -1    0    0  501    0  0.00000000000E+00 -0.00000000000E+00 -0.13625922195E+03  0.13625922195E+03  0.00000000000E+00 0. -1.
         25    2    1    2    0    0  0.34462122667E+02  0.77955577088E+02  0.80152856549E+02  0.17127724136E+03  0.12508678227E+03 0.  0.
          5    1    3    3  502    0  0.20952422204E+02 -0.33106891734E+02  0.21389881693E+02  0.44833801036E+02  0.41800000000E+01 0.  1.
         -5    1    3    3    0  502  0.13509700464E+02  0.11106246882E+03  0.58762974856E+02  0.12644344033E+03  0.41800000000E+01 0.  1.
        -11    1    1    2    0    0  0.29070183163E+02 -0.45875013365E+02 -0.17221353736E+02  0.56975147432E+02  0.00000000000E+00 0.  1.
         11    1    1    2    0    0 -0.63532305831E+02 -0.32080563723E+02 -0.29971764732E+02  0.77225793192E+02  0.00000000000E+00 0. -1.
</event>
<event>
 7    1  0.2490079E-009  0.1208437E+03  0.7561462E-02  0.1241712E+00
          2   -1    0    0  501    0  0.00000000000E+00  0.00000000000E+00  0.30140274604E+03  0.30140274604E+03  0.00000000000E+00 0. -1.
         -2   -1    0    0    0  501 -0.00000000000E+00 -0.00000000000E+00 -0.10083645848E+03  0.10083645848E+03  0.00000000000E+00 0.  1.
         25    2    1    2    0    0  0.19386723422E+02  0.70499909225E+02 -0.23937532230E+02  0.14685500779E+03  0.12508919065E+03 0.  0.
          5    1    3    3  502    0 -0.30271537370E+02  0.77875690210E+02  0.12630893697E+02  0.84604970161E+02  0.41800000000E+01 0. -1.
         -5    1    3    3    0  502  0.49658260792E+02 -0.73757809846E+01 -0.36568425927E+02  0.62250037629E+02  0.41800000000E+01 0. -1.
        -11    1    1    2    0    0  0.29792529500E+02 -0.39664512429E+02  0.45900559052E+02  0.67584981183E+02  0.00000000000E+00 0.  1.
         11    1    1    2    0    0 -0.49179252923E+02 -0.30835396796E+02  0.17860326073E+03  0.18779921554E+03  0.00000000000E+00 0. -1.
</event>
<event>
 7    1  0.2490079E-009  0.8009255E+02  0.7561462E-02  0.1328789E+00
          2   -1    0    0  501    0  0.00000000000E+00  0.00000000000E+00  0.13176425080E+03  0.13176425080E+03  0.00000000000E+00 0. -1.
         -2   -1    0    0    0  501 -0.00000000000E+00 -0.00000000000E+00 -0.76447370288E+02  0.76447370288E+02  0.00000000000E+00 0.  1.
         25    2    1    2    0    0  0.45567962629E+01  0.12088410079E+02  0.60732800748E+02  0.13964149202E+03  0.12507749261E+03 0.  0.
          5    1    3    3  502    0  0.28544661617E+02  0.53344963237E+02 -0.20356333311E+01  0.60680301685E+02  0.41800000000E+01 0. -1.
         -5    1    3    3    0  502 -0.23987865354E+02 -0.41256553158E+02  0.62768434079E+02  0.78961190337E+02  0.41800000000E+01 0. -1.
        -11    1    1    2    0    0  0.16662191562E+02  0.11239140168E+02 -0.24516706829E+02  0.31701984372E+02  0.00000000000E+00 0.  1.
         11    1    1    2    0    0 -0.21218987824E+02 -0.23327550247E+02  0.19100786593E+02  0.36868144696E+02  0.00000000000E+00 0. -1.
</event>
<event>
 7    1  0.2490079E-009  0.9017328E+02  0.7561462E-02  0.1302433E+00
          2   -1    0    0  501    0  0.00000000000E+00  0.00000000000E+00  0.51706245380E+03  0.51706245380E+03  0.00000000000E+00 0. -1.
         -2   -1    0    0    0  501 -0.00000000000E+00 -0.00000000000E+00 -0.24569718089E+02  0.24569718089E+02  0.00000000000E+00 0.  1.
         25    2    1    2    0    0  0.28374296504E+02  0.11844770629E+02  0.32217084547E+03  0.34696910035E+03  0.12509238040E+03 0.  0.
          5    1    3    3  502    0  0.66584678193E+02  0.42884642977E+02  0.19182201238E+03  0.20757111747E+03  0.41800000000E+01 0. -1.
         -5    1    3    3    0  502 -0.38210381688E+02 -0.31039872348E+02  0.13034883309E+03  0.13939798288E+03  0.41800000000E+01 0. -1.
        -11    1    1    2    0    0 -0.36698546147E+02  0.54639561641E+00  0.17516544264E+03  0.17896931059E+03  0.00000000000E+00 0. -1.
         11    1    1    2    0    0  0.83242496426E+01 -0.12391166245E+02 -0.48435523947E+01  0.15693760952E+02  0.00000000000E+00 0.  1.
</event>
<event>
 7    1  0.2490079E-009  0.9364749E+02  0.7561462E-02  0.1294252E+00
         -1   -1    0    0    0  501 -0.00000000000E+00  0.00000000000E+00  0.76723026284E+02  0.76723026284E+02  0.00000000000E+00 0.  1.
          1   -1    0    0  501    0  0.00000000000E+00 -0.00000000000E+00 -0.25880144704E+03  0.25880144704E+03  0.00000000000E+00 0. -1.
         25    2    1    2    0    0  0.78357127390E+01 -0.40198566587E+02 -0.25234100197E+01  0.13164367822E+03  0.12508543987E+03 0.  0.
          5    1    3    3  502    0  0.54309300931E+02 -0.52546114852E+02  0.20143910989E+02  0.78318860459E+02  0.41800000000E+01 0. -1.
         -5    1    3    3    0  502 -0.46473588192E+02  0.12347548265E+02 -0.22667321009E+02  0.53324817762E+02  0.41800000000E+01 0. -1.
        -11    1    1    2    0    0 -0.22770076019E+02  0.26371757181E+01 -0.34307616828E+01  0.23177600899E+02  0.00000000000E+00 0.  1.
         11    1    1    2    0    0  0.14934363280E+02  0.37561390869E+02 -0.17612424905E+03  0.18070319420E+03  0.00000000000E+00 0. -1.
</event>
<event>
 7    1  0.2490079E-009  0.2355338E+03  0.7561462E-02  0.1122804E+00
          1   -1    0    0  501    0  0.00000000000E+00  0.00000000000E+00  0.49906734906E+03  0.49906734906E+03  0.00000000000E+00 0. -1.
         -1   -1    0    0    0  501 -0.00000000000E+00 -0.00000000000E+00 -0.14388235694E+03  0.14388235694E+03  0.00000000000E+00 0.  1.
         25    2    1    2    0    0 -0.16364643426E+03 -0.15290219999E+03  0.63840789062E+02  0.26435142102E+03  0.12508712660E+03 0.  0.
          5    1    3    3  502    0 -0.21906369880E+02 -0.86089827068E+02  0.60505300857E+02  0.10756259200E+03  0.41800000000E+01 0.  1.
         -5    1    3    3    0  502 -0.14174006437E+03 -0.66812372919E+02  0.33354882052E+01  0.15678882902E+03  0.41800000000E+01 0.  1.
        -11    1    1    2    0    0  0.58721499603E+02  0.38859055621E+02  0.33992705663E+02  0.78190439042E+02  0.00000000000E+00 0.  1.
         11    1    1    2    0    0  0.10492493465E+03  0.11404314437E+03  0.25735149740E+03  0.30040784594E+03  0.00000000000E+00 0. -1.
</event>
<event>
 7    1  0.2490079E-009  0.1141606E+03  0.7561462E-02  0.1253054E+00
          2   -1    0    0  501    0  0.00000000000E+00  0.00000000000E+00  0.98124004385E+02  0.98124004385E+02  0.00000000000E+00 0.  1.
         -2   -1    0    0    0  501 -0.00000000000E+00 -0.00000000000E+00 -0.16635035463E+03  0.16635035463E+03  0.00000000000E+00 0. -1.
         25    2    1    2    0    0  0.38270308036E+01 -0.67157524234E+02 -0.14679582728E+02  0.14278452643E+03  0.12508857506E+03 0.  0.
          5    1    3    3  502    0  0.33352057852E+01  0.28714332756E+02 -0.34074928245E+02  0.44879946949E+02  0.41800000000E+01 0.  1.
         -5    1    3    3    0  502  0.49182501840E+00 -0.95871856990E+02  0.19395345517E+02  0.97904579476E+02  0.41800000000E+01 0.  1.
        -11    1    1    2    0    0  0.37167674595E+02  0.28982288678E+02 -0.46979276679E+01  0.47365384156E+02  0.00000000000E+00 0.  1.
         11    1    1    2    0    0 -0.40994705399E+02  0.38175235556E+02 -0.48848839849E+02  0.74324448434E+02  0.00000000000E+00 0. -1.
</event>
<event>
 7    1  0.2490079E-009  0.2818067E+03  0.7561462E-02  0.1094706E+00
         -2   -1    0    0    0  501 -0.00000000000E+00  0.00000000000E+00  0.40438223299E+02  0.40438223299E+02  0.00000000000E+00 0. -1.
          2   -1    0    0  501    0  0.00000000000E+00 -0.00000000000E+00 -0.21952600964E+04  0.21952600964E+04  0.00000000000E+00 0.  1.
         25    2    1    2    0    0  0.17042475922E+03 -0.20593846206E+03 -0.13540734650E+04  0.13858641744E+04  0.12509721327E+03 0.  0.
          5    1    3    3  502    0  0.13605030762E+03 -0.20950522248E+03 -0.10273991658E+04  0.10573403628E+04  0.41800000000E+01 0.  1.
         -5    1    3    3    0  502  0.34374451600E+02  0.35667604187E+01 -0.32667429913E+03  0.32852381165E+03  0.41800000000E+01 0.  1.
        -11    1    1    2    0    0 -0.24856777401E+02  0.88513579669E+02 -0.18970152552E+03  0.21080602921E+03  0.00000000000E+00 0.  1.
         11    1    1    2    0    0 -0.14556798182E+03  0.11742488239E+03 -0.61104688256E+03  0.63902811599E+03  0.00000000000E+00 0. -1.
</event>
<event>
 7    1  0.2490079E-009  0.1796431E+03  0.7561462E-02  0.1168149E+00
         -1   -1    0    0    0  501 -0.00000000000E+00  0.00000000000E+00  0.99676014528E+02  0.99676014528E+02  0.00000000000E+00 0.  1.
          1   -1    0    0  501    0  0.00000000000E+00 -0.00000000000E+00 -0.35566533766E+03  0.35566533766E+03  0.00000000000E+00 0. -1.
         25    2    1    2    0    0  0.10432063759E+03 -0.10240838013E+03 -0.18474050434E+03  0.26673367704E+03  0.12509008264E+03 0.  0.
          5    1    3    3  502    0 -0.19076776168E+02 -0.45469220888E+02 -0.20621782264E+02  0.53610668163E+02  0.41800000000E+01 0.  1.
         -5    1    3    3    0  502  0.12339741376E+03 -0.56939159240E+02 -0.16411872208E+03  0.21312300888E+03  0.41800000000E+01 0.  1.
        -11    1    1    2    0    0 -0.49306993538E+02  0.10781695565E+03 -0.40086874959E+02  0.12515044180E+03  0.00000000000E+00 0. -1.
         11    1    1    2    0    0 -0.55013644051E+02 -0.54085755259E+01 -0.31161943828E+02  0.63457233347E+02  0.00000000000E+00 0.  1.
</event>
<event>
 7    1  0.2490079E-009  0.1257105E+03  0.7561462E-02  0.1233963E+00
          1   -1    0    0  501    0  0.00000000000E+00  0.00000000000E+00  0.89283904034E+03  0.89283904034E+03  0.00000000000E+00 0. -1.
         -1   -1    0    0    0  501 -0.00000000000E+00 -0.00000000000E+00 -0.48681027611E+02  0.48681027611E+02  0.00000000000E+00 0.  1.
         25    2    1    2    0    0  0.58810350303E+02  0.34638590621E+02  0.81019799607E+03  0.82263439032E+03  0.12509219815E+03 0.  0.
          5    1    3    3  502    0  0.13194097084E+02 -0.44238672388E+02  0.38383012478E+03  0.38661890981E+03  0.41800000000E+01 0.  1.
         -5    1    3    3    0  502  0.45616253219E+02  0.78877263009E+02  0.42636787129E+03  0.43601548051E+03  0.41800000000E+01 0.  1.
        -11    1    1    2    0    0 -0.60372837813E+02 -0.61947373445E+02  0.23909052090E+02  0.89744077209E+02  0.00000000000E+00 0.  1.
         11    1    1    2    0    0  0.15624875097E+01  0.27308782824E+02  0.10050964574E+02  0.29141600426E+02  0.00000000000E+00 0. -1.
</event>
<event>
 7    1  0.2490079E-009  0.1023070E+03  0.7561462E-02  0.1275518E+00
         -2   -1    0    0    0  501 -0.00000000000E+00  0.00000000000E+00  0.13175965230E+02  0.13175965230E+02  0.00000000000E+00 0.  1.
          2   -1    0    0  501    0  0.00000000000E+00 -0.00000000000E+00 -0.90173733484E+03  0.90173733484E+03  0.00000000000E+00 0. -1.
         25    2    1    2    0    0 -0.55912290663E+01 -0.86677060855E+01 -0.49667712916E+03  0.51229110688E+03  0.12509043363E+03 0.  0.
          5    1    3    3  502    0 -0.56426107149E+02  0.15374022776E+02 -0.14989178776E+03  0.16095119317E+03  0.41800000000E+01 0.  1.
         -5    1    3    3    0  502  0.50834878083E+02 -0.24041728862E+02 -0.34678534140E+03  0.35133991371E+03  0.41800000000E+01 0.  1.
        -11    1    1    2    0    0  0.88678821278E+01 -0.39921029285E+02 -0.22865738803E+03  0.23228544727E+03  0.00000000000E+00 0.  1.
         11    1    1    2    0    0 -0.32766530615E+01  0.48588735371E+02 -0.16322685242E+03  0.17033674592E+03  0.00000000000E+00 0. -1.
</event>
<event>
 7    1  0.2490079E-009  0.1073244E+03  0.7561462E-02  0.1265606E+00
         -2   -1    0    0    0  501 -0.00000000000E+00  0.00000000000E+00  0.91145724587E+02  0.91145724587E+02  0.00000000000E+00 0. -1.
          2   -1    0    0  501    0  0.00000000000E+00 -0.00000000000E+00 -0.13761702682E+03  0.13761702682E+03  0.00000000000E+00 0.  1.
         25    2    1    2    0    0 -0.30313676298E+02 -0.10976770916E+02 -0.36515730833E+02  0.13423753688E+03  0.12508760625E+03 0.  0.
          5    1    3    3  502    0 -0.34501540374E+01  0.56025858580E+02 -0.22307452165E+02  0.60546636691E+02  0.41800000000E+01 0. -1.
         -5    1    3    3    0  502 -0.26863522261E+02 -0.67002629496E+02 -0.14208278668E+02  0.73690900187E+02  0.41800000000E+01 0. -1.
        -11    1    1    2    0    0  0.42244323634E+02 -0.24354474063E+02  0.13342452992E+02  0.50554370117E+02  0.00000000000E+00 0. -1.
         11    1    1    2    0    0 -0.11930647335E+02  0.35331244979E+02 -0.23298024388E+02  0.43970844408E+02  0.00000000000E+00 0.  1.
</event>
<event>
 7    1  0.2490079E-009  0.1316233E+03  0.7561462E-02  0.1225067E+00
         -1   -1    0    0    0  501 -0.00000000000E+00  0.00000000000E+00  0.83524939914E+02  0.83524939914E+02  0.00000000000E+00 0.  1.
          1   -1    0    0  501    0  0.00000000000E+00 -0.00000000000E+00 -0.31178728447E+03  0.31178728447E+03  0.00000000000E+00 0. -1.
         25    2    1    2    0    0 -0.34071428751E+02  0.81657635432E+02 -0.24220181046E+02  0.15512524307E+03  0.12509353376E+03 0.  0.
          5    1    3    3  502    0 -0.63763913192E+02  0.10256359775E+02  0.17659250420E+02  0.67084655971E+02  0.41800000000E+01 0.  1.
         -5    1    3    3    0  502  0.29692484440E+02  0.71401275657E+02 -0.41879431465E+02  0.88040587104E+02  0.41800000000E+01 0.  1.
        -11    1    1    2    0    0 -0.21467138132E+02 -0.55870401070E+02 -0.13635210184E+03  0.14891015886E+03  0.00000000000E+00 0.  1.
         11    1    1    2    0    0  0.55538566883E+02 -0.25787234363E+02 -0.67690061668E+02  0.91276822448E+02  0.00000000000E+00 0. -1.
</event>
<event>
 7    1  0.2490079E-009  0.1009765E+03  0.7561462E-02  0.1278256E+00
         -1   -1    0    0    0  501 -0.00000000000E+00  0.00000000000E+00  0.51006873856E+02  0.51006873856E+02  0.00000000000E+00 0.  1.
          1   -1    0    0  501    0  0.00000000000E+00 -0.00000000000E+00 -0.33365262170E+03  0.33365262170E+03  0.00000000000E+00 0. -1.
         25    2    1    2    0    0 -0.32982344684E+02  0.44751185532E+02 -0.90241048907E+02  0.16395513659E+03  0.12508931304E+03 0.  0.
          5    1    3    3  502    0 -0.44806116773E+02 -0.14640814700E+02  0.84690496487E+01  0.48074304543E+02  0.41800000000E+01 0. -1.
         -5    1    3    3    0  502  0.11823772088E+02  0.59392000233E+02 -0.98710098556E+02  0.11588083204E+03  0.41800000000E+01 0. -1.
        -11    1    1    2    0    0  0.55369370500E+02 -0.16285427797E+02 -0.16638805711E+03  0.17611350856E+03  0.00000000000E+00 0.  1.
         11    1    1    2    0    0 -0.22387025815E+02 -0.28465757735E+02 -0.26016641820E+02  0.44590850406E+02  0.00000000000E+00 0. -1.
</event>
<event>
 7    1  0.2490079E-009  0.2033523E+03  0.7561462E-02  0.1146941E+00
          3   -1    0    0  501    0  0.00000000000E+00  0.00000000000E+00  0.58745698802E+02  0.58745698802E+02  0.00000000000E+00 0. -1.
         -3   -1    0    0    0  501 -0.00000000000E+00 -0.00000000000E+00 -0.75874654797E+03  0.75874654797E+03  0.00000000000E+00 0.  1.
         25    2    1    2    0    0 -0.15292441593E+03  0.79933012766E+02 -0.26396260158E+03  0.33926267191E+03  0.12509093492E+03 0.  0.
          5    1    3    3  502    0 -0.15570776106E+03  0.10337703573E+03 -0.21618085778E+03  0.28580299866E+03  0.41800000000E+01 0. -1.
         -5    1    3    3    0  502  0.27833451325E+01 -0.23444022969E+02 -0.47781743799E+02  0.53459673245E+02  0.41800000000E+01 0. -1.
        -11    1    1    2    0    0  0.47895609109E+02  0.18969531335E+02 -0.13213934922E+03  0.14182609105E+03  0.00000000000E+00 0.  1.
         11    1    1    2    0    0  0.10502880682E+03 -0.98902544100E+02 -0.30389889837E+03  0.33640348381E+03  0.00000000000E+00 0. -1.
</event>
<event>
 7    1  0.2490079E-009  0.1381705E+03  0.7561462E-02  0.1215812E+00
         -1   -1    0    0    0  501 -0.00000000000E+00  0.00000000000E+00  0.13305359848E+03  0.13305359848E+03  0.00000000000E+00 0.  1.
          1   -1    0    0  501    0  0.00000000000E+00 -0.00000000000E+00 -0.19609976362E+03  0.19609976362E+03  0.00000000000E+00 0. -1.
         25    2    1    2    0    0 -0.10501642726E+03 -0.50392622641E+02 -0.27091878131E+02  0.17305853304E+03  0.12508964620E+03 0.  0.
          5    1    3    3  502    0 -0.12530782764E+03 -0.55738376587E+02 -0.45785556601E+02  0.14464649283E+03  0.41800000000E+01 0.  1.
         -5    1    3    3    0  502  0.20291400381E+02  0.53457539460E+01  0.18693678470E+02  0.28412040219E+02  0.41800000000E+01 0.  1.
        -11    1    1    2    0    0  0.96304175469E+02  0.40281430827E+02  0.13145278958E+02  0.10521352689E+03  0.00000000000E+00 0.  1.
         11    1    1    2    0    0  0.87122517952E+01  0.10111191814E+02 -0.49099565965E+02  0.50881302157E+02  0.00000000000E+00 0. -1.
</event>
<event>
 7    1  0.2490079E-009  0.1123696E+03  0.7561462E-02  0.1256244E+00
          2   -1    0    0  501    0  0.00000000000E+00  0.00000000000E+00  0.46957117287E+03  0.46957117287E+03  0.00000000000E+00 0. -1.
         -2   -1    0    0    0  501 -0.00000000000E+00 -0.00000000000E+00 -0.57247005701E+02  0.57247005701E+02  0.00000000000E+00 0.  1.
         25    2    1    2    0    0 -0.38622642586E+02  0.40545836247E+02  0.45171710153E+02  0.14430281545E+03  0.12508855180E+03 0.  0.
          5    1    3    3  502    0 -0.70812294272E+02  0.47497521406E+01 -0.90563314017E+01  0.71668896349E+02  0.41800000000E+01 0. -1.
         -5    1    3    3    0  502  0.32189651686E+02  0.35796084107E+02  0.54228041555E+02  0.72633919100E+02  0.41800000000E+01 0. -1.
        -11    1    1    2    0    0  0.76820674913E+01  0.28576836580E+02  0.72977963510E+02  0.78749177189E+02  0.00000000000E+00 0.  1.
         11    1    1    2    0    0  0.30940575095E+02 -0.69122672828E+02  0.29417449351E+03  0.30376618594E+03  0.00000000000E+00 0. -1.
</event>
<event>
 7    1  0.2490079E-009  0.9929445E+02  0.7561462E-02  0.1281787E+00
          2   -1    0    0  501    0  0.00000000000E+00  0.00000000000E+00  0.11708688046E+03  0.11708688046E+03  0.00000000000E+00 0. -1.
         -2   -1    0    0    0  501 -0.00000000000E+00 -0.00000000000E+00 -0.31520273549E+03  0.31520273549E+03  0.00000000000E+00 0.  1.
         25    2    1    2    0    0 -0.58678446990E+02 -0.13696528473E+01  0.61250203983E+02  0.15114778932E+03  0.12509608562E+03 0.  0.
          5    1    3    3  502    0 -0.72494630716E+02 -0.25927124596E+02 -0.67722688468E+01  0.77401700871E+02  0.41800000000E+01 0. -1.
         -5    1    3    3    0  502  0.13816183726E+02  0.24557471749E+02  0.68022472830E+02  0.73746088447E+02  0.41800000000E+01 0. -1.
        -11    1    1    2    0    0  0.51265326185E+02 -0.30920496818E+02 -0.86924625765E+02  0.10554667857E+03  0.00000000000E+00 0. -1.
         11    1    1    2    0    0  0.74131208045E+01  0.32290149665E+02 -0.17244143325E+03  0.17559514807E+03  0.00000000000E+00 0.  1.
</event>
<event>
 7    1  0.2490079E-009  0.1730566E+03  0.7561462E-02  0.1174697E+00
         -1   -1    0    0    0  501 -0.00000000000E+00  0.00000000000E+00  0.66504355979E+02  0.66504355979E+02  0.00000000000E+00 0.  1.
          1   -1    0    0  501    0  0.00000000000E+00 -0.00000000000E+00 -0.92542783196E+03  0.92542783196E+03  0.00000000000E+00 0. -1.
         25    2    1    2    0    0  0.14468697210E+03 -0.74097355837E+02 -0.74021601147E+03  0.76810952156E+03  0.12509098864E+03 0.  0.
          5    1    3    3  502    0  0.41581847106E+02 -0.45901543385E+02 -0.51557809633E+03  0.51930169218E+03  0.41800000000E+01 0. -1.
         -5    1    3    3    0  502  0.10310512499E+03 -0.28195812453E+02 -0.22463791515E+03  0.24880782938E+03  0.41800000000E+01 0. -1.
        -11    1    1    2    0    0 -0.35275879860E+02  0.55973760071E+02 -0.71967695769E+01  0.66552558243E+02  0.00000000000E+00 0.  1.
         11    1    1    2    0    0 -0.10941109224E+03  0.18123595766E+02 -0.11151069493E+03  0.15727010813E+03  0.00000000000E+00 0. -1.
</event>
<event>
 7    1  0.2490079E-009  0.9837716E+02  0.7561462E-02  0.1283746E+00
          1   -1    0    0  501    0  0.00000000000E+00  0.00000000000E+00  0.27528337877E+03  0.27528337877E+03  0.00000000000E+00 0. -1.
         -1   -1    0    0    0  501 -0.00000000000E+00 -0.00000000000E+00 -0.43990667067E+02  0.43990667067E+02  0.00000000000E+00 0.  1.
         25    2    1    2    0    0  0.19758027276E+02 -0.15828733350E+02  0.12323251721E+03  0.17741337085E+03  0.12509325489E+03 0.  0.
          5    1    3    3  502    0  0.57907393706E+02  0.29549385513E+02  0.83576812555E+02  0.10596692138E+03  0.41800000000E+01 0.  1.
         -5    1    3    3    0  502 -0.38149366430E+02 -0.45378118863E+02  0.39655704658E+02  0.71446449474E+02  0.41800000000E+01 0.  1.
        -11    1    1    2    0    0  0.68283672264E+01 -0.23630975256E+02  0.85937690933E+02  0.89388681126E+02  0.00000000000E+00 0. -1.
         11    1    1    2    0    0 -0.26586394502E+02  0.39459708606E+02  0.22122503561E+02  0.52471993860E+02  0.00000000000E+00 0.  1.
</event>
<event>
 7    1  0.2490079E-009  0.1330066E+03  0.7561462E-02  0.1223061E+00
         -2   -1    0    0    0  501 -0.00000000000E+00  0.00000000000E+00  0.23853306344E+02  0.23853306344E+02  0.00000000000E+00 0.  1.
          2   -1    0    0  501    0  0.00000000000E+00 -0.00000000000E+00 -0.82774498896E+03  0.82774498896E+03  0.00000000000E+00 0. -1.
         25    2    1    2    0    0  0.24926620395E+02  0.80804800542E+02 -0.35183568734E+03  0.38286230565E+03  0.12507774387E+03 0.  0.
          5    1    3    3  502    0  0.31217872490E+02  0.11175843755E+03 -0.30367430321E+03  0.32511545450E+03  0.41800000000E+01 0. -1.
         -5    1    3    3    0  502 -0.62912520957E+01 -0.30953637006E+02 -0.48161384128E+02  0.57746851152E+02  0.41800000000E+01 0. -1.
        -11    1    1    2    0    0 -0.49357189132E+02 -0.21380184062E+02 -0.13670901401E+03  0.14691017290E+03  0.00000000000E+00 0.  1.
         11    1    1    2    0    0  0.24430568737E+02 -0.59424616480E+02 -0.31534698126E+03  0.32182581675E+03  0.00000000000E+00 0. -1.
</event>
<event>
 7    1  0.2490079E-009  0.1735478E+03  0.7561462E-02  0.1174198E+00
          1   -1    0    0  501    0  0.00000000000E+00  0.00000000000E+00  0.40585499058E+02  0.40585499058E+02  0.00000000000E+00 0. -1.
         -1   -1    0    0    0  501 -0.00000000000E+00 -0.00000000000E+00 -0.84522496944E+03  0.84522496944E+03  0.00000000000E+00 0.  1.
         25    2    1    2    0    0  0.26338832141E+02 -0.14698311964E+03 -0.47351074057E+03  0.51201347123E+03  0.12509037432E+03 0.  0.
          5    1    3    3  502    0  0.46530608056E+02 -0.15039045174E+03 -0.46211038649E+03  0.48820678730E+03  0.41800000000E+01 0. -1.
         -5    1    3    3    0  502 -0.20191775916E+02  0.34073320971E+01 -0.11400354077E+02  0.23806683930E+02  0.41800000000E+01 0. -1.
        -11    1    1    2    0    0 -0.50683872365E+02  0.12854757114E+03 -0.29946395632E+03  0.32980599464E+03  0.00000000000E+00 0. -1.
         11    1    1    2    0    0  0.24345040224E+02  0.18435548502E+02 -0.31664773488E+02  0.43991002627E+02  0.00000000000E+00 0.  1.
</event>
<event>
 7    1  0.2490079E-009  0.1488222E+03  0.7561462E-02  0.1201928E+00
          1   -1    0    0  501    0  0.00000000000E+00  0.00000000000E+00  0.44790540085E+02  0.44790540085E+02  0.00000000000E+00 0. -1.
         -1   -1    0    0    0  501 -0.00000000000E+00 -0.00000000000E+00 -0.55309175412E+03  0.55309175412E+03  0.00000000000E+00 0.  1.
         25    2    1    2    0    0  0.83345953371E+02  0.66142578002E+02 -0.36235411652E+03  0.39783113326E+03  0.12509083204E+03 0.  0.
          5    1    3    3  502    0  0.37964526693E+02  0.98374094465E+02 -0.27037601999E+03  0.29024030101E+03  0.41800000000E+01 0. -1.
         -5    1    3    3    0  502  0.45381426678E+02 -0.32231516463E+02 -0.91978096535E+02  0.10759083224E+03  0.41800000000E+01 0. -1.
        -11    1    1    2    0    0 -0.42644854823E+02  0.15254158450E+02 -0.40440217175E+02  0.60718071099E+02  0.00000000000E+00 0. -1.
         11    1    1    2    0    0 -0.40701098548E+02 -0.81396736451E+02 -0.10550688034E+03  0.13933308985E+03  0.00000000000E+00 0.  1.
</event>
<event>
 7    1  0.2490079E-009  0.1242375E+03  0.7561462E-02  0.1236266E+00
         -2   -1    0    0    0  501 -0.00000000000E+00  0.00000000000E+00  0.15748404892E+03  0.15748404892E+03  0.00000000000E+00 0.  1.
          2   -1    0    0  501    0  0.00000000000E+00 -0.00000000000E+00 -0.12623420152E+03  0.12623420152E+03  0.00000000000E+00 0. -1.
         25    2    1    2    0    0 -0.52065467749E+02  0.30758345183E+02  0.83335046773E+02  0.16201648464E+03  0.12509085716E+03 0.  0.
          5    1    3    3  502    0 -0.93868483216E+01 -0.47988213661E+02  0.33659718240E+02  0.59509920213E+02  0.41800000000E+01 0. -1.
         -5    1    3    3    0  502 -0.42678619428E+02  0.78746558844E+02  0.49675328533E+02  0.10250656443E+03  0.41800000000E+01 0. -1.
        -11    1    1    2    0    0  0.49743574363E+02  0.23787009058E+02 -0.30350789862E+02  0.62939776259E+02  0.00000000000E+00 0.  1.
         11    1    1    2    0    0  0.23218933860E+01 -0.54545354241E+02 -0.21734409513E+02  0.58761989543E+02  0.00000000000E+00 0. -1.
</event>
<event>
 7    1  0.2490079E-009  0.1013630E+03  0.7561462E-02  0.1277456E+00
          1   -1    0    0  501    0  0.00000000000E+00  0.00000000000E+00  0.65188743677E+03  0.65188743677E+03  0.00000000000E+00 0. -1.
         -1   -1    0    0    0  501 -0.00000000000E+00 -0.00000000000E+00 -0.31277562710E+02  0.31277562710E+02  0.00000000000E+00 0.  1.
         25    2    1    2    0    0  0.11659004314E+02 -0.85306856825E+02  0.41794493128E+03  0.44468004712E+03  0.12509670867E+03 0.  0.
          5    1    3    3  502    0  0.72521833328E+01 -0.53421349439E+01 -0.70544013055E+01  0.12180703864E+02  0.41800000000E+01 0. -1.
         -5    1    3    3    0  502  0.44068209810E+01 -0.79964721881E+02  0.42499933259E+03  0.43249934326E+03  0.41800000000E+01 0. -1.
        -11    1    1    2    0    0  0.29913407855E+02  0.23159333911E+02  0.12532979866E+03  0.13091495387E+03  0.00000000000E+00 0. -1.
         11    1    1    2    0    0 -0.41572412169E+02  0.62147522914E+02  0.77335144122E+02  0.10756999849E+03  0.00000000000E+00 0.  1.
</event>
<event>
 7    1  0.2543693E-009  0.1548721E+03  0.7561462E-02  0.1194611E+00
         -1   -1    0    0    0  501 -0.00000000000E+00  0.00000000000E+00  0.57352225489E+03  0.57352225489E+03  0.00000000000E+00 0.  1.
          1   -1    0    0  501    0  0.00000000000E+00 -0.00000000000E+00 -0.47144933484E+02  0.47144933484E+02  0.00000000000E+00 0. -1.
         25    2    1    2    0    0 -0.32368833057E+01 -0.12286590716E+03  0.27135449765E+03  0.32308986492E+03  0.12508912368E+03 0.  0.
          5    1    3    3  502    0  0.38754592599E+02 -0.10965247086E+03  0.24594920680E+03  0.27209202035E+03  0.41800000000E+01 0.  1.
         -5    1    3    3    0  502 -0.41991475905E+02 -0.13213436304E+02  0.25405290854E+02  0.50997844572E+02  0.41800000000E+01 0.  1.
        -11    1    1    2    0    0  0.41787345043E+02  0.86910685656E+02  0.19601023355E+03  0.21844830314E+03  0.00000000000E+00 0.  1.
         11    1    1    2    0    0 -0.38550461737E+02  0.35955221505E+02  0.59012590202E+02  0.79129020314E+02  0.00000000000E+00 0. -1.
</event>
<event>
 7    1  0.2798340E-009  0.9873081E+02  0.7561462E-02  0.1282988E+00
         -3   -1    0    0    0  501 -0.00000000000E+00  0.00000000000E+00  0.51745868264E+02  0.51745868264E+02  0.00000000000E+00 0.  1.
          3   -1    0    0  501    0  0.00000000000E+00 -0.00000000000E+00 -0.29975762050E+03  0.29975762050E+03  0.00000000000E+00 0. -1.
         25    2    1    2    0    0  0.32736280741E+02  0.50414835671E+02 -0.15480747702E+03  0.20790945863E+03  0.12509064039E+03 0.  0.
          5    1    3    3  502    0 -0.31405524779E+02  0.52532920252E+02 -0.31789321373E+02  0.69094486395E+02  0.41800000000E+01 0.  1.
         -5    1    3    3    0  502  0.64141805520E+02 -0.21180845807E+01 -0.12301815565E+03  0.13881497224E+03  0.41800000000E+01 0.  1.
        -11    1    1    2    0    0 -0.22555724938E+02 -0.23584433738E+01 -0.91684393883E+02  0.94447610156E+02  0.00000000000E+00 0. -1.
         11    1    1    2    0    0 -0.10180555803E+02 -0.48056392297E+02 -0.15198813306E+01  0.49146419975E+02  0.00000000000E+00 0.  1.
</event>
<event>
 7    1  0.2490079E-009  0.1379849E+03  0.7561462E-02  0.1216066E+00
          2   -1    0    0  501    0  0.00000000000E+00  0.00000000000E+00  0.16966348070E+03  0.16966348070E+03  0.00000000000E+00 0. -1.
         -2   -1    0    0    0  501 -0.00000000000E+00 -0.00000000000E+00 -0.15628879027E+03  0.15628879027E+03  0.00000000000E+00 0.  1.
         25    2    1    2    0    0 -0.10618739064E+03  0.55110277898E+02  0.72731886989E+01  0.17324408157E+03  0.12509079849E+03 0.  0.
          5    1    3    3  502    0 -0.47969073914E+02  0.69909658605E+01  0.62773278613E+02  0.79422053384E+02  0.41800000000E+01 0. -1.
         -5    1    3    3    0  502 -0.58218316722E+02  0.48119312038E+02 -0.55500089914E+02  0.93822028189E+02  0.41800000000E+01 0. -1.
        -11    1    1    2    0    0 -0.17499770961E+02 -0.48506217781E+01  0.62330672547E+01  0.19199521940E+02  0.00000000000E+00 0.  1.
         11    1    1    2    0    0  0.12368716160E+03 -0.50259656120E+02 -0.13156551619E+00  0.13350866746E+03  0.00000000000E+00 0. -1.
</event>
<event>
 7    1  0.2490079E-009  0.1906508E+03  0.7561462E-02  0.1157876E+00
          4   -1    0    0  501    0  0.00000000000E+00  0.00000000000E+00  0.11843778429E+03  0.11843778429E+03  0.00000000000E+00 0. -1.
         -4   -1    0    0    0  501 -0.00000000000E+00 -0.00000000000E+00 -0.35451431282E+03  0.35451431282E+03  0.00000000000E+00 0.  1.
         25    2    1    2    0    0 -0.16619491946E+03 -0.64118988926E+02 -0.14192815166E+03  0.25985068929E+03  0.12508710763E+03 0.  0.
          5    1    3    3  502    0 -0.14517167865E+03 -0.88887464379E+02 -0.14909061406E+03  0.22632119036E+03  0.41800000000E+01 0. -1.
         -5    1    3    3    0  502 -0.21023240807E+02  0.24768475453E+02  0.71624624070E+01  0.33529498923E+02  0.41800000000E+01 0. -1.
        -11    1    1    2    0    0  0.11619793754E+03  0.48243689881E+02 -0.28381461445E+02  0.12897643837E+03  0.00000000000E+00 0. -1.
         11    1    1    2    0    0  0.49996981925E+02  0.15875299045E+02 -0.65766915429E+02  0.84124969458E+02  0.00000000000E+00 0.  1.
</event>
<event>
 7    1  0.2490079E-009  0.1178404E+03  0.7561462E-02  0.1246703E+00
         -2   -1    0    0    0  501 -0.00000000000E+00  0.00000000000E+00  0.33333230205E+03  0.33333230205E+03  0.00000000000E+00 0.  1.
          2   -1    0    0  501    0  0.00000000000E+00 -0.00000000000E+00 -0.79905721334E+02  0.79905721334E+02  0.00000000000E+00 0. -1.
         25    2    1    2    0    0 -0.35301354958E+02 -0.60492311783E+01  0.21187549591E+03  0.24864018318E+03  0.12509171061E+03 0.  0.
          5    1    3    3  502    0  0.44484891609E+02  0.31161125326E+01  0.45490099128E+02  0.63839151447E+02  0.41800000000E+01 0. -1.
         -5    1    3    3    0  502 -0.79786246566E+02 -0.91653437109E+01  0.16638539678E+03  0.18480103173E+03  0.41800000000E+01 0. -1.
        -11    1    1    2    0    0 -0.84105269506E+01 -0.43552906069E+02 -0.39919999804E+02  0.59675782149E+02  0.00000000000E+00 0. -1.
         11    1    1    2    0    0  0.43711881908E+02  0.49602137248E+02  0.81471084610E+02  0.10492205806E+03  0.00000000000E+00 0.  1.
</event>
<event>
 7    1  0.2490079E-009  0.8976291E+02  0.7561462E-02  0.1303427E+00
         -2   -1    0    0    0  501 -0.00000000000E+00  0.00000000000E+00  0.73660494665E+02  0.73660494665E+02  0.00000000000E+00 0.  1.
          2   -1    0    0  501    0  0.00000000000E+00 -0.00000000000E+00 -0.62777936016E+03  0.62777936016E+03  0.00000000000E+00 0. -1.
         25    2    1    2    0    0  0.68844154100E+02  0.25957786662E+02 -0.56433776966E+03  0.58269900974E+03  0.12509074086E+03 0.  0.
          5    1    3    3  502    0  0.28106860414E+02  0.25275533685E+02 -0.34706609505E+02  0.51486593874E+02  0.41800000000E+01 0.  1.
         -5    1    3    3    0  502  0.40737293686E+02  0.68225297623E+00 -0.52963116015E+03  0.53121241586E+03  0.41800000000E+01 0.  1.
        -11    1    1    2    0    0 -0.68375815525E+02  0.59435476874E+01  0.36200340729E+02  0.77595377289E+02  0.00000000000E+00 0.  1.
         11    1    1    2    0    0 -0.46833857513E+00 -0.31901334349E+02 -0.25981436573E+02  0.41145467802E+02  0.00000000000E+00 0. -1.
</event>
<event>
 7    1  0.2490079E-009  0.1091051E+03  0.7561462E-02  0.1262236E+00
          2   -1    0    0  501    0  0.00000000000E+00  0.00000000000E+00  0.32356556525E+03  0.32356556525E+03  0.00000000000E+00 0. -1.
         -2   -1    0    0    0  501 -0.00000000000E+00 -0.00000000000E+00 -0.44960951820E+02  0.44960951820E+02  0.00000000000E+00 0.  1.
         25    2    1    2    0    0  0.48759142591E+02 -0.54377481723E+01  0.18901368871E+03  0.23190176395E+03  0.12508089586E+03 0.  0.
          5    1    3    3  502    0 -0.39421020709E+02 -0.12701988229E+02  0.35698160366E+02  0.54837837596E+02  0.41800000000E+01 0. -1.
         -5    1    3    3    0  502  0.88180163300E+02  0.72642400570E+01  0.15331552835E+03  0.17706392635E+03  0.41800000000E+01 0. -1.
        -11    1    1    2    0    0  0.16465939307E+02 -0.12135204765E+02 -0.43560060518E+01  0.20913276660E+02  0.00000000000E+00 0.  1.
         11    1    1    2    0    0 -0.65225081898E+02  0.17572952937E+02  0.93946930765E+02  0.11571147646E+03  0.00000000000E+00 0. -1.
</event>
<event>
 7    1  0.2490079E-009  0.1172396E+03  0.7561462E-02  0.1247722E+00
          2   -1    0    0  501    0  0.00000000000E+00  0.00000000000E+00  0.73220161229E+03  0.73220161229E+03  0.00000000000E+00 0. -1.
         -2   -1    0    0    0  501 -0.00000000000E+00 -0.00000000000E+00 -0.21501858056E+02  0.21501858056E+02  0.00000000000E+00 0.  1.
         25    2    1    2    0    0 -0.18168919468E+02 -0.53643584954E+02  0.31030158564E+03  0.33932988357E+03  0.12509976816E+03 0.  0.
          5    1    3    3  502    0 -0.31304278605E+02  0.33897211615E+02  0.78311496500E+02  0.90989788978E+02  0.41800000000E+01 0.  1.
         -5    1    3    3    0  502  0.13135359137E+02 -0.87540796569E+02  0.23199008914E+03  0.24834009460E+03  0.41800000000E+01 0.  1.
        -11    1    1    2    0    0  0.50323878014E+02  0.41248528528E+02  0.32532946432E+03  0.33177280503E+03  0.00000000000E+00 0. -1.
         11    1    1    2    0    0 -0.32154958546E+02  0.12395056426E+02  0.75068704271E+02  0.82600781738E+02  0.00000000000E+00 0.  1.
</event>
<event>
 7    1  0.2490079E-009  0.1268757E+03  0.7561462E-02  0.1232167E+00
          4   -1    0    0  501    0  0.00000000000E+00  0.00000000000E+00  0.17225304691E+03  0.17225304691E+03  0.00000000000E+00 0. -1.
         -4   -1    0    0    0  501 -0.00000000000E+00 -0.00000000000E+00 -0.12692730878E+03  0.12692730878E+03  0.00000000000E+00 0.  1.
         25    2    1    2    0    0  0.73672645885E+02 -0.60553275204E+01  0.93391927555E+02  0.17272810413E+03  0.12509444464E+03 0.  0.
          5    1    3    3  502    0  0.45426109618E+02  0.57457696679E+02  0.63181125874E+02  0.96820686888E+02  0.41800000000E+01 0.  1.
         -5    1    3    3    0  502  0.28246536267E+02 -0.63513024200E+02  0.30210801681E+02  0.75907417242E+02  0.41800000000E+01 0.  1.
        -11    1    1    2    0    0 -0.15396778563E+02  0.40311399173E+02  0.60334056529E+00  0.43155923270E+02  0.00000000000E+00 0. -1.
         11    1    1    2    0    0 -0.58275867321E+02 -0.34256071652E+02 -0.48669529997E+02  0.83296328294E+02  0.00000000000E+00 0.  1.
</event>
<event>
 7    1  0.2490079E-009  0.2037688E+03  0.7561462E-02  0.1146598E+00
          1   -1    0    0  501    0  0.00000000000E+00  0.00000000000E+00  0.76207319793E+03  0.76207319793E+03  0.00000000000E+00 0. -1.
         -1   -1    0    0    0  501 -0.00000000000E+00 -0.00000000000E+00 -0.68273613074E+02  0.68273613074E+02  0.00000000000E+00 0.  1.
         25    2    1    2    0    0 -0.12431741598E+03 -0.15572668645E+03  0.38954482415E+03  0.45508117731E+03  0.12509231444E+03 0.  0.
          5    1    3    3  502    0 -0.29520337555E+02 -0.84534112757E+02  0.68481796444E+02  0.11280379157E+03  0.41800000000E+01 0.  1.
         -5    1    3    3    0  502 -0.94797078427E+02 -0.71192573690E+02  0.32106302771E+03  0.34227738574E+03  0.41800000000E+01 0.  1.
        -11    1    1    2    0    0  0.71989539566E+02  0.91771674651E+02  0.25149116196E+03  0.27722254349E+03  0.00000000000E+00 0. -1.
         11    1    1    2    0    0  0.52327876416E+02  0.63955011795E+02  0.52763598742E+02  0.98043090201E+02  0.00000000000E+00 0.  1.
</event>
<event>
 7    1  0.2490079E-009  0.6563867E+02  0.7561462E-02  0.1375585E+00
          1   -1    0    0  501    0  0.00000000000E+00  0.00000000000E+00  0.23368277056E+02  0.23368277056E+02  0.00000000000E+00 0. -1.
         -1   -1    0    0    0  501 -0.00000000000E+00 -0.00000000000E+00 -0.63594204171E+03  0.63594204171E+03  0.00000000000E+00 0.  1.
         25    2    1    2    0    0  0.12649911115E+02 -0.16542529197E+02 -0.26219771041E+03  0.29125371453E+03  0.12508961333E+03 0.  0.
          5    1    3    3  502    0  0.47907527653E+01  0.14934546542E+01  0.13408546469E+02  0.14914531078E+02  0.41800000000E+01 0.  1.
         -5    1    3    3    0  502  0.78591583497E+01 -0.18035983851E+02 -0.27560625688E+03  0.27633918346E+03  0.41800000000E+01 0.  1.
        -11    1    1    2    0    0  0.31064096503E+02 -0.28290658900E+02 -0.78222841393E+02  0.88792749637E+02  0.00000000000E+00 0. -1.
         11    1    1    2    0    0 -0.43714007618E+02  0.44833188097E+02 -0.27215321285E+03  0.27926385460E+03  0.00000000000E+00 0.  1.
</event>
<event>
 7    1  0.2490079E-009  0.6042102E+02  0.7561462E-02  0.1396073E+00
         -2   -1    0    0    0  501 -0.00000000000E+00  0.00000000000E+00  0.26547576852E+02  0.26547576852E+02  0.00000000000E+00 0.  1.
          2   -1    0    0  501    0  0.00000000000E+00 -0.00000000000E+00 -0.44743076380E+03  0.44743076380E+03  0.00000000000E+00 0. -1.
         25    2    1    2    0    0  0.91515008871E+01 -0.93153416582E+01 -0.25245825871E+03  0.28205269851E+03  0.12509207325E+03 0.  0.
          5    1    3    3  502    0 -0.68636048267E+01 -0.13642695638E+02 -0.26199040058E+03  0.26246842594E+03  0.41800000000E+01 0.  1.
         -5    1    3    3    0  502  0.16015105714E+02  0.43273539800E+01  0.95321418782E+01  0.19584272575E+02  0.41800000000E+01 0.  1.
        -11    1    1    2    0    0  0.29013193752E+02 -0.23680020966E+02 -0.10096969154E+03  0.10769116684E+03  0.00000000000E+00 0. -1.
         11    1    1    2    0    0 -0.38164694639E+02  0.32995362624E+02 -0.67455236703E+02  0.84234475307E+02  0.00000000000E+00 0.  1.
</event>
<event>
 7    1  0.2490079E-009  0.1845777E+03  0.7561462E-02  0.1163445E+00
         -1   -1    0    0    0  501 -0.00000000000E+00  0.00000000000E+00  0.55261739058E+02  0.55261739058E+02  0.00000000000E+00 0.  1.
          1   -1    0    0  501    0  0.00000000000E+00 -0.00000000000E+00 -0.80563073177E+03  0.80563073177E+03  0.00000000000E+00 0. -1.
         25    2    1    2    0    0 -0.14866733943E+03  0.33127363726E+02 -0.58499802426E+03  0.61730805029E+03  0.12508853073E+03 0.  0.
          5    1    3    3  502    0 -0.65141739527E+02  0.77429234035E+02 -0.26854032515E+03  0.28700193578E+03  0.41800000000E+01 0. -1.
         -5    1    3    3    0  502 -0.83525599898E+02 -0.44301870310E+02 -0.31645769912E+03  0.33030611451E+03  0.41800000000E+01 0. -1.
        -11    1    1    2    0    0  0.91706337429E+02 -0.60684034522E+02 -0.74397982720E+02  0.13276921406E+03  0.00000000000E+00 0.  1.
         11    1    1    2    0    0  0.56961001997E+02  0.27556670797E+02 -0.90972985729E+02  0.11081520648E+03  0.00000000000E+00 0. -1.
</event>
<event>
 7    1  0.2490079E-009  0.2478589E+03  0.7561462E-02  0.1114665E+00
          2   -1    0    0  501    0  0.00000000000E+00  0.00000000000E+00  0.71661343024E+03  0.71661343024E+03  0.00000000000E+00 0. -1.
         -2   -1    0    0    0  501 -0.00000000000E+00 -0.00000000000E+00 -0.11294806540E+03  0.11294806540E+03  0.00000000000E+00 0.  1.
         25    2    1    2    0    0 -0.24334986765E+02 -0.22708928875E+03  0.49501775977E+03  0.55933229013E+03  0.12509313190E+03 0.  0.
          5    1    3    3  502    0  0.42607375951E+02 -0.13899911292E+03  0.23015078296E+03  0.27225538962E+03  0.41800000000E+01 0. -1.
         -5    1    3    3    0  502 -0.66942362716E+02 -0.88090175828E+02  0.26486697681E+03  0.28707690051E+03  0.41800000000E+01 0. -1.
        -11    1    1    2    0    0 -0.20039782385E+02  0.22158781567E+02 -0.71204654348E+01  0.30713278994E+02  0.00000000000E+00 0.  1.
         11    1    1    2    0    0  0.44374769150E+02  0.20493050718E+03  0.11576807050E+03  0.23951592652E+03  0.00000000000E+00 0. -1.
</event>
<event>
 7    1  0.2490079E-009  0.1042123E+03  0.7561462E-02  0.1271679E+00
         -2   -1    0    0    0  501 -0.00000000000E+00  0.00000000000E+00  0.22857866405E+03  0.22857866405E+03  0.00000000000E+00 0.  1.
          2   -1    0    0  501    0  0.00000000000E+00 -0.00000000000E+00 -0.99379369356E+02  0.99379369356E+02  0.00000000000E+00 0. -1.
         25    2    1    2    0    0  0.75483804933E+02 -0.65502887303E+02  0.11041737953E+03  0.19449622659E+03  0.12509337074E+03 0.  0.
          5    1    3    3  502    0  0.70113865717E+02 -0.51730008146E+02  0.43694392348E+01  0.87341355083E+02  0.41800000000E+01 0.  1.
         -5    1    3    3    0  502  0.53699392164E+01 -0.13772879157E+02  0.10604794029E+03  0.10715487151E+03  0.41800000000E+01 0.  1.
        -11    1    1    2    0    0 -0.22429000216E+02  0.11938077746E+01  0.41380965093E+02  0.47083643653E+02  0.00000000000E+00 0. -1.
         11    1    1    2    0    0 -0.53054804717E+02  0.64309079529E+02 -0.22599049928E+02  0.86378163161E+02  0.00000000000E+00 0.  1.
</event>
<event>
 7    1  0.2490079E-009  0.1370689E+03  0.7561462E-02  0.1217328E+00
          1   -1    0    0  501    0  0.00000000000E+00  0.00000000000E+00  0.57608750237E+03  0.57608750237E+03  0.00000000000E+00 0. -1.
         -1   -1    0    0    0  501 -0.00000000000E+00 -0.00000000000E+00 -0.51314869335E+02  0.51314869335E+02  0.00000000000E+00 0.  1.
         25    2    1    2    0    0 -0.16477056731E+02  0.76485391475E+02  0.87584268744E+02  0.17158062839E+03  0.12508956552E+03 0.  0.
          5    1    3    3  502    0 -0.13976076822E+02 -0.32878226698E+02  0.97758190112E+01  0.37273952722E+02  0.41800000000E+01 0.  1.
         -5    1    3    3    0  502 -0.25009799090E+01  0.10936361817E+03  0.77808449733E+02  0.13430667567E+03  0.41800000000E+01 0.  1.
        -11    1    1    2    0    0  0.59509290675E+02 -0.52911782570E+02  0.28532771910E+03  0.29623119298E+03  0.00000000000E+00 0. -1.
         11    1    1    2    0    0 -0.43032233943E+02 -0.23573608905E+02  0.15186064519E+03  0.15959055032E+03  0.00000000000E+00 0.  1.
</event>
<event>
 7    1  0.2490079E-009  0.2022029E+03  0.7561462E-02  0.1147894E+00
          1   -1    0    0  501    0  0.00000000000E+00  0.00000000000E+00  0.95300688600E+03  0.95300688600E+03  0.00000000000E+00 0. -1.
         -1   -1    0    0    0  501 -0.00000000000E+00 -0.00000000000E+00 -0.58547363646E+02  0.58547363646E+02  0.00000000000E+00 0.  1.
         25    2    1    2    0    0  0.13203494110E+03  0.14072126859E+03  0.63979854391E+03  0.67987059275E+03  0.12508455137E+03 0.  0.
          5    1    3    3  502    0  0.13814384874E+03  0.11803969842E+03  0.62696654412E+03  0.65277991176E+03  0.41800000000E+01 0.  1.
         -5    1    3    3    0  502 -0.61089076415E+01  0.22681570170E+02  0.12831999787E+02  0.27090680990E+02  0.41800000000E+01 0.  1.
        -11    1    1    2    0    0 -0.55512882760E+02 -0.93902848291E+02  0.79811034992E+02  0.13516370214E+03  0.00000000000E+00 0.  1.
         11    1    1    2    0    0 -0.76522058340E+02 -0.46818420302E+02  0.17484994345E+03  0.19651995476E+03  0.00000000000E+00 0. -1.
</event>
<event>
 7    1  0.2490079E-009  0.1183083E+03  0.7561462E-02  0.1245914E+00
          2   -1    0    0  501    0  0.00000000000E+00  0.00000000000E+00  0.97917485917E+03  0.97917485917E+03  0.00000000000E+00 0.  1.
         -2   -1    0    0    0  501 -0.00000000000E+00 -0.00000000000E+00 -0.23594156226E+02  0.23594156226E+02  0.00000000000E+00 0. -1.
         25    2    1    2    0    0  0.83994877388E+02 -0.43407306156E+02  0.66415000284E+03  0.68240881110E+03  0.12508887056E+03 0.  0.
          5    1    3    3  502    0 -0.36863130549E+01 -0.22797088471E+02  0.16929151857E+02  0.28937255041E+02  0.41800000000E+01 0. -1.
         -5    1    3    3    0  502  0.87681190442E+02 -0.20610217685E+02  0.64722085098E+03  0.65347155606E+03  0.41800000000E+01 0. -1.
        -11    1    1    2    0    0  0.14978372029E+01  0.37234998124E+02  0.15355735499E+03  0.15801439767E+03  0.00000000000E+00 0.  1.
         11    1    1    2    0    0 -0.85492714590E+02  0.61723080315E+01  0.13787334512E+03  0.16234580663E+03  0.00000000000E+00 0. -1.
</event>
<event>
 7    1  0.2490079E-009  0.9538650E+02  0.7561462E-02  0.1290308E+00
         -2   -1    0    0    0  501 -0.00000000000E+00  0.00000000000E+00  0.16816751976E+02  0.16816751976E+02  0.00000000000E+00 0.  1.
          2   -1    0    0  501    0  0.00000000000E+00 -0.00000000000E+00 -0.70818120762E+03  0.70818120762E+03  0.00000000000E+00 0. -1.
         25    2    1    2    0    0  0.29723558483E+02  0.44009102627E+02 -0.53977754463E+03  0.55662123262E+03  0.12508840022E+03 0.  0.
          5    1    3    3  502    0 -0.79943093990E+01 -0.34050679526E+02 -0.64581740802E+02  0.73563791393E+02  0.41800000000E+01 0. -1.
         -5    1    3    3    0  502  0.37717867881E+02  0.78059782153E+02 -0.47519580383E+03  0.48305744122E+03  0.41800000000E+01 0. -1.
        -11    1    1    2    0    0  0.95963386799E+01 -0.21260296832E+02 -0.26536261732E+02  0.35330767387E+02  0.00000000000E+00 0.  1.
         11    1    1    2    0    0 -0.39319897162E+02 -0.22748805795E+02 -0.12505064928E+03  0.13304595959E+03  0.00000000000E+00 0. -1.
</event>
<event>
 7    1  0.2490079E-009  0.1004352E+03  0.7561462E-02  0.1279383E+00
         -1   -1    0    0    0  501 -0.00000000000E+00  0.00000000000E+00  0.17332486757E+02  0.17332486757E+02  0.00000000000E+00 0.  1.
          1   -1    0    0  501    0  0.00000000000E+00 -0.00000000000E+00 -0.70508672658E+03  0.70508672658E+03  0.00000000000E+00 0. -1.
         25    2    1    2    0    0  0.18061563566E+02 -0.13284392848E+02 -0.48014252681E+03  0.49667518071E+03  0.12508674553E+03 0.  0.
          5    1    3    3  502    0 -0.33144476995E+02  0.31140173906E+02 -0.92870018171E+02  0.10349192945E+03  0.41800000000E+01 0. -1.
         -5    1    3    3    0  502  0.51206040561E+02 -0.44424566754E+02 -0.38727250864E+03  0.39318325126E+03  0.41800000000E+01 0. -1.
        -11    1    1    2    0    0 -0.51131170584E+02  0.17276993634E+02 -0.14680329309E+03  0.15641003158E+03  0.00000000000E+00 0.  1.
         11    1    1    2    0    0  0.33069607018E+02 -0.39926007865E+01 -0.60808419921E+02  0.69334001057E+02  0.00000000000E+00 0. -1.
</event>
<event>
 7    1  0.2490079E-009  0.1010660E+03  0.7561462E-02  0.1278070E+00
         -2   -1    0    0    0  501 -0.00000000000E+00  0.00000000000E+00  0.68117203114E+02  0.68117203114E+02  0.00000000000E+00 0.  1.
          2   -1    0    0  501    0  0.00000000000E+00 -0.00000000000E+00 -0.21290226915E+03  0.21290226915E+03  0.00000000000E+00 0. -1.
         25    2    1    2    0    0 -0.25340846485E+02  0.39531761539E+02 -0.10099330952E+03  0.16748528032E+03  0.12508697728E+03 0.  0.
          5    1    3    3  502    0 -0.37914048354E+02 -0.21165539567E+02 -0.95651817206E+02  0.10512943290E+03  0.41800000000E+01 0. -1.
         -5    1    3    3    0  502  0.12573201869E+02  0.60697301105E+02 -0.53414923175E+01  0.62355847415E+02  0.41800000000E+01 0. -1.
        -11    1    1    2    0    0 -0.95495525133E+01  0.22928792526E+02  0.69856577926E+01  0.25801606437E+02  0.00000000000E+00 0.  1.
         11    1    1    2    0    0  0.34890398998E+02 -0.62460554065E+02 -0.50777414302E+02  0.87732585506E+02  0.00000000000E+00 0. -1.
</event>
<event>
 7    1  0.2490079E-009  0.8627448E+02  0.7561462E-02  0.1312133E+00
          2   -1    0    0  501    0  0.00000000000E+00  0.00000000000E+00  0.62844797174E+02  0.62844797174E+02  0.00000000000E+00 0. -1.
         -2   -1    0    0    0  501 -0.00000000000E+00 -0.00000000000E+00 -0.16382928184E+03  0.16382928184E+03  0.00000000000E+00 0.  1.
         25    2    1    2    0    0  0.74116322507E+01 -0.10155773794E+02 -0.20867826780E+02  0.12744020182E+03  0.12508983496E+03 0.  0.
          5    1    3    3  502    0  0.60925747096E+02  0.19708322478E+02 -0.13492085889E+02  0.65573420040E+02  0.41800000000E+01 0.  1.
         -5    1    3    3    0  502 -0.53514114845E+02 -0.29864096272E+02 -0.73757408910E+01  0.61866781777E+02  0.41800000000E+01 0.  1.
        -11    1    1    2    0    0  0.28115900319E+01  0.27055784628E+02 -0.73550689532E+02  0.78419541257E+02  0.00000000000E+00 0.  1.
         11    1    1    2    0    0 -0.10223222283E+02 -0.16900010835E+02 -0.65659683500E+01  0.20814335935E+02  0.00000000000E+00 0. -1.
</event>
<event>
 7    1  0.2546138E-009  0.1340780E+03  0.7561462E-02  0.1221527E+00
         -1   -1    0    0    0  501 -0.00000000000E+00  0.00000000000E+00  0.10327428589E+02  0.10327428589E+02  0.00000000000E+00 0.  1.
          1   -1    0    0  501    0  0.00000000000E+00 -0.00000000000E+00 -0.17752843763E+04  0.17752843763E+04  0.00000000000E+00 0. -1.
         25    2    1    2    0    0 -0.72914138654E+02  0.33773168230E+02 -0.10579327135E+04  0.10683290136E+04  0.12509259097E+03 0.  0.
          5    1    3    3  502    0 -0.29133492243E+01 -0.42999131274E+02 -0.38187381267E+03  0.38432082184E+03  0.41800000000E+01 0. -1.
         -5    1    3    3    0  502 -0.70000789430E+02  0.76772299504E+02 -0.67605890086E+03  0.68400819171E+03  0.41800000000E+01 0. -1.
        -11    1    1    2    0    0  0.86278477326E+02 -0.18819115028E+01 -0.50512363386E+03  0.51244258481E+03  0.00000000000E+00 0.  1.
         11    1    1    2    0    0 -0.13364338672E+02 -0.31891256727E+02 -0.20190060034E+03  0.20484020655E+03  0.00000000000E+00 0. -1.
</event>
<event>
 7    1  0.2490079E-009  0.1217489E+03  0.7561462E-02  0.1240239E+00
         -2   -1    0    0    0  501 -0.00000000000E+00  0.00000000000E+00  0.32114211930E+02  0.32114211930E+02  0.00000000000E+00 0.  1.
          2   -1    0    0  501    0  0.00000000000E+00 -0.00000000000E+00 -0.63825464884E+03  0.63825464884E+03  0.00000000000E+00 0. -1.
         25    2    1    2    0    0 -0.60093046688E+02  0.58606407441E+02 -0.43800642487E+03  0.46318848995E+03  0.12509222096E+03 0.  0.
          5    1    3    3  502    0  0.99839604976E+00 -0.29229654398E+02 -0.20046020654E+03  0.20262560622E+03  0.41800000000E+01 0.  1.
         -5    1    3    3    0  502 -0.61091442738E+02  0.87836061839E+02 -0.23754621833E+03  0.26056288373E+03  0.41800000000E+01 0.  1.
        -11    1    1    2    0    0 -0.12638067200E+02  0.12307068730E+01  0.18663153030E+01  0.12834271103E+02  0.00000000000E+00 0.  1.
         11    1    1    2    0    0  0.72731113888E+02 -0.59837114314E+02 -0.17000032734E+03  0.19434609971E+03  0.00000000000E+00 0. -1.
</event>
<event>
 7    1  0.2490079E-009  0.9192371E+02  0.7561462E-02  0.1298259E+00
         -2   -1    0    0    0  501 -0.00000000000E+00  0.00000000000E+00  0.10513290691E+02  0.10513290691E+02  0.00000000000E+00 0. -1.
          2   -1    0    0  501    0  0.00000000000E+00 -0.00000000000E+00 -0.13692970696E+04  0.13692970696E+04  0.00000000000E+00 0.  1.
         25    2    1    2    0    0 -0.29676915313E+02 -0.20337159770E+02 -0.10088363911E+04  0.10171986166E+04  0.12509133601E+03 0.  0.
          5    1    3    3  502    0  0.28816692812E+02 -0.30643563252E+02 -0.76613574349E+03  0.76730103584E+03  0.41800000000E+01 0. -1.
         -5    1    3    3    0  502 -0.58493608125E+02  0.10306403482E+02 -0.24270064758E+03  0.24989758078E+03  0.41800000000E+01 0. -1.
        -11    1    1    2    0    0  0.52779492113E+02  0.25102868497E+02 -0.31546225101E+03  0.32083057929E+03  0.00000000000E+00 0.  1.
         11    1    1    2    0    0 -0.23102576799E+02 -0.47657087276E+01 -0.34485136810E+02  0.41781164359E+02  0.00000000000E+00 0. -1.
</event>
<event>
 7    1  0.2490079E-009  0.1179315E+03  0.7561462E-02  0.1246549E+00
          1   -1    0    0  501    0  0.00000000000E+00  0.00000000000E+00  0.23245884108E+03  0.23245884108E+03  0.00000000000E+00 0. -1.
         -1   -1    0    0    0  501 -0.00000000000E+00 -0.00000000000E+00 -0.77726461057E+02  0.77726461057E+02  0.00000000000E+00 0.  1.
         25    2    1    2    0    0  0.15245375391E+02 -0.79083374763E+02  0.11629791004E+03  0.18883867126E+03  0.12509291846E+03 0.  0.
          5    1    3    3  502    0  0.21931104084E+02 -0.11214547883E+03  0.95585286245E+02  0.14903556990E+03  0.41800000000E+01 0. -1.
         -5    1    3    3    0  502 -0.66857286930E+01  0.33062104069E+02  0.20712623796E+02  0.39803101363E+02  0.41800000000E+01 0. -1.
        -11    1    1    2    0    0  0.11105247214E+02  0.25610669819E+02 -0.22684526099E+02  0.35969718495E+02  0.00000000000E+00 0.  1.
         11    1    1    2    0    0 -0.26350622605E+02  0.53472704944E+02  0.61118996086E+02  0.85376912384E+02  0.00000000000E+00 0. -1.
</event>
<event>
 7    1  0.2490079E-009  0.1995038E+03  0.7561462E-02  0.1150158E+00
          1   -1    0    0  501    0  0.00000000000E+00  0.00000000000E+00  0.81038568768E+03  0.81038568768E+03  0.00000000000E+00 0.  1.
         -1   -1    0    0    0  501 -0.00000000000E+00 -0.00000000000E+00 -0.90997739718E+02  0.90997739718E+02  0.00000000000E+00 0. -1.
         25    2    1    2    0    0  0.74134086951E+02 -0.17823186897E+03  0.63078864152E+03  0.67141852608E+03  0.12508423130E+03 0.  0.
          5    1    3    3  502    0  0.50196844803E+02 -0.46481674351E+02  0.83788239926E+02  0.10825068512E+03  0.41800000000E+01 0.  1.
         -5    1    3    3    0  502  0.23937242149E+02 -0.13175019462E+03  0.54700040160E+03  0.56316784096E+03  0.41800000000E+01 0.  1.
        -11    1    1    2    0    0 -0.72092598877E+02  0.13354462231E+03  0.27488372175E+02  0.15423073483E+03  0.00000000000E+00 0. -1.
         11    1    1    2    0    0 -0.20414880738E+01  0.44687246661E+02  0.61110934267E+02  0.75734166495E+02  0.00000000000E+00 0.  1.
</event>
<event>
 7    1  0.2490079E-009  0.1134105E+03  0.7561462E-02  0.1254381E+00
         -2   -1    0    0    0  501 -0.00000000000E+00  0.00000000000E+00  0.42402504997E+03  0.42402504997E+03  0.00000000000E+00 0.  1.
          2   -1    0    0  501    0  0.00000000000E+00 -0.00000000000E+00 -0.54645216869E+02  0.54645216869E+02  0.00000000000E+00 0. -1.
         25    2    1    2    0    0 -0.59417189856E+02  0.28803828699E+02  0.33093427871E+03  0.35989628324E+03  0.12509106631E+03 0.  0.
          5    1    3    3  502    0  0.28403075868E+02  0.28222776068E+00  0.18457106849E+03  0.18679070131E+03  0.41800000000E+01 0. -1.
         -5    1    3    3    0  502 -0.87820265724E+02  0.28521600938E+02  0.14636321021E+03  0.17310558193E+03  0.41800000000E+01 0. -1.
        -11    1    1    2    0    0  0.36488941281E+02 -0.58020769928E+02  0.43667430770E+02  0.81269287489E+02  0.00000000000E+00 0.  1.
         11    1    1    2    0    0  0.22928248575E+02  0.29216941230E+02 -0.52218763726E+01  0.37504696111E+02  0.00000000000E+00 0. -1.
</event>
<event>
 7    1  0.2490079E-009  0.1077262E+03  0.7561462E-02  0.1264839E+00
          3   -1    0    0  501    0  0.00000000000E+00  0.00000000000E+00  0.81077335176E+02  0.81077335176E+02  0.00000000000E+00 0. -1.
         -3   -1    0    0    0  501 -0.00000000000E+00 -0.00000000000E+00 -0.29443069178E+03  0.29443069178E+03  0.00000000000E+00 0.  1.
         25    2    1    2    0    0 -0.26116200523E+02 -0.88811469788E+02 -0.42628870725E+02  0.16135242792E+03  0.12509137572E+03 0.  0.
          5    1    3    3  502    0 -0.49236715095E+02 -0.49066679752E+02 -0.76981229130E+02  0.10380450478E+03  0.41800000000E+01 0. -1.
         -5    1    3    3    0  502  0.23120514572E+02 -0.39744790037E+02  0.34352358405E+02  0.57547923135E+02  0.41800000000E+01 0. -1.
        -11    1    1    2    0    0  0.32394109914E+02  0.45340602682E+02 -0.15931043200E+03  0.16877488662E+03  0.00000000000E+00 0.  1.
         11    1    1    2    0    0 -0.62779093914E+01  0.43470867106E+02 -0.11414053873E+02  0.45380712413E+02  0.00000000000E+00 0. -1.
</event>
<event>
 7    1  0.2490079E-009  0.1031752E+03  0.7561462E-02  0.1273757E+00
          4   -1    0    0  501    0  0.00000000000E+00  0.00000000000E+00  0.13538268401E+03  0.13538268401E+03  0.00000000000E+00 0. -1.
         -4   -1    0    0    0  501 -0.00000000000E+00 -0.00000000000E+00 -0.13450948296E+03  0.13450948296E+03  0.00000000000E+00 0.  1.
         25    2    1    2    0    0 -0.93689560484E+01  0.57067054137E+02 -0.56058469282E+02  0.14877521857E+03  0.12508831950E+03 0.  0.
          5    1    3    3  502    0 -0.47165204453E+02  0.55519763502E+02 -0.76378489899E+02  0.10563212944E+03  0.41800000000E+01 0.  1.
         -5    1    3    3    0  502  0.37796248405E+02  0.15472906351E+01  0.20320020617E+02  0.43143089130E+02  0.41800000000E+01 0.  1.
        -11    1    1    2    0    0 -0.20881348402E+02 -0.61317756537E+02  0.10623882714E+02  0.65641182666E+02  0.00000000000E+00 0.  1.
         11    1    1    2    0    0  0.30250304450E+02  0.42507024001E+01  0.46307787616E+02  0.55475765737E+02  0.00000000000E+00 0. -1.
</event>
<event>
 7    1  0.2490079E-009  0.1129031E+03  0.7561462E-02  0.1255286E+00
         -2   -1    0    0    0  501 -0.00000000000E+00  0.00000000000E+00  0.39174875777E+02  0.39174875777E+02  0.00000000000E+00 0.  1.
          2   -1    0    0  501    0  0.00000000000E+00 -0.00000000000E+00 -0.46134340014E+03  0.46134340014E+03  0.00000000000E+00 0. -1.
         25    2    1    2    0    0  0.85122511304E+01  0.27327858542E+02 -0.36521664391E+03  0.38710413580E+03  0.12508854741E+03 0.  0.
          5    1    3    3  502    0  0.72417654213E+01 -0.49791956704E+02 -0.16282531739E+03  0.17047357127E+03  0.41800000000E+01 0.  1.
         -5    1    3    3    0  502  0.12704857091E+01  0.77119815246E+02 -0.20239132652E+03  0.21663056453E+03  0.41800000000E+01 0.  1.
        -11    1    1    2    0    0 -0.20218173728E+02  0.31863073419E+02 -0.21408933878E+02  0.43386316349E+02  0.00000000000E+00 0.  1.
         11    1    1    2    0    0  0.11705922597E+02 -0.59190931960E+02 -0.35542946570E+02  0.70027823763E+02  0.00000000000E+00 0. -1.
</event>
<event>
 7    1  0.2490079E-009  0.1025453E+03  0.7561462E-02  0.1275033E+00
         -1   -1    0    0    0  501 -0.00000000000E+00  0.00000000000E+00  0.13355538695E+03  0.13355538695E+03  0.00000000000E+00 0.  1.
          1   -1    0    0  501    0  0.00000000000E+00 -0.00000000000E+00 -0.93829161100E+02  0.93829161100E+02  0.00000000000E+00 0. -1.
         25    2    1    2    0    0 -0.68693747154E+01  0.17419109305E+02  0.12796351148E+02  0.12712786107E+03  0.12508849979E+03 0.  0.
          5    1    3    3  502    0  0.48071372107E+02 -0.26420839873E+02  0.13765967735E+02  0.56708834087E+02  0.41800000000E+01 0. -1.
         -5    1    3    3    0  502 -0.54940746822E+02  0.43839949178E+02 -0.96961658636E+00  0.70419026986E+02  0.41800000000E+01 0. -1.
        -11    1    1    2    0    0 -0.11808604344E+02  0.28090854193E+02  0.39108020743E+02  0.49577984149E+02  0.00000000000E+00 0.  1.
         11    1    1    2    0    0  0.18677979059E+02 -0.45509963498E+02 -0.12178146041E+02  0.50678702828E+02  0.00000000000E+00 0. -1.
</event>
<event>
 7    1  0.2490079E-009  0.1896206E+03  0.7561462E-02  0.1158804E+00
          1   -1    0    0  501    0  0.00000000000E+00  0.00000000000E+00  0.42409365366E+03  0.42409365366E+03  0.00000000000E+00 0. -1.
         -1   -1    0    0    0  501 -0.00000000000E+00 -0.00000000000E+00 -0.95265698421E+02  0.95265698421E+02  0.00000000000E+00 0.  1.
         25    2    1    2    0    0  0.13522861536E+03  0.95543093728E+02  0.13201548915E+03  0.24594870661E+03  0.12508963081E+03 0.  0.
          5    1    3    3  502    0  0.45433047510E+02 -0.26625923417E+02  0.16664480329E+02  0.55392047339E+02  0.41800000000E+01 0.  1.
         -5    1    3    3    0  502  0.89795567849E+02  0.12216901715E+03  0.11535100882E+03  0.19055665927E+03  0.41800000000E+01 0.  1.
        -11    1    1    2    0    0 -0.32268139485E+02  0.27588687491E+01  0.89386509830E+02  0.95072563456E+02  0.00000000000E+00 0. -1.
         11    1    1    2    0    0 -0.10296047587E+03 -0.98301962477E+02  0.10742595626E+03  0.17833808202E+03  0.00000000000E+00 0.  1.
</event>
<event>
 7    1  0.2490079E-009  0.1452327E+03  0.7561462E-02  0.1206457E+00
         -2   -1    0    0    0  501 -0.00000000000E+00  0.00000000000E+00  0.85120604782E+02  0.85120604782E+02  0.00000000000E+00 0.  1.
          2   -1    0    0  501    0  0.00000000000E+00 -0.00000000000E+00 -0.32872986103E+03  0.32872986103E+03  0.00000000000E+00 0. -1.
         25    2    1    2    0    0 -0.39268031813E+02  0.10735624710E+03 -0.61703600091E+02  0.18034045419E+03  0.12509197832E+03 0.  0.
          5    1    3    3  502    0 -0.60673234063E+02  0.16836971818E+02 -0.60207397306E+02  0.87218851414E+02  0.41800000000E+01 0.  1.
         -5    1    3    3    0  502  0.21405202249E+02  0.90519275283E+02 -0.14962027849E+01  0.93121602778E+02  0.41800000000E+01 0.  1.
        -11    1    1    2    0    0  0.59740087045E+02 -0.73879361674E+02 -0.16579932293E+03  0.19109278784E+03  0.00000000000E+00 0. -1.
         11    1    1    2    0    0 -0.20472055231E+02 -0.33476885427E+02 -0.16106333234E+02  0.42417223784E+02  0.00000000000E+00 0.  1.
</event>
<event>
 7    1  0.2490079E-009  0.8340219E+02  0.7561462E-02  0.1319665E+00
         -3   -1    0    0    0  501 -0.00000000000E+00  0.00000000000E+00  0.45845149328E+02  0.45845149328E+02  0.00000000000E+00 0.  1.
          3   -1    0    0  501    0  0.00000000000E+00 -0.00000000000E+00 -0.25592957312E+03  0.25592957312E+03  0.00000000000E+00 0. -1.
         25    2    1    2    0    0  0.53857513236E+01  0.35089667923E+01 -0.12919694555E+03  0.17994642470E+03  0.12509015093E+03 0.  0.
          5    1    3    3  502    0 -0.28386778665E+02  0.55438165366E+02 -0.54968464432E+02  0.83175740839E+02  0.41800000000E+01 0.  1.
         -5    1    3    3    0  502  0.33772529989E+02 -0.51929198574E+02 -0.74228481121E+02  0.96770683866E+02  0.41800000000E+01 0.  1.
        -11    1    1    2    0    0 -0.28005253228E+01 -0.22729425331E+02 -0.95078166125E+02  0.97797379268E+02  0.00000000000E+00 0. -1.
         11    1    1    2    0    0 -0.25852260008E+01  0.19220458538E+02  0.14190687889E+02  0.24030918473E+02  0.00000000000E+00 0.  1.
</event>
<event>
 7    1  0.2490079E-009  0.1173321E+03  0.7561462E-02  0.1247564E+00
          2   -1    0    0  501    0  0.00000000000E+00  0.00000000000E+00  0.64778531893E+03  0.64778531893E+03  0.00000000000E+00 0. -1.
         -2   -1    0    0    0  501 -0.00000000000E+00 -0.00000000000E+00 -0.36110170609E+02  0.36110170609E+02  0.00000000000E+00 0.  1.
         25    2    1    2    0    0 -0.11728162235E+02  0.83241636198E+02  0.47650751076E+03  0.49977316332E+03  0.12508831751E+03 0.  0.
          5    1    3    3  502    0 -0.43183115942E+02 -0.13016232735E+01  0.28206313011E+03  0.28538317661E+03  0.41800000000E+01 0. -1.
         -5    1    3    3    0  502  0.31454953707E+02  0.84543259472E+02  0.19444438065E+03  0.21438998671E+03  0.41800000000E+01 0. -1.
        -11    1    1    2    0    0  0.19203285781E+02 -0.19264911860E+01 -0.67021982621E+01  0.20430296489E+02  0.00000000000E+00 0.  1.
         11    1    1    2    0    0 -0.74751235456E+01 -0.81315145012E+02  0.14186983583E+03  0.16369202973E+03  0.00000000000E+00 0. -1.
</event>
<event>
 7    1  0.2490079E-009  0.1492420E+03  0.7561462E-02  0.1201408E+00
         -1   -1    0    0    0  501 -0.00000000000E+00  0.00000000000E+00  0.98130276697E+03  0.98130276697E+03  0.00000000000E+00 0.  1.
          1   -1    0    0  501    0  0.00000000000E+00 -0.00000000000E+00 -0.31303593313E+02  0.31303593313E+02  0.00000000000E+00 0. -1.
         25    2    1    2    0    0  0.11772763174E+03 -0.10342278286E+02  0.30870617355E+03  0.35343120027E+03  0.12508938302E+03 0.  0.
          5    1    3    3  502    0  0.44176024093E+02 -0.49643187610E+02  0.22716773051E+03  0.23672477134E+03  0.41800000000E+01 0. -1.
         -5    1    3    3    0  502  0.73551607642E+02  0.39300909325E+02  0.81538443037E+02  0.11670642893E+03  0.41800000000E+01 0. -1.
        -11    1    1    2    0    0 -0.10482561203E+03  0.42989209982E+02  0.54577579578E+03  0.55741160768E+03  0.00000000000E+00 0.  1.
         11    1    1    2    0    0 -0.12902019702E+02 -0.32646931696E+02  0.95517204329E+02  0.10176355234E+03  0.00000000000E+00 0. -1.
</event>
<event>
 7    1  0.2490079E-009  0.1072356E+03  0.7561462E-02  0.1265776E+00
          1   -1    0    0  501    0  0.00000000000E+00  0.00000000000E+00  0.20673950725E+02  0.20673950725E+02  0.00000000000E+00 0. -1.
         -1   -1    0    0    0  501 -0.00000000000E+00 -0.00000000000E+00 -0.10173711210E+04  0.10173711210E+04  0.00000000000E+00 0.  1.
         25    2    1    2    0    0 -0.36238324029E+02  0.88170664664E+02 -0.60896862562E+03  0.62894986519E+03  0.12509142136E+03 0.  0.
          5    1    3    3  502    0 -0.11582296468E+00  0.66861421677E+02 -0.11427469617E+03  0.13246373733E+03  0.41800000000E+01 0. -1.
         -5    1    3    3    0  502 -0.36122501064E+02  0.21309242987E+02 -0.49469392945E+03  0.49648612786E+03  0.41800000000E+01 0. -1.
        -11    1    1    2    0    0  0.25131304426E+00 -0.59017407388E+02 -0.32925258891E+03  0.33450020155E+03  0.00000000000E+00 0.  1.
         11    1    1    2    0    0  0.35987010984E+02 -0.29153257276E+02 -0.58475955777E+02  0.74595005017E+02  0.00000000000E+00 0. -1.
</event>
<event>
 7    1  0.2490079E-009  0.1052847E+03  0.7561462E-02  0.1269560E+00
         -2   -1    0    0    0  501 -0.00000000000E+00  0.00000000000E+00  0.17987112167E+03  0.17987112167E+03  0.00000000000E+00 0.  1.
          2   -1    0    0  501    0  0.00000000000E+00 -0.00000000000E+00 -0.92434223153E+02  0.92434223153E+02  0.00000000000E+00 0. -1.
         25    2    1    2    0    0  0.39126244030E+02  0.57039271212E+02  0.46239647680E+02  0.15023084127E+03  0.12508740631E+03 0.  0.
          5    1    3    3  502    0  0.82361375519E+02  0.50284068927E+02  0.44208745330E+02  0.10622508804E+03  0.41800000000E+01 0.  1.
         -5    1    3    3    0  502 -0.43235131489E+02  0.67552022845E+01  0.20309023500E+01  0.44005753227E+02  0.41800000000E+01 0.  1.
        -11    1    1    2    0    0 -0.13078041215E+02 -0.10845309023E+02  0.62616346191E+02  0.64880372226E+02  0.00000000000E+00 0.  1.
         11    1    1    2    0    0 -0.26048202815E+02 -0.46193962188E+02 -0.21419095356E+02  0.57194131328E+02  0.00000000000E+00 0. -1.
</event>
<event>
 7    1  0.2490079E-009  0.1457025E+03  0.7561462E-02  0.1205855E+00
          1   -1    0    0  501    0  0.00000000000E+00  0.00000000000E+00  0.64770741062E+03  0.64770741062E+03  0.00000000000E+00 0. -1.
         -1   -1    0    0    0  501 -0.00000000000E+00 -0.00000000000E+00 -0.50492504989E+02  0.50492504989E+02  0.00000000000E+00 0.  1.
         25    2    1    2    0    0  0.13259744242E+03 -0.52547022792E+02  0.34263995978E+03  0.39165411979E+03  0.12509011220E+03 0.  0.
          5    1    3    3  502    0  0.43853516778E+02 -0.39044574910E+02  0.26931221363E+03  0.27567036578E+03  0.41800000000E+01 0. -1.
         -5    1    3    3    0  502  0.88743925644E+02 -0.13502447882E+02  0.73327746159E+02  0.11598375401E+03  0.41800000000E+01 0. -1.
        -11    1    1    2    0    0 -0.52922847694E+02  0.22921610612E+02  0.27131063554E+02  0.63736352662E+02  0.00000000000E+00 0.  1.
         11    1    1    2    0    0 -0.79674594728E+02  0.29625412181E+02  0.22744388229E+03  0.24280944315E+03  0.00000000000E+00 0. -1.
</event>
<event>
 7    1  0.2490079E-009  0.2601271E+03  0.7561462E-02  0.1107067E+00
         -2   -1    0    0    0  501 -0.00000000000E+00  0.00000000000E+00  0.11178517030E+03  0.11178517030E+03  0.00000000000E+00 0.  1.
          2   -1    0    0  501    0  0.00000000000E+00 -0.00000000000E+00 -0.70684097394E+03  0.70684097394E+03  0.00000000000E+00 0. -1.
         25    2    1    2    0    0  0.12898635810E+03 -0.19925473171E+03 -0.15425426307E+03  0.30948538641E+03  0.12508756148E+03 0.  0.
          5    1    3    3  502    0  0.15308560747E+03 -0.17511067582E+03 -0.14411653853E+03  0.27365306700E+03  0.41800000000E+01 0. -1.
         -5    1    3    3    0  502 -0.24099249369E+02 -0.24144055898E+02 -0.10137724544E+02  0.35832319410E+02  0.41800000000E+01 0. -1.
        -11    1    1    2    0    0  0.13511140343E+02  0.13063043771E+02 -0.49817380271E+02  0.53244393161E+02  0.00000000000E+00 0. -1.
         11    1    1    2    0    0 -0.14249749844E+03  0.18619168794E+03 -0.39098416029E+03  0.45589636467E+03  0.00000000000E+00 0.  1.
</event>
<event>
 7    1  0.2490079E-009  0.7855088E+02  0.7561462E-02  0.1333215E+00
         -2   -1    0    0    0  501 -0.00000000000E+00  0.00000000000E+00  0.50562941376E+02  0.50562941376E+02  0.00000000000E+00 0. -1.
          2   -1    0    0  501    0  0.00000000000E+00 -0.00000000000E+00 -0.23628567367E+03  0.23628567367E+03  0.00000000000E+00 0.  1.
         25    2    1    2    0    0 -0.12802917362E+02 -0.14505461006E+02 -0.11654812689E+03  0.17206432899E+03  0.12509334249E+03 0.  0.
          5    1    3    3  502    0 -0.34105016375E+02  0.25770403696E+02 -0.11872880794E+03  0.12625873468E+03  0.41800000000E+01 0. -1.
         -5    1    3    3    0  502  0.21302099013E+02 -0.40275864703E+02  0.21806810487E+01  0.45805594306E+02  0.41800000000E+01 0. -1.
        -11    1    1    2    0    0 -0.24367574267E+02 -0.71297620198E+01 -0.67080899663E+02  0.71724886070E+02  0.00000000000E+00 0.  1.
         11    1    1    2    0    0  0.37170491630E+02  0.21635223026E+02 -0.20937057375E+01  0.43059399985E+02  0.00000000000E+00 0. -1.
</event>
<event>
 7    1  0.2490079E-009  0.1095389E+03  0.7561462E-02  0.1261426E+00
         -2   -1    0    0    0  501 -0.00000000000E+00  0.00000000000E+00  0.48198613691E+02  0.48198613691E+02  0.00000000000E+00 0.  1.
          2   -1    0    0  501    0  0.00000000000E+00 -0.00000000000E+00 -0.37384375935E+03  0.37384375935E+03  0.00000000000E+00 0. -1.
         25    2    1    2    0    0  0.56721968535E+01  0.78466901630E+02 -0.16069149310E+03  0.21830872389E+03  0.12509082503E+03 0.  0.
          5    1    3    3  502    0 -0.29686644338E+02  0.28254582588E+02  0.50516640781E+01  0.41504337114E+02  0.41800000000E+01 0.  1.
         -5    1    3    3    0  502  0.35358841192E+02  0.50212319042E+02 -0.16574315718E+03  0.17680438678E+03  0.41800000000E+01 0.  1.
        -11    1    1    2    0    0 -0.44835946885E+02 -0.29697819124E+02 -0.10010300563E+03  0.11363465286E+03  0.00000000000E+00 0. -1.
         11    1    1    2    0    0  0.39163750031E+02 -0.48769082506E+02 -0.64850646929E+02  0.90098996288E+02  0.00000000000E+00 0.  1.
</event>
<event>
 7    1  0.2490079E-009  0.1028590E+03  0.7561462E-02  0.1274396E+00
         -4   -1    0    0    0  501 -0.00000000000E+00  0.00000000000E+00  0.39614013783E+03  0.39614013783E+03  0.00000000000E+00 0.  1.
          4   -1    0    0  501    0  0.00000000000E+00 -0.00000000000E+00 -0.34891359296E+02  0.34891359296E+02  0.00000000000E+00 0. -1.
         25    2    1    2    0    0  0.26479414613E+00 -0.19600254002E+02  0.12440861866E+03  0.17750652294E+03  0.12508725442E+03 0.  0.
          5    1    3    3  502    0  0.33567574610E+02  0.37826898352E+02  0.21813262022E+02  0.55235379099E+02  0.41800000000E+01 0.  1.
         -5    1    3    3    0  502 -0.33302780464E+02 -0.57427152354E+02  0.10259535663E+03  0.12227114384E+03  0.41800000000E+01 0.  1.
        -11    1    1    2    0    0 -0.43195003104E+02  0.73857320007E+01  0.90894707272E+02  0.10090691324E+03  0.00000000000E+00 0.  1.
         11    1    1    2    0    0  0.42930208957E+02  0.12214522001E+02  0.14594545260E+03  0.15261806094E+03  0.00000000000E+00 0. -1.
</event>
<event>
 7    1  0.2490079E-009  0.1034067E+03  0.7561462E-02  0.1273291E+00
          1   -1    0    0  501    0  0.00000000000E+00  0.00000000000E+00  0.46850122768E+03  0.46850122768E+03  0.00000000000E+00 0. -1.
         -1   -1    0    0    0  501 -0.00000000000E+00 -0.00000000000E+00 -0.46205848794E+02  0.46205848794E+02  0.00000000000E+00 0.  1.
         25    2    1    2    0    0  0.32002497126E+02 -0.36144771351E+01  0.40160590292E+03  0.42186735163E+03  0.12509011487E+03 0.  0.
          5    1    3    3  502    0  0.13094968049E+02  0.56999144655E+02  0.12545789320E+03  0.13848298107E+03  0.41800000000E+01 0. -1.
         -5    1    3    3    0  502  0.18907529078E+02 -0.60613621790E+02  0.27614800972E+03  0.28338437055E+03  0.41800000000E+01 0. -1.
        -11    1    1    2    0    0 -0.51356489215E+02  0.23783020077E+02 -0.23071841351E+01  0.56643129567E+02  0.00000000000E+00 0.  1.
         11    1    1    2    0    0  0.19353992089E+02 -0.20168542942E+02  0.22996660099E+02  0.36196595280E+02  0.00000000000E+00 0. -1.
</event>
<event>
 7    1  0.2679743E-009  0.1325234E+03  0.7561462E-02  0.1223759E+00
         -2   -1    0    0    0  501 -0.00000000000E+00  0.00000000000E+00  0.36552204401E+02  0.36552204401E+02  0.00000000000E+00 0.  1.
          2   -1    0    0  501    0  0.00000000000E+00 -0.00000000000E+00 -0.75494437759E+03  0.75494437759E+03  0.00000000000E+00 0. -1.
         25    2    1    2    0    0  0.91339234635E+02 -0.79178558355E+02 -0.46530149334E+03  0.49675436763E+03  0.12508925680E+03 0.  0.
          5    1    3    3  502    0  0.60579119817E+01 -0.30919257960E+02 -0.13673868501E+02  0.34599796100E+02  0.41800000000E+01 0.  1.
         -5    1    3    3    0  502  0.85281322653E+02 -0.48259300395E+02 -0.45162762484E+03  0.46215457153E+03  0.41800000000E+01 0.  1.
        -11    1    1    2    0    0  0.49156957633E+01  0.23454463992E+02 -0.11480394687E+03  0.11727839597E+03  0.00000000000E+00 0.  1.
         11    1    1    2    0    0 -0.96254930398E+02  0.55724094362E+02 -0.13828673299E+03  0.17746381839E+03  0.00000000000E+00 0. -1.
</event>
<event>
 7    1  0.2490079E-009  0.1651212E+03  0.7561462E-02  0.1183033E+00
          2   -1    0    0  501    0  0.00000000000E+00  0.00000000000E+00  0.67590219676E+03  0.67590219676E+03  0.00000000000E+00 0. -1.
         -2   -1    0    0    0  501 -0.00000000000E+00 -0.00000000000E+00 -0.52899554714E+02  0.52899554714E+02  0.00000000000E+00 0.  1.
         25    2    1    2    0    0 -0.10062269286E+03 -0.81225245327E+02  0.49024103108E+03  0.52221306979E+03  0.12509098656E+03 0.  0.
          5    1    3    3  502    0 -0.61409870891E+02 -0.11333938275E+03  0.34424307490E+03  0.36761087435E+03  0.41800000000E+01 0.  1.
         -5    1    3    3    0  502 -0.39212821968E+02  0.32114137419E+02  0.14599795617E+03  0.15460219544E+03  0.41800000000E+01 0.  1.
        -11    1    1    2    0    0  0.32571404192E+02  0.75371382482E+02  0.10392887020E+03  0.13244980834E+03  0.00000000000E+00 0. -1.
         11    1    1    2    0    0  0.68051288667E+02  0.58538628451E+01  0.28832740770E+02  0.74138873338E+02  0.00000000000E+00 0.  1.
</event>
<event>
 7    1  0.2490079E-009  0.1637172E+03  0.7561462E-02  0.1184563E+00
         -2   -1    0    0    0  501 -0.00000000000E+00  0.00000000000E+00  0.29867965722E+03  0.29867965722E+03  0.00000000000E+00 0.  1.
          2   -1    0    0  501    0  0.00000000000E+00 -0.00000000000E+00 -0.95729508125E+02  0.95729508125E+02  0.00000000000E+00 0. -1.
         25    2    1    2    0    0 -0.44777617397E+02  0.12065026310E+03  0.10093317559E+03  0.20590354312E+03  0.12508893687E+03 0.  0.
          5    1    3    3  502    0 -0.44101811231E+02  0.14575663555E+03  0.75912067821E+02  0.17020599579E+03  0.41800000000E+01 0.  1.
         -5    1    3    3    0  502 -0.67580616607E+00 -0.25106372450E+02  0.25021107764E+02  0.35697547329E+02  0.41800000000E+01 0.  1.
        -11    1    1    2    0    0 -0.11794653357E+02 -0.77737093139E+02  0.22253475333E+02  0.81715278021E+02  0.00000000000E+00 0.  1.
         11    1    1    2    0    0  0.56572270754E+02 -0.42913169963E+02  0.79763498179E+02  0.10679034421E+03  0.00000000000E+00 0. -1.
</event>
<event>
 7    1  0.2747752E-009  0.1076680E+03  0.7561462E-02  0.1264950E+00
         -1   -1    0    0    0  501 -0.00000000000E+00  0.00000000000E+00  0.15456942074E+02  0.15456942074E+02  0.00000000000E+00 0.  1.
          1   -1    0    0  501    0  0.00000000000E+00 -0.00000000000E+00 -0.12143962229E+04  0.12143962229E+04  0.00000000000E+00 0. -1.
         25    2    1    2    0    0 -0.50253326405E+02 -0.20172333244E+02 -0.94561998858E+03  0.95539365189E+03  0.12509015722E+03 0.  0.
          5    1    3    3  502    0 -0.44354534994E+02  0.44744382367E+02 -0.30596093451E+03  0.31240830714E+03  0.41800000000E+01 0.  1.
         -5    1    3    3    0  502 -0.58987914111E+01 -0.64916715611E+02 -0.63965905407E+03  0.64298534475E+03  0.41800000000E+01 0.  1.
        -11    1    1    2    0    0 -0.17095708286E+02  0.28060503206E+01 -0.73034458455E+01  0.18800996820E+02  0.00000000000E+00 0.  1.
         11    1    1    2    0    0  0.67349034691E+02  0.17366282923E+02 -0.24601584639E+03  0.25565851625E+03  0.00000000000E+00 0. -1.
</event>
<event>
 7    1  0.2490079E-009  0.1441473E+03  0.7561462E-02  0.1207855E+00
          1   -1    0    0  501    0  0.00000000000E+00  0.00000000000E+00  0.27868564036E+03  0.27868564036E+03  0.00000000000E+00 0. -1.
         -1   -1    0    0    0  501 -0.00000000000E+00 -0.00000000000E+00 -0.17360818481E+03  0.17360818481E+03  0.00000000000E+00 0.  1.
         25    2    1    2    0    0 -0.79345097890E+02 -0.66102175966E+02  0.22003001037E+03  0.27336123587E+03  0.12509203647E+03 0.  0.
          5    1    3    3  502    0 -0.91698872304E+02 -0.83999585265E+01  0.17908672430E+03  0.20141690521E+03  0.41800000000E+01 0. -1.
         -5    1    3    3    0  502  0.12353774414E+02 -0.57702217440E+02  0.40943286066E+02  0.71944330656E+02  0.41800000000E+01 0. -1.
        -11    1    1    2    0    0  0.43951812189E+01 -0.21342094658E+02 -0.21584354164E+02  0.30670620584E+02  0.00000000000E+00 0.  1.
         11    1    1    2    0    0  0.74949916672E+02  0.87444270624E+02 -0.93368200653E+02  0.14826196871E+03  0.00000000000E+00 0. -1.
</event>
<event>
 7    1  0.2490079E-009  0.1074715E+03  0.7561462E-02  0.1265325E+00
         -1   -1    0    0    0  501 -0.00000000000E+00  0.00000000000E+00  0.70394992276E+02  0.70394992276E+02  0.00000000000E+00 0.  1.
          1   -1    0    0  501    0  0.00000000000E+00 -0.00000000000E+00 -0.21237474700E+03  0.21237474700E+03  0.00000000000E+00 0. -1.
         25    2    1    2    0    0  0.70235545309E+01 -0.17650153274E+02 -0.20511587061E+02  0.12817516973E+03  0.12508913103E+03 0.  0.
          5    1    3    3  502    0  0.34311855699E+02  0.44469907573E+02 -0.21233784417E+02  0.60193206608E+02  0.41800000000E+01 0.  1.
         -5    1    3    3    0  502 -0.27288301169E+02 -0.62120060847E+02  0.72219735679E+00  0.67981963118E+02  0.41800000000E+01 0.  1.
        -11    1    1    2    0    0 -0.45923710543E+02 -0.40427020243E+01 -0.37038853111E+02  0.59137190240E+02  0.00000000000E+00 0.  1.
         11    1    1    2    0    0  0.38900156013E+02  0.21692855298E+02 -0.84429314557E+02  0.95457379313E+02  0.00000000000E+00 0. -1.
</event>
<event>
 7    1  0.2490079E-009  0.8410996E+02  0.7561462E-02  0.1317777E+00
          2   -1    0    0  501    0  0.00000000000E+00  0.00000000000E+00  0.62818138070E+01  0.62818138070E+01  0.00000000000E+00 0. -1.
         -2   -1    0    0    0  501 -0.00000000000E+00 -0.00000000000E+00 -0.19273460941E+04  0.19273460941E+04  0.00000000000E+00 0.  1.
         25    2    1    2    0    0 -0.28602770423E+02  0.10293696159E+01 -0.17017882395E+04  0.17066193550E+04  0.12508889965E+03 0.  0.
          5    1    3    3  502    0 -0.44737681996E+02 -0.43449135842E+02 -0.13725511970E+04  0.13739736345E+04  0.41800000000E+01 0. -1.
         -5    1    3    3    0  502  0.16134911573E+02  0.44478505458E+02 -0.32923704247E+03  0.33264572048E+03  0.41800000000E+01 0. -1.
        -11    1    1    2    0    0  0.22625219040E+02  0.23705719001E+02 -0.13823941155E+03  0.14207039296E+03  0.00000000000E+00 0.  1.
         11    1    1    2    0    0  0.59775513833E+01 -0.24735088617E+02 -0.81036629225E+02  0.84938159891E+02  0.00000000000E+00 0. -1.
</event>
<event>
 7    1  0.2490079E-009  0.1250202E+03  0.7561462E-02  0.1235038E+00
          1   -1    0    0  501    0  0.00000000000E+00  0.00000000000E+00  0.13511859014E+03  0.13511859014E+03  0.00000000000E+00 0. -1.
         -1   -1    0    0    0  501 -0.00000000000E+00 -0.00000000000E+00 -0.15699038571E+03  0.15699038571E+03  0.00000000000E+00 0.  1.
         25    2    1    2    0    0  0.82745455560E+02 -0.44098416047E+02 -0.33611940539E+02  0.15990207509E+03  0.12508968926E+03 0.  0.
          5    1    3    3  502    0  0.97755874455E+01 -0.64645820633E+02  0.18187656196E+02  0.67991966239E+02  0.41800000000E+01 0. -1.
         -5    1    3    3    0  502  0.72969868115E+02  0.20547404585E+02 -0.51799596735E+02  0.91910108855E+02  0.41800000000E+01 0. -1.
        -11    1    1    2    0    0 -0.25614128596E+02  0.44643309516E+02  0.43011092448E+02  0.67075053052E+02  0.00000000000E+00 0. -1.
         11    1    1    2    0    0 -0.57131326965E+02 -0.54489346852E+00 -0.31270947478E+02  0.65131847708E+02  0.00000000000E+00 0.  1.
</event>
<event>
 7    1  0.2490079E-009  0.5049895E+03  0.7561462E-02  0.1012485E+00
         -1   -1    0    0    0  501 -0.00000000000E+00  0.00000000000E+00  0.64673619280E+03  0.64673619280E+03  0.00000000000E+00 0.  1.
          1   -1    0    0  501    0  0.00000000000E+00 -0.00000000000E+00 -0.40171775633E+03  0.40171775633E+03  0.00000000000E+00 0. -1.
         25    2    1    2    0    0  0.25043353691E+03 -0.42879392662E+03  0.87172509470E+02  0.51944995714E+03  0.12509206069E+03 0.  0.
          5    1    3    3  502    0  0.70421290508E+02 -0.36885968810E+02  0.26549394909E+02  0.83917075866E+02  0.41800000000E+01 0. -1.
         -5    1    3    3    0  502  0.18001224640E+03 -0.39190795781E+03  0.60623114562E+02  0.43553288127E+03  0.41800000000E+01 0. -1.
        -11    1    1    2    0    0 -0.34278554077E+02  0.98948707064E+02  0.13520768478E+01  0.10472675881E+03  0.00000000000E+00 0.  1.
         11    1    1    2    0    0 -0.21615498283E+03  0.32984521956E+03  0.15649385015E+03  0.42427723319E+03  0.00000000000E+00 0. -1.
</event>
<event>
 7    1  0.2490079E-009  0.8276472E+02  0.7561462E-02  0.1321384E+00
          2   -1    0    0  501    0  0.00000000000E+00  0.00000000000E+00  0.61031666510E+03  0.61031666510E+03  0.00000000000E+00 0.  1.
         -2   -1    0    0    0  501 -0.00000000000E+00 -0.00000000000E+00 -0.25687962641E+02  0.25687962641E+02  0.00000000000E+00 0. -1.
         25    2    1    2    0    0 -0.10134120367E+02 -0.46892207606E+02  0.43248916365E+03  0.45276484480E+03  0.12509016144E+03 0.  0.
          5    1    3    3  502    0 -0.26198117921E+02 -0.75830098581E+01  0.11953517864E+02  0.30069958604E+02  0.41800000000E+01 0. -1.
         -5    1    3    3    0  502  0.16063997554E+02 -0.39309197748E+02  0.42053564578E+03  0.42269488620E+03  0.41800000000E+01 0. -1.
        -11    1    1    2    0    0 -0.72956081806E+01 -0.22534582177E+02  0.71953158772E+02  0.75751503945E+02  0.00000000000E+00 0.  1.
         11    1    1    2    0    0  0.17429728548E+02  0.69426789783E+02  0.80186380041E+02  0.10748827899E+03  0.00000000000E+00 0. -1.
</event>
<event>
 7    1  0.2490079E-009  0.1084610E+03  0.7561462E-02  0.1263447E+00
          1   -1    0    0  501    0  0.00000000000E+00  0.00000000000E+00  0.15125260001E+03  0.15125260001E+03  0.00000000000E+00 0. -1.
         -1   -1    0    0    0  501 -0.00000000000E+00 -0.00000000000E+00 -0.86247290743E+02  0.86247290743E+02  0.00000000000E+00 0.  1.
         25    2    1    2    0    0  0.95180682530E+01  0.34320375633E+02  0.28517890530E+02  0.13315013252E+03  0.12508879208E+03 0.  0.
          5    1    3    3  502    0 -0.54803942271E+02  0.15728570790E+02  0.32831840439E+02  0.65926187317E+02  0.41800000000E+01 0.  1.
         -5    1    3    3    0  502  0.64322010524E+02  0.18591804843E+02 -0.43139499093E+01  0.67223945206E+02  0.41800000000E+01 0.  1.
        -11    1    1    2    0    0  0.38077434840E+02 -0.10811824466E+02 -0.60955998558E+00  0.39587348429E+02  0.00000000000E+00 0.  1.
         11    1    1    2    0    0 -0.47595503093E+02 -0.23508551167E+02  0.37096978721E+02  0.64762409798E+02  0.00000000000E+00 0. -1.
</event>
<event>
 7    1  0.2490079E-009  0.1702993E+03  0.7561462E-02  0.1177536E+00
          1   -1    0    0  501    0  0.00000000000E+00  0.00000000000E+00  0.10783269679E+03  0.10783269679E+03  0.00000000000E+00 0. -1.
         -1   -1    0    0    0  501 -0.00000000000E+00 -0.00000000000E+00 -0.38344737935E+03  0.38344737935E+03  0.00000000000E+00 0.  1.
         25    2    1    2    0    0  0.37405734479E+02 -0.14640603418E+03 -0.46179841776E+02  0.20153017322E+03  0.12509163488E+03 0.  0.
          5    1    3    3  502    0 -0.34993872662E+02 -0.12888621479E+02 -0.31293830732E+02  0.48861681606E+02  0.41800000000E+01 0.  1.
         -5    1    3    3    0  502  0.72399607141E+02 -0.13351741270E+03 -0.14886011044E+02  0.15266849162E+03  0.41800000000E+01 0.  1.
        -11    1    1    2    0    0 -0.22139337424E+02  0.91832423945E+02 -0.62018810932E+02  0.11300299668E+03  0.00000000000E+00 0. -1.
         11    1    1    2    0    0 -0.15266397055E+02  0.54573610232E+02 -0.16741602985E+03  0.17674690624E+03  0.00000000000E+00 0.  1.
</event>
<event>
 7    1  0.2490079E-009  0.1009845E+03  0.7561462E-02  0.1278239E+00
         -2   -1    0    0    0  501 -0.00000000000E+00  0.00000000000E+00  0.13812161006E+03  0.13812161006E+03  0.00000000000E+00 0.  1.
          2   -1    0    0  501    0  0.00000000000E+00 -0.00000000000E+00 -0.16756997304E+03  0.16756997304E+03  0.00000000000E+00 0. -1.
         25    2    1    2    0    0 -0.33822728842E+02  0.10473302172E+02 -0.11666851056E+03  0.17467981874E+03  0.12509128937E+03 0.  0.
          5    1    3    3  502    0 -0.53919427891E+02  0.51265464063E+02 -0.10277520824E+03  0.12694750229E+03  0.41800000000E+01 0.  1.
         -5    1    3    3    0  502  0.20096699049E+02 -0.40792161890E+02 -0.13893302317E+02  0.47732316449E+02  0.41800000000E+01 0.  1.
        -11    1    1    2    0    0  0.52247281373E+02 -0.25380252792E+02  0.90034482674E+02  0.10714543253E+03  0.00000000000E+00 0.  1.
         11    1    1    2    0    0 -0.18424552530E+02  0.14906950620E+02 -0.28143350898E+01  0.23866331824E+02  0.00000000000E+00 0. -1.
</event>
<event>
 7    1  0.2490079E-009  0.2295603E+03  0.7561462E-02  0.1126950E+00
          2   -1    0    0  501    0  0.00000000000E+00  0.00000000000E+00  0.20734683235E+04  0.20734683235E+04  0.00000000000E+00 0. -1.
         -2   -1    0    0    0  501 -0.00000000000E+00 -0.00000000000E+00 -0.28263288529E+02  0.28263288529E+02  0.00000000000E+00 0.  1.
         25    2    1    2    0    0 -0.12691031281E+03  0.16111853631E+03  0.13577234024E+04  0.13788132896E+04  0.12509132707E+03 0.  0.
          5    1    3    3  502    0 -0.62470309619E+02 -0.41887088183E+01  0.36109549637E+03  0.36650718242E+03  0.41800000000E+01 0.  1.
         -5    1    3    3    0  502 -0.64440003194E+02  0.16530724513E+03  0.99662790600E+03  0.10123061072E+04  0.41800000000E+01 0.  1.
        -11    1    1    2    0    0  0.48811564256E+02 -0.12230683402E+03  0.48267568316E+03  0.50031724492E+03  0.00000000000E+00 0.  1.
         11    1    1    2    0    0  0.78098748557E+02 -0.38811702296E+02  0.20480594941E+03  0.22260107744E+03  0.00000000000E+00 0. -1.
</event>
<event>
 7    1  0.2490079E-009  0.1296530E+03  0.7561462E-02  0.1227972E+00
          2   -1    0    0  501    0  0.00000000000E+00  0.00000000000E+00  0.17003101204E+04  0.17003101204E+04  0.00000000000E+00 0. -1.
         -2   -1    0    0    0  501 -0.00000000000E+00 -0.00000000000E+00 -0.11255663394E+02  0.11255663394E+02  0.00000000000E+00 0.  1.
         25    2    1    2    0    0  0.70704940634E+02 -0.12156927948E+01  0.12159350004E+04  0.12243962875E+04  0.12509067582E+03 0.  0.
          5    1    3    3  502    0 -0.31806094077E+02  0.21302436041E+02  0.30210024554E+03  0.30454466365E+03  0.41800000000E+01 0. -1.
         -5    1    3    3    0  502  0.10251103471E+03 -0.22518128835E+02  0.91383475483E+03  0.91985162385E+03  0.41800000000E+01 0. -1.
        -11    1    1    2    0    0 -0.81828202426E+02  0.28216917305E+02  0.37044842240E+03  0.38042618574E+03  0.00000000000E+00 0.  1.
         11    1    1    2    0    0  0.11123261792E+02 -0.27001224510E+02  0.10267103421E+03  0.10674331053E+03  0.00000000000E+00 0. -1.
</event>
<event>
 7    1  0.2490079E-009  0.5152549E+02  0.7561462E-02  0.1437283E+00
         -1   -1    0    0    0  501 -0.00000000000E+00  0.00000000000E+00  0.99373919592E+01  0.99373919592E+01  0.00000000000E+00 0.  1.
          1   -1    0    0  501    0  0.00000000000E+00 -0.00000000000E+00 -0.17956427577E+04  0.17956427577E+04  0.00000000000E+00 0. -1.
         25    2    1    2    0    0  0.54186479691E+01  0.18471405473E+02 -0.15389139700E+04  0.15441094829E+04  0.12508930303E+03 0.  0.
          5    1    3    3  502    0  0.20800835202E+01 -0.38421949948E+01 -0.14907155319E+04  0.14907277949E+04  0.41800000000E+01 0. -1.
         -5    1    3    3    0  502  0.33385644489E+01  0.22313600468E+02 -0.48198438089E+02  0.53381687990E+02  0.41800000000E+01 0. -1.
        -11    1    1    2    0    0 -0.20504091651E+02  0.22474286495E+02 -0.17370368845E+03  0.17634761895E+03  0.00000000000E+00 0. -1.
         11    1    1    2    0    0  0.15085443682E+02 -0.40945691967E+02 -0.73087707298E+02  0.85123047759E+02  0.00000000000E+00 0.  1.
</event>
<event>
 7    1  0.2490079E-009  0.1404419E+03  0.7561462E-02  0.1212736E+00
          3   -1    0    0  501    0  0.00000000000E+00  0.00000000000E+00  0.72858232707E+02  0.72858232707E+02  0.00000000000E+00 0. -1.
         -3   -1    0    0    0  501 -0.00000000000E+00 -0.00000000000E+00 -0.42379891530E+03  0.42379891530E+03  0.00000000000E+00 0.  1.
         25    2    1    2    0    0 -0.12507988755E+03  0.53590985599E+02 -0.16229598690E+03  0.24597820111E+03  0.12509322943E+03 0.  0.
          5    1    3    3  502    0 -0.86413002364E+02  0.50604506211E+02 -0.17771896175E+03  0.20403314630E+03  0.41800000000E+01 0.  1.
         -5    1    3    3    0  502 -0.38666885189E+02  0.29864793873E+01  0.15422974850E+02  0.41945054805E+02  0.41800000000E+01 0.  1.
        -11    1    1    2    0    0  0.37937859147E+02 -0.36900681263E+02 -0.13930602403E+02  0.54726621654E+02  0.00000000000E+00 0. -1.
         11    1    1    2    0    0  0.87142028406E+02 -0.16690304335E+02 -0.17471409330E+03  0.19595232525E+03  0.00000000000E+00 0.  1.
</event>
<event>
 7    1  0.2490079E-009  0.1041474E+03  0.7561462E-02  0.1271809E+00
          3   -1    0    0  501    0  0.00000000000E+00  0.00000000000E+00  0.27275027272E+03  0.27275027272E+03  0.00000000000E+00 0. -1.
         -3   -1    0    0    0  501 -0.00000000000E+00 -0.00000000000E+00 -0.50848534685E+02  0.50848534685E+02  0.00000000000E+00 0.  1.
         25    2    1    2    0    0 -0.16708922299E+02  0.43567562362E+02  0.12067674769E+03  0.17996801002E+03  0.12509311181E+03 0.  0.
          5    1    3    3  502    0  0.24779006150E+02 -0.31690002035E+02  0.13734596755E+02  0.42712608475E+02  0.41800000000E+01 0. -1.
         -5    1    3    3    0  502 -0.41487928448E+02  0.75257564397E+02  0.10694215093E+03  0.13725540154E+03  0.41800000000E+01 0. -1.
        -11    1    1    2    0    0  0.40342421724E+02 -0.41832870973E+02  0.24043712396E+02  0.62893562391E+02  0.00000000000E+00 0. -1.
         11    1    1    2    0    0 -0.23633499425E+02 -0.17346913894E+01  0.77181277956E+02  0.80737235005E+02  0.00000000000E+00 0.  1.
</event>
<event>
 7    1  0.2490079E-009  0.1150493E+03  0.7561462E-02  0.1251495E+00
          3   -1    0    0  501    0  0.00000000000E+00  0.00000000000E+00  0.22474868870E+02  0.22474868870E+02  0.00000000000E+00 0. -1.
         -3   -1    0    0    0  501 -0.00000000000E+00 -0.00000000000E+00 -0.80927312660E+03  0.80927312660E+03  0.00000000000E+00 0.  1.
         25    2    1    2    0    0  0.60997101671E+02  0.50680866625E+02 -0.45775841630E+03  0.48112292631E+03  0.12508919169E+03 0.  0.
          5    1    3    3  502    0  0.19282874778E+02  0.73713767606E+02 -0.39451559285E+03  0.40182779172E+03  0.41800000000E+01 0. -1.
         -5    1    3    3    0  502  0.41714226893E+02 -0.23032900981E+02 -0.63242823445E+02  0.79295134593E+02  0.41800000000E+01 0. -1.
        -11    1    1    2    0    0  0.48965597184E+01 -0.38667584054E+02 -0.48605930320E+02  0.62303248839E+02  0.00000000000E+00 0.  1.
         11    1    1    2    0    0 -0.65893661389E+02 -0.12013282571E+02 -0.28043391112E+03  0.28832182032E+03  0.00000000000E+00 0. -1.
</event>
<event>
 7    1  0.2490079E-009  0.1020090E+03  0.7561462E-02  0.1276127E+00
          1   -1    0    0  501    0  0.00000000000E+00  0.00000000000E+00  0.17949051242E+03  0.17949051242E+03  0.00000000000E+00 0. -1.
         -1   -1    0    0    0  501 -0.00000000000E+00 -0.00000000000E+00 -0.10137852385E+03  0.10137852385E+03  0.00000000000E+00 0.  1.
         25    2    1    2    0    0 -0.41092386797E+02 -0.43938014542E+02  0.97070716721E+02  0.16937808858E+03  0.12508828671E+03 0.  0.
          5    1    3    3  502    0  0.62594782070E+01  0.32721078502E+02 -0.41120314349E+01  0.33826487377E+02  0.41800000000E+01 0. -1.
         -5    1    3    3    0  502 -0.47351865004E+02 -0.76659093043E+02  0.10118274816E+03  0.13555160121E+03  0.41800000000E+01 0. -1.
        -11    1    1    2    0    0 -0.83664939558E+01 -0.57355427580E+01 -0.37610616409E+02  0.38954500876E+02  0.00000000000E+00 0.  1.
         11    1    1    2    0    0  0.49458880753E+02  0.49673557300E+02  0.18651888256E+02  0.72536446809E+02  0.00000000000E+00 0. -1.
</event>
<event>
 7    1  0.2490079E-009  0.8202634E+02  0.7561462E-02  0.1323397E+00
         -1   -1    0    0    0  501 -0.00000000000E+00  0.00000000000E+00  0.15337568659E+02  0.15337568659E+02  0.00000000000E+00 0.  1.
          1   -1    0    0  501    0  0.00000000000E+00 -0.00000000000E+00 -0.92868071690E+03  0.92868071690E+03  0.00000000000E+00 0. -1.
         25    2    1    2    0    0 -0.32297468153E+02 -0.31728814879E+02 -0.61030778344E+03  0.62463784520E+03  0.12508798097E+03 0.  0.
          5    1    3    3  502    0 -0.43595376845E+02 -0.28741487648E+02 -0.60997696438E+03  0.61222218146E+03  0.41800000000E+01 0. -1.
         -5    1    3    3    0  502  0.11297908692E+02 -0.29873272304E+01 -0.33081905785E+00  0.12415663737E+02  0.41800000000E+01 0. -1.
        -11    1    1    2    0    0 -0.23498798627E+02  0.36334595920E+02 -0.10456284030E+03  0.11316264387E+03  0.00000000000E+00 0.  1.
         11    1    1    2    0    0  0.55796266780E+02 -0.46057810418E+01 -0.19847252450E+03  0.20621779648E+03  0.00000000000E+00 0. -1.
</event>
<event>
 7    1  0.2490079E-009  0.1053369E+03  0.7561462E-02  0.1269457E+00
         -2   -1    0    0    0  501 -0.00000000000E+00  0.00000000000E+00  0.16488284790E+04  0.16488284790E+04  0.00000000000E+00 0.  1.
          2   -1    0    0  501    0  0.00000000000E+00 -0.00000000000E+00 -0.10243959787E+02  0.10243959787E+02  0.00000000000E+00 0. -1.
         25    2    1    2    0    0 -0.23636209236E+02 -0.14273209455E+02  0.13428279179E+04  0.13489238113E+04  0.12508491784E+03 0.  0.
          5    1    3    3  502    0  0.43786073381E+02  0.21941822141E+02  0.65402842613E+03  0.65587294377E+03  0.41800000000E+01 0.  1.
         -5    1    3    3    0  502 -0.67422282617E+02 -0.36215031596E+02  0.68879949177E+03  0.69305086752E+03  0.41800000000E+01 0.  1.
        -11    1    1    2    0    0 -0.18236485218E+02 -0.22626833089E+02  0.47410725254E+02  0.55608630965E+02  0.00000000000E+00 0. -1.
         11    1    1    2    0    0  0.41872694454E+02  0.36900042544E+02  0.24834587607E+03  0.25453999655E+03  0.00000000000E+00 0.  1.
</event>
<event>
 7    1  0.2490079E-009  0.8222416E+02  0.7561462E-02  0.1322856E+00
          2   -1    0    0  501    0  0.00000000000E+00  0.00000000000E+00  0.26728768582E+03  0.26728768582E+03  0.00000000000E+00 0. -1.
         -2   -1    0    0    0  501 -0.00000000000E+00 -0.00000000000E+00 -0.51137393505E+02  0.51137393505E+02  0.00000000000E+00 0.  1.
         25    2    1    2    0    0 -0.29017558900E+02  0.32346748755E+02  0.11554854604E+03  0.17575057127E+03  0.12509382850E+03 0.  0.
          5    1    3    3  502    0  0.12884178163E+02  0.98574049477E-01 -0.23391796454E+02  0.27030728905E+02  0.41800000000E+01 0. -1.
         -5    1    3    3    0  502 -0.41901737063E+02  0.32248174705E+02  0.13894034249E+03  0.14871984236E+03  0.41800000000E+01 0. -1.
        -11    1    1    2    0    0  0.36578528564E+01 -0.60133099536E+02  0.43551957622E+02  0.74338029030E+02  0.00000000000E+00 0.  1.
         11    1    1    2    0    0  0.25359706044E+02  0.27786350781E+02  0.57049788656E+02  0.68336479029E+02  0.00000000000E+00 0. -1.
</event>
<event>
 7    1  0.2490079E-009  0.6513826E+02  0.7561462E-02  0.1377452E+00
          2   -1    0    0  501    0  0.00000000000E+00  0.00000000000E+00  0.84983666312E+03  0.84983666312E+03  0.00000000000E+00 0. -1.
         -2   -1    0    0    0  501 -0.00000000000E+00 -0.00000000000E+00 -0.23121788728E+02  0.23121788728E+02  0.00000000000E+00 0.  1.
         25    2    1    2    0    0 -0.28392812431E+02  0.40668146250E+02  0.67893097703E+03  0.69213754080E+03  0.12508818446E+03 0.  0.
          5    1    3    3  502    0 -0.32493505885E+02  0.27898460349E+01  0.62559349078E+03  0.62645694128E+03  0.41800000000E+01 0. -1.
         -5    1    3    3    0  502  0.41006934532E+01  0.37878300215E+02  0.53337486250E+02  0.65680599521E+02  0.41800000000E+01 0. -1.
        -11    1    1    2    0    0 -0.71972030673E+01 -0.79609235271E+01 -0.10684975134E+02  0.15144131834E+02  0.00000000000E+00 0.  1.
         11    1    1    2    0    0  0.35590015499E+02 -0.32707222723E+02  0.15846887250E+03  0.16567677922E+03  0.00000000000E+00 0. -1.
</event>
<event>
 7    1  0.2490079E-009  0.7969924E+02  0.7561462E-02  0.1329907E+00
         -1   -1    0    0    0  501 -0.00000000000E+00  0.00000000000E+00  0.58679457187E+02  0.58679457187E+02  0.00000000000E+00 0.  1.
          1   -1    0    0  501    0  0.00000000000E+00 -0.00000000000E+00 -0.30628798254E+03  0.30628798254E+03  0.00000000000E+00 0. -1.
         25    2    1    2    0    0 -0.51242250482E+02 -0.60359862009E+01 -0.54843170673E+02  0.14600264878E+03  0.12508716448E+03 0.  0.
          5    1    3    3  502    0 -0.41459942449E+02  0.12510180479E+02  0.33625511331E+02  0.54987078990E+02  0.41800000000E+01 0.  1.
         -5    1    3    3    0  502 -0.97823080333E+01 -0.18546166680E+02 -0.88468682005E+02  0.91015569793E+02  0.41800000000E+01 0.  1.
        -11    1    1    2    0    0 -0.13954391706E+02  0.23217073757E+02 -0.20486199223E+02  0.33962360347E+02  0.00000000000E+00 0.  1.
         11    1    1    2    0    0  0.65196642188E+02 -0.17181087556E+02 -0.17227915545E+03  0.18500243060E+03  0.00000000000E+00 0. -1.
</event>
<event>
 7    1  0.2490079E-009  0.1461761E+03  0.7561462E-02  0.1205252E+00
         -1   -1    0    0    0  501 -0.00000000000E+00  0.00000000000E+00  0.33078057120E+03  0.33078057120E+03  0.00000000000E+00 0.  1.
          1   -1    0    0  501    0  0.00000000000E+00 -0.00000000000E+00 -0.78093082329E+02  0.78093082329E+02  0.00000000000E+00 0. -1.
         25    2    1    2    0    0 -0.83755663507E+02 -0.62703871884E+02  0.18071781220E+03  0.24341232121E+03  0.12507535229E+03 0.  0.
          5    1    3    3  502    0 -0.26175425279E+02 -0.89695703376E+02  0.13792890237E+03  0.16665031234E+03  0.41800000000E+01 0.  1.
         -5    1    3    3    0  502 -0.57580238229E+02  0.26991831491E+02  0.42788909830E+02  0.76762008873E+02  0.41800000000E+01 0.  1.
        -11    1    1    2    0    0  0.76900778076E+02  0.83309154953E+02  0.28552267880E+02  0.11691611082E+03  0.00000000000E+00 0. -1.
         11    1    1    2    0    0  0.68548854311E+01 -0.20605283068E+02  0.43417408783E+02  0.48545221495E+02  0.00000000000E+00 0.  1.
</event>
<event>
 7    1  0.2490079E-009  0.7875145E+02  0.7561462E-02  0.1332632E+00
         -1   -1    0    0    0  501 -0.00000000000E+00  0.00000000000E+00  0.91643197747E+02  0.91643197747E+02  0.00000000000E+00 0.  1.
          1   -1    0    0  501    0  0.00000000000E+00 -0.00000000000E+00 -0.15373752611E+03  0.15373752611E+03  0.00000000000E+00 0. -1.
         25    2    1    2    0    0  0.34821476681E+01 -0.13273629021E+02  0.13627214055E+02  0.12657549073E+03  0.12508932532E+03 0.  0.
          5    1    3    3  502    0  0.44990987165E+02 -0.36611905531E+02 -0.26739648913E+02  0.64008607052E+02  0.41800000000E+01 0.  1.
         -5    1    3    3    0  502 -0.41508839497E+02  0.23338276510E+02  0.40366862968E+02  0.62566883674E+02  0.41800000000E+01 0.  1.
        -11    1    1    2    0    0 -0.26643603543E+02  0.72275866486E+01  0.10337900684E+02  0.29478667017E+02  0.00000000000E+00 0.  1.
         11    1    1    2    0    0  0.23161455875E+02  0.60460423721E+01 -0.86059443103E+02  0.89326566114E+02  0.00000000000E+00 0. -1.
</event>
<event>
 7    1  0.2490079E-009  0.1564093E+03  0.7561462E-02  0.1192811E+00
         -1   -1    0    0    0  501 -0.00000000000E+00  0.00000000000E+00  0.43024387882E+02  0.43024387882E+02  0.00000000000E+00 0.  1.
          1   -1    0    0  501    0  0.00000000000E+00 -0.00000000000E+00 -0.59906312963E+03  0.59906312963E+03  0.00000000000E+00 0. -1.
         25    2    1    2    0    0  0.60799103259E+02  0.95491930753E+02 -0.36943192841E+03  0.40613097969E+03  0.12508870108E+03 0.  0.
          5    1    3    3  502    0 -0.59215428981E+01  0.10112876847E+03 -0.21181233964E+03  0.23482766470E+03  0.41800000000E+01 0. -1.
         -5    1    3    3    0  502  0.66720646158E+02 -0.56368377201E+01 -0.15761958877E+03  0.17130331499E+03  0.41800000000E+01 0. -1.
        -11    1    1    2    0    0 -0.23358128665E+02 -0.10345848805E+03 -0.13394602838E+03  0.17085315169E+03  0.00000000000E+00 0. -1.
         11    1    1    2    0    0 -0.37440974595E+02  0.79665572925E+01 -0.52660784959E+02  0.65103386135E+02  0.00000000000E+00 0.  1.
</event>
<event>
 7    1  0.2490079E-009  0.1162179E+03  0.7561462E-02  0.1249470E+00
          1   -1    0    0  501    0  0.00000000000E+00  0.00000000000E+00  0.49583928810E+02  0.49583928810E+02  0.00000000000E+00 0. -1.
         -1   -1    0    0    0  501 -0.00000000000E+00 -0.00000000000E+00 -0.31308174574E+03  0.31308174574E+03  0.00000000000E+00 0.  1.
         25    2    1    2    0    0 -0.42521470830E+02 -0.43203925748E+02 -0.14019147442E+03  0.19742020598E+03  0.12508570481E+03 0.  0.
          5    1    3    3  502    0 -0.75448233967E+02  0.14133920379E+01 -0.11189122658E+03  0.13502426698E+03  0.41800000000E+01 0. -1.
         -5    1    3    3    0  502  0.32926763137E+02 -0.44617317786E+02 -0.28300247835E+02  0.62395939008E+02  0.41800000000E+01 0. -1.
        -11    1    1    2    0    0 -0.15281882973E+02  0.40607764968E+02 -0.22162646978E+02  0.48720729100E+02  0.00000000000E+00 0.  1.
         11    1    1    2    0    0  0.57803353804E+02  0.25961607801E+01 -0.10114369553E+03  0.11652473946E+03  0.00000000000E+00 0. -1.
</event>
<event>
 7    1  0.2775809E-009  0.9579385E+02  0.7561462E-02  0.1289398E+00
         -2   -1    0    0    0  501 -0.00000000000E+00  0.00000000000E+00  0.29010684968E+02  0.29010684968E+02  0.00000000000E+00 0.  1.
          2   -1    0    0  501    0  0.00000000000E+00 -0.00000000000E+00 -0.57390410533E+03  0.57390410533E+03  0.00000000000E+00 0. -1.
         25    2    1    2    0    0 -0.26008908165E+02  0.43318498663E+02 -0.18902588336E+03  0.23222936576E+03  0.12508692222E+03 0.  0.
          5    1    3    3  502    0  0.16729605842E+02 -0.95658709650E+01  0.98261002592E+01  0.22032027716E+02  0.41800000000E+01 0.  1.
         -5    1    3    3    0  502 -0.42738514007E+02  0.52884369628E+02 -0.19885198362E+03  0.21019733804E+03  0.41800000000E+01 0.  1.
        -11    1    1    2    0    0  0.58299514014E+02 -0.13610705949E+02 -0.20841194181E+03  0.21684008426E+03  0.00000000000E+00 0.  1.
         11    1    1    2    0    0 -0.32290605850E+02 -0.29707792714E+02 -0.14745559519E+03  0.15384534029E+03  0.00000000000E+00 0. -1.
</event>
<event>
 7    1  0.2490079E-009  0.8257461E+02  0.7561462E-02  0.1321900E+00
         -2   -1    0    0    0  501 -0.00000000000E+00  0.00000000000E+00  0.22384123872E+02  0.22384123872E+02  0.00000000000E+00 0. -1.
          2   -1    0    0  501    0  0.00000000000E+00 -0.00000000000E+00 -0.69954513481E+03  0.69954513481E+03  0.00000000000E+00 0.  1.
         25    2    1    2    0    0 -0.45942074769E+01 -0.12714374311E+02 -0.54519857797E+03  0.55953101770E+03  0.12510279087E+03 0.  0.
          5    1    3    3  502    0 -0.30459063589E+02  0.28276086237E+02 -0.45616425757E+03  0.45807269499E+03  0.41800000000E+01 0.  1.
         -5    1    3    3    0  502  0.25864856112E+02 -0.40990460548E+02 -0.89034320403E+02  0.10145832271E+03  0.41800000000E+01 0.  1.
        -11    1    1    2    0    0  0.36523884451E+02 -0.70226769195E+01 -0.11562497730E+03  0.12145965380E+03  0.00000000000E+00 0.  1.
         11    1    1    2    0    0 -0.31929676975E+02  0.19737051230E+02 -0.16337455670E+02  0.40938587185E+02  0.00000000000E+00 0. -1.
</event>
<event>
 7    1  0.2490079E-009  0.1802516E+03  0.7561462E-02  0.1167560E+00
          1   -1    0    0  501    0  0.00000000000E+00  0.00000000000E+00  0.18234384725E+03  0.18234384725E+03  0.00000000000E+00 0.  1.
         -1   -1    0    0    0  501 -0.00000000000E+00 -0.00000000000E+00 -0.25919693355E+03  0.25919693355E+03  0.00000000000E+00 0. -1.
         25    2    1    2    0    0  0.17061069010E+03  0.26365396698E+02  0.35771407361E+02  0.21617566551E+03  0.12509669481E+03 0.  0.
          5    1    3    3  502    0  0.17394725427E+03  0.17895843708E+02  0.63973778537E+02  0.18624721536E+03  0.41800000000E+01 0. -1.
         -5    1    3    3    0  502 -0.33365641623E+01  0.84695529902E+01 -0.28202371176E+02  0.29928450147E+02  0.41800000000E+01 0. -1.
        -11    1    1    2    0    0 -0.10081588611E+03 -0.31405986771E+02 -0.17127795831E+02  0.10697448428E+03  0.00000000000E+00 0. -1.
         11    1    1    2    0    0 -0.69794804000E+02  0.50405900734E+01 -0.95496697835E+02  0.11839063101E+03  0.00000000000E+00 0.  1.
</event>
<event>
 7    1  0.2490079E-009  0.8587521E+02  0.7561462E-02  0.1313160E+00
         -2   -1    0    0    0  501 -0.00000000000E+00  0.00000000000E+00  0.56892017286E+02  0.56892017286E+02  0.00000000000E+00 0.  1.
          2   -1    0    0  501    0  0.00000000000E+00 -0.00000000000E+00 -0.28413213775E+03  0.28413213775E+03  0.00000000000E+00 0. -1.
         25    2    1    2    0    0  0.51951236360E+01 -0.19514970868E+02 -0.41613818988E+02  0.13336809908E+03  0.12509003367E+03 0.  0.
          5    1    3    3  502    0  0.55658592583E+02 -0.37813273284E+01 -0.55240939098E+02  0.78620678686E+02  0.41800000000E+01 0.  1.
         -5    1    3    3    0  502 -0.50463468947E+02 -0.15733643540E+02  0.13627120109E+02  0.54747420393E+02  0.41800000000E+01 0.  1.
        -11    1    1    2    0    0  0.25152501604E+02 -0.25211608060E+01 -0.86012303558E+01  0.26701793056E+02  0.00000000000E+00 0.  1.
         11    1    1    2    0    0 -0.30347625240E+02  0.22036131674E+02 -0.17702507112E+03  0.18095426290E+03  0.00000000000E+00 0. -1.
</event>
<event>
 7    1  0.2490079E-009  0.8401790E+02  0.7561462E-02  0.1318021E+00
         -2   -1    0    0    0  501 -0.00000000000E+00  0.00000000000E+00  0.59372798279E+02  0.59372798279E+02  0.00000000000E+00 0.  1.
          2   -1    0    0  501    0  0.00000000000E+00 -0.00000000000E+00 -0.21456427969E+03  0.21456427969E+03  0.00000000000E+00 0. -1.
         25    2    1    2    0    0 -0.23739393441E+02  0.40789205261E+01 -0.11114878835E+03  0.16906114839E+03  0.12508965725E+03 0.  0.
          5    1    3    3  502    0  0.12325164403E+02 -0.33252788815E+02 -0.11140259828E+03  0.11698576386E+03  0.41800000000E+01 0. -1.
         -5    1    3    3    0  502 -0.36064557844E+02  0.37331709341E+02  0.25380993767E+00  0.52075384534E+02  0.41800000000E+01 0. -1.
        -11    1    1    2    0    0  0.48190175017E+02  0.13608164965E+02 -0.53473690936E+02  0.73259202454E+02  0.00000000000E+00 0. -1.
         11    1    1    2    0    0 -0.24450781576E+02 -0.17687085492E+02  0.94309978721E+01  0.31616727119E+02  0.00000000000E+00 0.  1.
</event>
<event>
 7    1  0.2490079E-009  0.1611034E+03  0.7561462E-02  0.1187457E+00
          2   -1    0    0  501    0  0.00000000000E+00  0.00000000000E+00  0.84323440134E+03  0.84323440134E+03  0.00000000000E+00 0.  1.
         -2   -1    0    0    0  501 -0.00000000000E+00 -0.00000000000E+00 -0.36461079991E+02  0.36461079991E+02  0.00000000000E+00 0. -1.
         25    2    1    2    0    0  0.17335135055E+02 -0.13520910112E+03  0.39568162191E+03  0.43679892509E+03  0.12508935650E+03 0.  0.
          5    1    3    3  502    0 -0.68665900633E+01 -0.13281545953E+03  0.20414720289E+03  0.24368145025E+03  0.41800000000E+01 0.  1.
         -5    1    3    3    0  502  0.24201725118E+02 -0.23936415891E+01  0.19153441902E+03  0.19311747483E+03  0.41800000000E+01 0.  1.
        -11    1    1    2    0    0 -0.43764094338E+02  0.23490781093E+02  0.11153484067E+03  0.12209477234E+03  0.00000000000E+00 0. -1.
         11    1    1    2    0    0  0.26428959283E+02  0.11171832002E+03  0.29955685877E+03  0.32080178390E+03  0.00000000000E+00 0.  1.
</event>
<event>
 7    1  0.2490079E-009  0.9774155E+02  0.7561462E-02  0.1285118E+00
          2   -1    0    0  501    0  0.00000000000E+00  0.00000000000E+00  0.12322785736E+03  0.12322785736E+03  0.00000000000E+00 0. -1.
         -2   -1    0    0    0  501 -0.00000000000E+00 -0.00000000000E+00 -0.17959678617E+03  0.17959678617E+03  0.00000000000E+00 0.  1.
         25    2    1    2    0    0  0.36487541791E+02  0.35215163497E+02 -0.11923439019E+03  0.18009881010E+03  0.12508914082E+03 0.  0.
          5    1    3    3  502    0  0.64050190256E+02  0.60587470891E+02 -0.11046411716E+03  0.14139682486E+03  0.41800000000E+01 0. -1.
         -5    1    3    3    0  502 -0.27562648465E+02 -0.25372307394E+02 -0.87702730291E+01  0.38701985245E+02  0.41800000000E+01 0. -1.
        -11    1    1    2    0    0 -0.36155624415E+01 -0.36448751986E+02  0.78259580861E+02  0.86406862051E+02  0.00000000000E+00 0. -1.
         11    1    1    2    0    0 -0.32871979350E+02  0.12335884886E+01 -0.15394119482E+02  0.36318971373E+02  0.00000000000E+00 0.  1.
</event>
<event>
 7    1  0.2490079E-009  0.1144379E+03  0.7561462E-02  0.1252565E+00
         -2   -1    0    0    0  501 -0.00000000000E+00  0.00000000000E+00  0.26037610962E+02  0.26037610962E+02  0.00000000000E+00 0.  1.
          2   -1    0    0  501    0  0.00000000000E+00 -0.00000000000E+00 -0.51889187018E+03  0.51889187018E+03  0.00000000000E+00 0. -1.
         25    2    1    2    0    0  0.17124222787E+02 -0.26754126174E+02 -0.31195133397E+03  0.33759375987E+03  0.12508752800E+03 0.  0.
          5    1    3    3  502    0  0.62864074309E+02 -0.45768601088E+02 -0.21445238097E+03  0.22815335366E+03  0.41800000000E+01 0.  1.
         -5    1    3    3    0  502 -0.45739851522E+02  0.19014474914E+02 -0.97498953002E+02  0.10944040620E+03  0.41800000000E+01 0.  1.
        -11    1    1    2    0    0  0.31726070675E+02 -0.16752294893E+02 -0.65477638197E+02  0.74662601405E+02  0.00000000000E+00 0.  1.
         11    1    1    2    0    0 -0.48850293462E+02  0.43506421068E+02 -0.11542528705E+03  0.13267311987E+03  0.00000000000E+00 0. -1.
</event>
<event>
 7    1  0.2490079E-009  0.1026862E+03  0.7561462E-02  0.1274747E+00
         -1   -1    0    0    0  501 -0.00000000000E+00  0.00000000000E+00  0.33851777865E+03  0.33851777865E+03  0.00000000000E+00 0.  1.
          1   -1    0    0  501    0  0.00000000000E+00 -0.00000000000E+00 -0.57928951575E+02  0.57928951575E+02  0.00000000000E+00 0. -1.
         25    2    1    2    0    0  0.10795061655E+02 -0.84901040764E+02  0.18461462606E+03  0.23886115864E+03  0.12508945947E+03 0.  0.
          5    1    3    3  502    0 -0.73835756220E+01 -0.49162834542E+02  0.19156353504E+03  0.19795343353E+03  0.41800000000E+01 0.  1.
         -5    1    3    3    0  502  0.18178637277E+02 -0.35738206221E+02 -0.69489089803E+01  0.40907725104E+02  0.41800000000E+01 0.  1.
        -11    1    1    2    0    0  0.24843823997E+02  0.73757342045E+02  0.91272694799E+02  0.11995026433E+03  0.00000000000E+00 0.  1.
         11    1    1    2    0    0 -0.35638885652E+02  0.11143698718E+02  0.47015062100E+01  0.37635307257E+02  0.00000000000E+00 0. -1.
</event>
<event>
 7    1  0.2490079E-009  0.1458796E+03  0.7561462E-02  0.1205630E+00
          2   -1    0    0  501    0  0.00000000000E+00  0.00000000000E+00  0.21845275551E+03  0.21845275551E+03  0.00000000000E+00 0. -1.
         -2   -1    0    0    0  501 -0.00000000000E+00 -0.00000000000E+00 -0.13578116845E+03  0.13578116845E+03  0.00000000000E+00 0.  1.
         25    2    1    2    0    0 -0.41069517922E+02 -0.11151892451E+03  0.10525345215E+03  0.20211348484E+03  0.12509354795E+03 0.  0.
          5    1    3    3  502    0 -0.64678251678E+02 -0.12710893120E+03  0.96334298926E+02  0.17215610991E+03  0.41800000000E+01 0.  1.
         -5    1    3    3    0  502  0.23608733756E+02  0.15590006694E+02  0.89191532206E+01  0.29957374926E+02  0.41800000000E+01 0.  1.
        -11    1    1    2    0    0  0.39534690535E+02  0.83147445259E+02  0.26150785522E+02  0.95709733007E+02  0.00000000000E+00 0. -1.
         11    1    1    2    0    0  0.15348273868E+01  0.28371479248E+02 -0.48732650608E+02  0.56410706121E+02  0.00000000000E+00 0.  1.
</event>
<event>
 7    1  0.2490079E-009  0.2205496E+03  0.7561462E-02  0.1133474E+00
         -1   -1    0    0    0  501 -0.00000000000E+00  0.00000000000E+00  0.63821932435E+02  0.63821932435E+02  0.00000000000E+00 0.  1.
          1   -1    0    0  501    0  0.00000000000E+00 -0.00000000000E+00 -0.10372925534E+04  0.10372925534E+04  0.00000000000E+00 0. -1.
         25    2    1    2    0    0 -0.10791501549E+03 -0.17379915099E+03 -0.26249900168E+03  0.35553665700E+03  0.12509513632E+03 0.  0.
          5    1    3    3  502    0  0.19227176590E+02 -0.42596824810E+02 -0.17926227569E+02  0.50229431994E+02  0.41800000000E+01 0.  1.
         -5    1    3    3    0  502 -0.12714219208E+03 -0.13120232618E+03 -0.24457277411E+03  0.30530722500E+03  0.41800000000E+01 0.  1.
        -11    1    1    2    0    0  0.36249180763E+02  0.10879505816E+03 -0.50720007218E+03  0.52000219326E+03  0.00000000000E+00 0.  1.
         11    1    1    2    0    0  0.71665834724E+02  0.65004092838E+02 -0.20377154706E+03  0.22557563553E+03  0.00000000000E+00 0. -1.
</event>
<event>
 7    1  0.2490079E-009  0.1285094E+03  0.7561462E-02  0.1229684E+00
          1   -1    0    0  501    0  0.00000000000E+00  0.00000000000E+00  0.39665529205E+03  0.39665529205E+03  0.00000000000E+00 0. -1.
         -1   -1    0    0    0  501 -0.00000000000E+00 -0.00000000000E+00 -0.57248276095E+02  0.57248276095E+02  0.00000000000E+00 0.  1.
         25    2    1    2    0    0 -0.82998469178E+02  0.50121434409E+02  0.24024179028E+03  0.28768761973E+03  0.12508854733E+03 0.  0.
          5    1    3    3  502    0  0.43231601548E+01  0.68036182519E+02  0.11794425085E+03  0.13629354554E+03  0.41800000000E+01 0.  1.
         -5    1    3    3    0  502 -0.87321629332E+02 -0.17914748110E+02  0.12229753943E+03  0.15139407419E+03  0.41800000000E+01 0.  1.
        -11    1    1    2    0    0  0.53642107493E+02 -0.19546181437E+02  0.10868983945E+03  0.12277218783E+03  0.00000000000E+00 0. -1.
         11    1    1    2    0    0  0.29356361685E+02 -0.30575252972E+02 -0.95246137857E+01  0.43443760581E+02  0.00000000000E+00 0.  1.
</event>
<event>
 7    1  0.2490079E-009  0.1008352E+03  0.7561462E-02  0.1278549E+00
          1   -1    0    0  501    0  0.00000000000E+00  0.00000000000E+00  0.84654483718E+03  0.84654483718E+03  0.00000000000E+00 0. -1.
         -1   -1    0    0    0  501 -0.00000000000E+00 -0.00000000000E+00 -0.29387491884E+02  0.29387491884E+02  0.00000000000E+00 0.  1.
         25    2    1    2    0    0  0.89887975779E+00 -0.67437847476E+02  0.69413867559E+03  0.70853696664E+03  0.12508981127E+03 0.  0.
          5    1    3    3  502    0 -0.14455555554E+02  0.41301492456E+01  0.63420934299E+01  0.16843864409E+02  0.41800000000E+01 0.  1.
         -5    1    3    3    0  502  0.15354435312E+02 -0.71567996722E+02  0.68779658216E+03  0.69169310223E+03  0.41800000000E+01 0.  1.
        -11    1    1    2    0    0  0.13328607950E+01  0.90034151876E+02  0.89893759772E+02  0.12723526660E+03  0.00000000000E+00 0. -1.
         11    1    1    2    0    0 -0.22317405528E+01 -0.22596304400E+02  0.33124909939E+02  0.40160095827E+02  0.00000000000E+00 0.  1.
</event>
<event>
 7    1  0.2490079E-009  0.9551484E+02  0.7561462E-02  0.1290021E+00
         -2   -1    0    0    0  501 -0.00000000000E+00  0.00000000000E+00  0.63548474243E+02  0.63548474243E+02  0.00000000000E+00 0.  1.
          2   -1    0    0  501    0  0.00000000000E+00 -0.00000000000E+00 -0.21844740704E+03  0.21844740704E+03  0.00000000000E+00 0. -1.
         25    2    1    2    0    0  0.21301925304E+02  0.38247590997E+02 -0.79741203701E+02  0.15467707563E+03  0.12509871270E+03 0.  0.
          5    1    3    3  502    0 -0.47854237357E+02  0.10194288646E+02 -0.59678628792E+02  0.77284944773E+02  0.41800000000E+01 0. -1.
         -5    1    3    3    0  502  0.69156162661E+02  0.28053302351E+02 -0.20062574909E+02  0.77392130858E+02  0.41800000000E+01 0. -1.
        -11    1    1    2    0    0 -0.19702066762E+02 -0.50818810980E+02 -0.35733373527E+01  0.54621348610E+02  0.00000000000E+00 0.  1.
         11    1    1    2    0    0 -0.15998585415E+01  0.12571219983E+02 -0.71584391743E+02  0.72697457042E+02  0.00000000000E+00 0. -1.
</event>
<event>
 7    1  0.2490079E-009  0.8448717E+02  0.7561462E-02  0.1316779E+00
          2   -1    0    0  501    0  0.00000000000E+00  0.00000000000E+00  0.17636661232E+03  0.17636661232E+03  0.00000000000E+00 0.  1.
         -2   -1    0    0    0  501 -0.00000000000E+00 -0.00000000000E+00 -0.79565190764E+02  0.79565190764E+02  0.00000000000E+00 0. -1.
         25    2    1    2    0    0  0.21018528748E+02  0.39771175981E+02  0.36372420894E+02  0.13782284213E+03  0.12509459549E+03 0.  0.
          5    1    3    3  502    0 -0.25047402289E+02  0.56823032541E+02 -0.17644581326E+02  0.64691831314E+02  0.41800000000E+01 0. -1.
         -5    1    3    3    0  502  0.46065931037E+02 -0.17051856560E+02  0.54017002221E+02  0.73131010818E+02  0.41800000000E+01 0. -1.
        -11    1    1    2    0    0 -0.15428171905E+02  0.17628447431E+01  0.72780097837E+02  0.74418268934E+02  0.00000000000E+00 0.  1.
         11    1    1    2    0    0 -0.55903568423E+01 -0.41534020724E+02 -0.12351097179E+02  0.43690692014E+02  0.00000000000E+00 0. -1.
</event>
<event>
 7    1  0.2490079E-009  0.6993799E+02  0.7561462E-02  0.1360304E+00
         -2   -1    0    0    0  501 -0.00000000000E+00  0.00000000000E+00  0.40872815041E+02  0.40872815041E+02  0.00000000000E+00 0.  1.
          2   -1    0    0  501    0  0.00000000000E+00 -0.00000000000E+00 -0.37818726817E+03  0.37818726817E+03  0.00000000000E+00 0. -1.
         25    2    1    2    0    0 -0.53251560141E+02 -0.30114190874E+02 -0.15102217722E+03  0.20542298829E+03  0.12509321705E+03 0.  0.
          5    1    3    3  502    0 -0.10565176958E+02 -0.21014462393E+02 -0.15906265169E+03  0.16084660443E+03  0.41800000000E+01 0. -1.
         -5    1    3    3    0  502 -0.42686383182E+02 -0.90997284816E+01  0.80404744695E+01  0.44576383852E+02  0.41800000000E+01 0. -1.
        -11    1    1    2    0    0  0.28227750471E+02 -0.53571396545E+01 -0.16069299498E+03  0.16324136570E+03  0.00000000000E+00 0. -1.
         11    1    1    2    0    0  0.25023809670E+02  0.35471330529E+02 -0.25599280929E+02  0.50395729224E+02  0.00000000000E+00 0.  1.
</event>
<event>
 7    1  0.2490079E-009  0.1093523E+03  0.7561462E-02  0.1261774E+00
          2   -1    0    0  501    0  0.00000000000E+00  0.00000000000E+00  0.70370803216E+03  0.70370803216E+03  0.00000000000E+00 0.  1.
         -2   -1    0    0    0  501 -0.00000000000E+00 -0.00000000000E+00 -0.21092356936E+02  0.21092356936E+02  0.00000000000E+00 0. -1.
         25    2    1    2    0    0  0.55654613425E+02  0.28472447621E+02  0.36621132157E+03  0.39200445819E+03  0.12509455195E+03 0.  0.
          5    1    3    3  502    0 -0.99499728603E+01  0.47846889808E+02  0.56585574289E+02  0.74884754402E+02  0.41800000000E+01 0. -1.
         -5    1    3    3    0  502  0.65604586286E+02 -0.19374442187E+02  0.30962574728E+03  0.31711970379E+03  0.41800000000E+01 0. -1.
        -11    1    1    2    0    0 -0.41984383101E+02  0.22995865918E+02  0.18295153673E+03  0.18911045203E+03  0.00000000000E+00 0.  1.
         11    1    1    2    0    0 -0.13670230324E+02 -0.51468313539E+02  0.13345281692E+03  0.14368547887E+03  0.00000000000E+00 0. -1.
</event>
<event>
 7    1  0.2490079E-009  0.1249347E+03  0.7561462E-02  0.1235171E+00
          2   -1    0    0  501    0  0.00000000000E+00  0.00000000000E+00  0.70796912977E+02  0.70796912977E+02  0.00000000000E+00 0. -1.
         -2   -1    0    0    0  501 -0.00000000000E+00 -0.00000000000E+00 -0.25240318150E+03  0.25240318150E+03  0.00000000000E+00 0.  1.
         25    2    1    2    0    0  0.20308900308E+01 -0.76829340585E+02 -0.82464002458E+02  0.16838315923E+03  0.12508279067E+03 0.  0.
          5    1    3    3  502    0  0.21857498141E+01  0.33214701392E+02 -0.34953439285E+02  0.48448005208E+02  0.41800000000E+01 0. -1.
         -5    1    3    3    0  502 -0.15485978333E+00 -0.11004404198E+03 -0.47510563173E+02  0.11993515402E+03  0.41800000000E+01 0. -1.
        -11    1    1    2    0    0  0.67419495606E+01 -0.13687040198E+02  0.54648544640E+01  0.16206590868E+02  0.00000000000E+00 0.  1.
         11    1    1    2    0    0 -0.87728395914E+01  0.90516380782E+02 -0.10460712053E+03  0.13861034438E+03  0.00000000000E+00 0. -1.
</event>
<event>
 7    1  0.2490079E-009  0.7651445E+02  0.7561462E-02  0.1339244E+00
          2   -1    0    0  501    0  0.00000000000E+00  0.00000000000E+00  0.68544965520E+02  0.68544965520E+02  0.00000000000E+00 0. -1.
         -2   -1    0    0    0  501 -0.00000000000E+00 -0.00000000000E+00 -0.20604712779E+03  0.20604712779E+03  0.00000000000E+00 0.  1.
         25    2    1    2    0    0 -0.16219442541E+02 -0.23096752694E+01 -0.19298262583E+02  0.12762606388E+03  0.12509030469E+03 0.  0.
          5    1    3    3  502    0 -0.15841862775E+02 -0.38707702853E+02 -0.59746540371E+02  0.73050478182E+02  0.41800000000E+01 0. -1.
         -5    1    3    3    0  502 -0.37757976612E+00  0.36398027584E+02  0.40448277788E+02  0.54575585700E+02  0.41800000000E+01 0. -1.
        -11    1    1    2    0    0  0.12919161448E+02 -0.34789901920E+02 -0.97563242526E+02  0.10438308436E+03  0.00000000000E+00 0.  1.
         11    1    1    2    0    0  0.33002810933E+01  0.37099577190E+02 -0.20640657166E+02  0.42582945074E+02  0.00000000000E+00 0. -1.
</event>
<event>
 7    1  0.2490079E-009  0.1057240E+03  0.7561462E-02  0.1268700E+00
         -2   -1    0    0    0  501 -0.00000000000E+00  0.00000000000E+00  0.30129116402E+03  0.30129116402E+03  0.00000000000E+00 0.  1.
          2   -1    0    0  501    0  0.00000000000E+00 -0.00000000000E+00 -0.45689298210E+02  0.45689298210E+02  0.00000000000E+00 0. -1.
         25    2    1    2    0    0 -0.24368651737E+02  0.31900051582E+02  0.12228163029E+03  0.17947587497E+03  0.12508936050E+03 0.  0.
          5    1    3    3  502    0  0.17599360198E+02 -0.37718820797E+02  0.14209911427E+02  0.44179643553E+02  0.41800000000E+01 0. -1.
         -5    1    3    3    0  502 -0.41968011935E+02  0.69618872379E+02  0.10807171887E+03  0.13529623142E+03  0.41800000000E+01 0. -1.
        -11    1    1    2    0    0  0.52937148122E+02 -0.14982804620E+02  0.11947142488E+03  0.13153040504E+03  0.00000000000E+00 0.  1.
         11    1    1    2    0    0 -0.28568496385E+02 -0.16917246962E+02  0.13848810629E+02  0.35974182219E+02  0.00000000000E+00 0. -1.
</event>
<event>
 7    1  0.2490079E-009  0.1374294E+03  0.7561462E-02  0.1216830E+00
          2   -1    0    0  501    0  0.00000000000E+00  0.00000000000E+00  0.30220147803E+03  0.30220147803E+03  0.00000000000E+00 0. -1.
         -2   -1    0    0    0  501 -0.00000000000E+00 -0.00000000000E+00 -0.90150298599E+02  0.90150298599E+02  0.00000000000E+00 0.  1.
         25    2    1    2    0    0  0.11757176649E+03  0.12282912169E+02  0.15947695712E+03  0.23463685741E+03  0.12509022662E+03 0.  0.
          5    1    3    3  502    0  0.25045040703E+02 -0.34263015793E+02 -0.20659180701E+01  0.42696003707E+02  0.41800000000E+01 0. -1.
         -5    1    3    3    0  502  0.92526725784E+02  0.46545927962E+02  0.16154287519E+03  0.19194085370E+03  0.41800000000E+01 0. -1.
        -11    1    1    2    0    0 -0.35137981981E+02  0.19522461274E+02 -0.18566829621E+02  0.44277888772E+02  0.00000000000E+00 0.  1.
         11    1    1    2    0    0 -0.82433784506E+02 -0.31805373444E+02  0.71141051934E+02  0.11343703045E+03  0.00000000000E+00 0. -1.
</event>
<event>
 7    1  0.2490079E-009  0.1084659E+03  0.7561462E-02  0.1263437E+00
         -3   -1    0    0    0  501 -0.00000000000E+00  0.00000000000E+00  0.13710216634E+03  0.13710216634E+03  0.00000000000E+00 0.  1.
          3   -1    0    0  501    0  0.00000000000E+00 -0.00000000000E+00 -0.11437279025E+03  0.11437279025E+03  0.00000000000E+00 0. -1.
         25    2    1    2    0    0 -0.37579443077E+02  0.38706685857E+02  0.29775172253E+02  0.13944305597E+03  0.12508949958E+03 0.  0.
          5    1    3    3  502    0  0.31432174544E+02  0.11163215761E+02 -0.29167593347E+02  0.44506402735E+02  0.41800000000E+01 0. -1.
         -5    1    3    3    0  502 -0.69011617621E+02  0.27543470096E+02  0.58942765600E+02  0.94936653239E+02  0.41800000000E+01 0. -1.
        -11    1    1    2    0    0 -0.31948239993E+02 -0.83129331494E+01  0.95335961989E+01  0.34361087769E+02  0.00000000000E+00 0.  1.
         11    1    1    2    0    0  0.69527683070E+02 -0.30393752708E+02 -0.16579392359E+02  0.77670812843E+02  0.00000000000E+00 0. -1.
</event>
<event>
 7    1  0.2490079E-009  0.1983542E+03  0.7561462E-02  0.1151135E+00
         -2   -1    0    0    0  501 -0.00000000000E+00  0.00000000000E+00  0.19614042868E+03  0.19614042868E+03  0.00000000000E+00 0.  1.
          2   -1    0    0  501    0  0.00000000000E+00 -0.00000000000E+00 -0.24963796895E+03  0.24963796895E+03  0.00000000000E+00 0. -1.
         25    2    1    2    0    0  0.15572072049E+03  0.11478397415E+03 -0.50906838679E+02  0.23593025553E+03  0.12508907122E+03 0.  0.
          5    1    3    3  502    0  0.35683157350E+01  0.40849727498E+01  0.30217210397E+02  0.30983416269E+02  0.41800000000E+01 0.  1.
         -5    1    3    3    0  502  0.15215240475E+03  0.11069900140E+03 -0.81124049076E+02  0.20494683926E+03  0.41800000000E+01 0.  1.
        -11    1    1    2    0    0 -0.70787460573E+02 -0.18305540767E+02 -0.28945537693E+02  0.78637151204E+02  0.00000000000E+00 0. -1.
         11    1    1    2    0    0 -0.84933259917E+02 -0.96478433384E+02  0.26354836101E+02  0.13121099091E+03  0.00000000000E+00 0.  1.
</event>
<event>
 7    1  0.2490079E-009  0.8825462E+02  0.7561462E-02  0.1307134E+00
         -1   -1    0    0    0  501 -0.00000000000E+00  0.00000000000E+00  0.11726191107E+03  0.11726191107E+03  0.00000000000E+00 0.  1.
          1   -1    0    0  501    0  0.00000000000E+00 -0.00000000000E+00 -0.12995019948E+03  0.12995019948E+03  0.00000000000E+00 0. -1.
         25    2    1    2    0    0 -0.41004917146E+02  0.26279414551E+02 -0.40082767918E+02  0.14008997929E+03  0.12508622287E+03 0.  0.
          5    1    3    3  502    0 -0.17206238327E+02  0.45413659051E+02  0.34281456570E+02  0.59591490419E+02  0.41800000000E+01 0. -1.
         -5    1    3    3    0  502 -0.23798678820E+02 -0.19134244500E+02 -0.74364224488E+02  0.80498488867E+02  0.41800000000E+01 0. -1.
        -11    1    1    2    0    0 -0.25324003052E+02  0.71125630280E+00 -0.88841688328E+01  0.26846591440E+02  0.00000000000E+00 0.  1.
         11    1    1    2    0    0  0.66328920198E+02 -0.26990670854E+02  0.36278648339E+02  0.80275539818E+02  0.00000000000E+00 0. -1.
</event>
<event>
 7    1  0.2490079E-009  0.2803177E+03  0.7561462E-02  0.1095516E+00
          2   -1    0    0  501    0  0.00000000000E+00  0.00000000000E+00  0.75663269007E+03  0.75663269007E+03  0.00000000000E+00 0. -1.
         -2   -1    0    0    0  501 -0.00000000000E+00 -0.00000000000E+00 -0.11680369545E+03  0.11680369545E+03  0.00000000000E+00 0.  1.
         25    2    1    2    0    0  0.38706526619E+02 -0.27078236791E+03  0.26593150561E+03  0.40148259203E+03  0.12508964806E+03 0.  0.
          5    1    3    3  502    0  0.29002572511E+02 -0.27252633672E+02  0.96938927668E+02  0.10487365423E+03  0.41800000000E+01 0. -1.
         -5    1    3    3    0  502  0.97039541082E+01 -0.24352973423E+03  0.16899257794E+03  0.29660893780E+03  0.41800000000E+01 0. -1.
        -11    1    1    2    0    0 -0.26879831077E+02  0.59998421269E+02  0.40134789031E+02  0.77026860017E+02  0.00000000000E+00 0.  1.
         11    1    1    2    0    0 -0.11826695542E+02  0.21078394664E+03  0.33376269998E+03  0.39492693348E+03  0.00000000000E+00 0. -1.
</event>
<event>
 7    1  0.2490079E-009  0.1374372E+03  0.7561462E-02  0.1216820E+00
         -2   -1    0    0    0  501 -0.00000000000E+00  0.00000000000E+00  0.35529261250E+02  0.35529261250E+02  0.00000000000E+00 0.  1.
          2   -1    0    0  501    0  0.00000000000E+00 -0.00000000000E+00 -0.76930768922E+03  0.76930768922E+03  0.00000000000E+00 0. -1.
         25    2    1    2    0    0  0.11231713802E+03  0.37338219163E+02 -0.29751907745E+03  0.34376509406E+03  0.12509019283E+03 0.  0.
          5    1    3    3  502    0  0.57737721299E+02  0.64921676813E+02 -0.25429905194E+03  0.26876374160E+03  0.41800000000E+01 0.  1.
         -5    1    3    3    0  502  0.54579416718E+02 -0.27583457650E+02 -0.43220025506E+02  0.75001352455E+02  0.41800000000E+01 0.  1.
        -11    1    1    2    0    0 -0.34569408940E+02  0.94722113400E+01 -0.36561126300E+02  0.51200417757E+02  0.00000000000E+00 0.  1.
         11    1    1    2    0    0 -0.77747729077E+02 -0.46810430503E+02 -0.39969822423E+03  0.40987143866E+03  0.00000000000E+00 0. -1.
</event>
<event>
 7    1  0.4545564E-009  0.1918795E+03  0.7561462E-02  0.1156777E+00
          1   -1    0    0  501    0  0.00000000000E+00  0.00000000000E+00  0.11437828426E+04  0.11437828426E+04  0.00000000000E+00 0. -1.
         -1   -1    0    0    0  501 -0.00000000000E+00 -0.00000000000E+00 -0.40185858061E+02  0.40185858061E+02  0.00000000000E+00 0.  1.
         25    2    1    2    0    0 -0.22318570613E+02  0.18282897149E+03  0.60023259103E+03  0.64019619702E+03  0.12508979150E+03 0.  0.
          5    1    3    3  502    0 -0.44370394694E+02  0.15362159214E+03  0.32205421803E+03  0.35958965119E+03  0.41800000000E+01 0.  1.
         -5    1    3    3    0  502  0.22051824081E+02  0.29207379344E+02  0.27817837300E+03  0.28060654583E+03  0.41800000000E+01 0.  1.
        -11    1    1    2    0    0  0.27380256723E+02 -0.91739987998E+02  0.37003060821E+03  0.38221532527E+03  0.00000000000E+00 0.  1.
         11    1    1    2    0    0 -0.50616861094E+01 -0.91088983489E+02  0.13333378525E+03  0.16155717833E+03  0.00000000000E+00 0. -1.
</event>
<event>
 7    1  0.2490079E-009  0.1695990E+03  0.7561462E-02  0.1178267E+00
          1   -1    0    0  501    0  0.00000000000E+00  0.00000000000E+00  0.76550050232E+02  0.76550050232E+02  0.00000000000E+00 0. -1.
         -1   -1    0    0    0  501 -0.00000000000E+00 -0.00000000000E+00 -0.49408222361E+03  0.49408222361E+03  0.00000000000E+00 0.  1.
         25    2    1    2    0    0  0.11954960736E+03  0.69864126196E+02 -0.33686112036E+03  0.38509240196E+03  0.12509052277E+03 0.  0.
          5    1    3    3  502    0  0.21097519154E+02 -0.35955657112E+02 -0.70281941655E+02  0.81822602718E+02  0.41800000000E+01 0. -1.
         -5    1    3    3    0  502  0.98452088204E+02  0.10581978331E+03 -0.26657917870E+03  0.30326979924E+03  0.41800000000E+01 0. -1.
        -11    1    1    2    0    0 -0.10614723151E+02  0.12307663841E+02  0.12337282953E+02  0.20404888813E+02  0.00000000000E+00 0. -1.
         11    1    1    2    0    0 -0.10893488421E+03 -0.82171790037E+02 -0.93008335975E+02  0.16513498308E+03  0.00000000000E+00 0.  1.
</event>
<event>
 7    1  0.3143536E-009  0.1634121E+03  0.7561462E-02  0.1184897E+00
          1   -1    0    0  501    0  0.00000000000E+00  0.00000000000E+00  0.55861188488E+03  0.55861188488E+03  0.00000000000E+00 0. -1.
         -1   -1    0    0    0  501 -0.00000000000E+00 -0.00000000000E+00 -0.67812715665E+02  0.67812715665E+02  0.00000000000E+00 0.  1.
         25    2    1    2    0    0  0.42977022844E+02  0.15506747074E+03  0.27076270749E+03  0.33890024642E+03  0.12509191932E+03 0.  0.
          5    1    3    3  502    0  0.32196528953E+02  0.87200907147E+02  0.25036607911E+03  0.26709784846E+03  0.41800000000E+01 0. -1.
         -5    1    3    3    0  502  0.10780493891E+02  0.67866563595E+02  0.20396628378E+02  0.71802397954E+02  0.41800000000E+01 0. -1.
        -11    1    1    2    0    0  0.64111193210E+01 -0.12445364539E+02 -0.64024422423E+01  0.15394181242E+02  0.00000000000E+00 0.  1.
         11    1    1    2    0    0 -0.49388142166E+02 -0.14262210620E+03  0.22643890396E+03  0.27213017288E+03  0.00000000000E+00 0. -1.
</event>
<event>
 7    1  0.2490079E-009  0.1740454E+03  0.7561462E-02  0.1173694E+00
         -3   -1    0    0    0  501 -0.00000000000E+00  0.00000000000E+00  0.15321192190E+03  0.15321192190E+03  0.00000000000E+00 0.  1.
          3   -1    0    0  501    0  0.00000000000E+00 -0.00000000000E+00 -0.28942663281E+03  0.28942663281E+03  0.00000000000E+00 0. -1.
         25    2    1    2    0    0 -0.72422670162E+02 -0.14384423397E+03  0.14466930878E+02  0.20443394153E+03  0.12509091718E+03 0.  0.
          5    1    3    3  502    0 -0.60375368623E+01  0.39932124510E+01 -0.34174251573E+02  0.35181663798E+02  0.41800000000E+01 0. -1.
         -5    1    3    3    0  502 -0.66385133300E+02 -0.14783744642E+03  0.48641182451E+02  0.16925227774E+03  0.41800000000E+01 0. -1.
        -11    1    1    2    0    0  0.51407316382E+02  0.25426534152E+02 -0.20335110155E+02  0.60850123431E+02  0.00000000000E+00 0.  1.
         11    1    1    2    0    0  0.21015353781E+02  0.11841769982E+03 -0.13034653163E+03  0.17735448974E+03  0.00000000000E+00 0. -1.
</event>
<event>
 7    1  0.2490079E-009  0.8425746E+02  0.7561462E-02  0.1317386E+00
         -3   -1    0    0    0  501 -0.00000000000E+00  0.00000000000E+00  0.18356098621E+03  0.18356098621E+03  0.00000000000E+00 0.  1.
          3   -1    0    0  501    0  0.00000000000E+00 -0.00000000000E+00 -0.69494706818E+02  0.69494706818E+02  0.00000000000E+00 0. -1.
         25    2    1    2    0    0  0.37330011089E+02  0.36426092491E+01  0.57499762244E+02  0.14269299479E+03  0.12509304446E+03 0.  0.
          5    1    3    3  502    0  0.61375031728E+02 -0.43304177660E+02  0.47131918289E+02  0.88775201740E+02  0.41800000000E+01 0. -1.
         -5    1    3    3    0  502 -0.24045020639E+02  0.46946786909E+02  0.10367843955E+02  0.53917793045E+02  0.41800000000E+01 0. -1.
        -11    1    1    2    0    0 -0.28346561045E+02 -0.92087216916E+01  0.79612758274E+02  0.85008936932E+02  0.00000000000E+00 0.  1.
         11    1    1    2    0    0 -0.89834500444E+01  0.55661124424E+01 -0.23046241128E+02  0.25353761310E+02  0.00000000000E+00 0. -1.
</event>
<event>
 7    1  0.2490079E-009  0.1307416E+03  0.7561462E-02  0.1226359E+00
         -2   -1    0    0    0  501 -0.00000000000E+00  0.00000000000E+00  0.10266971669E+03  0.10266971669E+03  0.00000000000E+00 0.  1.
          2   -1    0    0  501    0  0.00000000000E+00 -0.00000000000E+00 -0.20798758324E+03  0.20798758324E+03  0.00000000000E+00 0. -1.
         25    2    1    2    0    0 -0.82692815240E+02  0.51245514291E+02 -0.47079458807E+02  0.16531287924E+03  0.12509063984E+03 0.  0.
          5    1    3    3  502    0  0.21410613924E+02  0.22845743074E+02  0.20745344606E+02  0.37791322920E+02  0.41800000000E+01 0.  1.
         -5    1    3    3    0  502 -0.10410342916E+03  0.28399771217E+02 -0.67824803413E+02  0.12752155632E+03  0.41800000000E+01 0.  1.
        -11    1    1    2    0    0  0.82905978161E+02 -0.66727163779E+02 -0.25958651259E+02  0.10954344880E+03  0.00000000000E+00 0.  1.
         11    1    1    2    0    0 -0.21316292080E+00  0.15481649488E+02 -0.32279756483E+02  0.35800971885E+02  0.00000000000E+00 0. -1.
</event>
<event>
 7    1  0.2490079E-009  0.1109767E+03  0.7561462E-02  0.1258772E+00
          1   -1    0    0  501    0  0.00000000000E+00  0.00000000000E+00  0.29324553135E+03  0.29324553135E+03  0.00000000000E+00 0. -1.
         -1   -1    0    0    0  501 -0.00000000000E+00 -0.00000000000E+00 -0.76323327820E+02  0.76323327820E+02  0.00000000000E+00 0.  1.
         25    2    1    2    0    0  0.91811623371E+01  0.61038223302E+02  0.21958202905E+03  0.26014192366E+03  0.12509034543E+03 0.  0.
          5    1    3    3  502    0  0.51104716856E+02  0.44593938393E+02  0.49294430972E+02  0.83950728116E+02  0.41800000000E+01 0.  1.
         -5    1    3    3    0  502 -0.41923554519E+02  0.16444284910E+02  0.17028759807E+03  0.17619119555E+03  0.41800000000E+01 0.  1.
        -11    1    1    2    0    0  0.33067738998E+02 -0.57557408457E+02  0.40661961748E+01  0.66504620757E+02  0.00000000000E+00 0. -1.
         11    1    1    2    0    0 -0.42248901335E+02 -0.34808148452E+01 -0.67260216895E+01  0.42922314753E+02  0.00000000000E+00 0.  1.
</event>
<event>
 7    1  0.2490079E-009  0.6402097E+02  0.7561462E-02  0.1381693E+00
         -1   -1    0    0    0  501 -0.00000000000E+00  0.00000000000E+00  0.15346150426E+03  0.15346150426E+03  0.00000000000E+00 0.  1.
          1   -1    0    0  501    0  0.00000000000E+00 -0.00000000000E+00 -0.98197062491E+02  0.98197062491E+02  0.00000000000E+00 0. -1.
         25    2    1    2    0    0 -0.96315288186E+01  0.35061075425E+02  0.86665167882E+02  0.15646183895E+03  0.12508960935E+03 0.  0.
          5    1    3    3  502    0 -0.10731714877E+02  0.21372044487E+02 -0.30182957240E+02  0.38735220375E+02  0.41800000000E+01 0.  1.
         -5    1    3    3    0  502  0.11001860581E+01  0.13689030938E+02  0.11684812512E+03  0.11772661858E+03  0.41800000000E+01 0.  1.
        -11    1    1    2    0    0  0.21403058838E+02  0.22266660496E+02 -0.63206538990E+01  0.31525319396E+02  0.00000000000E+00 0. -1.
         11    1    1    2    0    0 -0.11771530020E+02 -0.57327735921E+02 -0.25080072218E+02  0.63671408397E+02  0.00000000000E+00 0.  1.
</event>
<event>
 7    1  0.2490079E-009  0.1473777E+03  0.7561462E-02  0.1203733E+00
          2   -1    0    0  501    0  0.00000000000E+00  0.00000000000E+00  0.27511532845E+03  0.27511532845E+03  0.00000000000E+00 0. -1.
         -2   -1    0    0    0  501 -0.00000000000E+00 -0.00000000000E+00 -0.88397502475E+02  0.88397502475E+02  0.00000000000E+00 0.  1.
         25    2    1    2    0    0 -0.18498538353E+02  0.10927025401E+03  0.82355983446E+02  0.18631084825E+03  0.12508812826E+03 0.  0.
          5    1    3    3  502    0  0.45398202138E+02  0.65332531071E+01  0.23399496174E+02  0.51659355152E+02  0.41800000000E+01 0.  1.
         -5    1    3    3    0  502 -0.63896740491E+02  0.10273700091E+03  0.58956487272E+02  0.13465149309E+03  0.41800000000E+01 0.  1.
        -11    1    1    2    0    0 -0.13821359002E+02 -0.13653355215E+00  0.48466386204E+02  0.50398801551E+02  0.00000000000E+00 0. -1.
         11    1    1    2    0    0  0.32319897355E+02 -0.10913372046E+03  0.55895456328E+02  0.12680318113E+03  0.00000000000E+00 0.  1.
</event>
<event>
 7    1  0.2490079E-009  0.1513026E+03  0.7561462E-02  0.1198881E+00
          1   -1    0    0  501    0  0.00000000000E+00  0.00000000000E+00  0.23687306340E+04  0.23687306340E+04  0.00000000000E+00 0. -1.
         -1   -1    0    0    0  501 -0.00000000000E+00 -0.00000000000E+00 -0.15791326044E+02  0.15791326044E+02  0.00000000000E+00 0.  1.
         25    2    1    2    0    0 -0.83713997707E+01 -0.12104172525E+03  0.18812804707E+04  0.18893345186E+04  0.12509010464E+03 0.  0.
          5    1    3    3  502    0 -0.46550404473E+02 -0.95653986785E+02  0.16548449411E+04  0.16582659246E+04  0.41800000000E+01 0.  1.
         -5    1    3    3    0  502  0.38179004703E+02 -0.25387738462E+02  0.22643552963E+03  0.23106859403E+03  0.41800000000E+01 0.  1.
        -11    1    1    2    0    0  0.25655953384E+02  0.12867571410E+03  0.42675407919E+03  0.44646916070E+03  0.00000000000E+00 0.  1.
         11    1    1    2    0    0 -0.17284553613E+02 -0.76339888557E+01  0.44904758111E+02  0.48718280762E+02  0.00000000000E+00 0. -1.
</event>
<event>
 7    1  0.2490079E-009  0.1654389E+03  0.7561462E-02  0.1182690E+00
         -2   -1    0    0    0  501 -0.00000000000E+00  0.00000000000E+00  0.46245079674E+03  0.46245079674E+03  0.00000000000E+00 0.  1.
          2   -1    0    0  501    0  0.00000000000E+00 -0.00000000000E+00 -0.63219910214E+02  0.63219910214E+02  0.00000000000E+00 0. -1.
         25    2    1    2    0    0  0.40609176926E+02 -0.12288783080E+03  0.17645558587E+03  0.25206037738E+03  0.12508931150E+03 0.  0.
          5    1    3    3  502    0 -0.29496650634E+02  0.77151132754E+01  0.40623896144E+02  0.50964190462E+02  0.41800000000E+01 0. -1.
         -5    1    3    3    0  502  0.70105827560E+02 -0.13060294407E+03  0.13583168973E+03  0.20109618692E+03  0.41800000000E+01 0. -1.
        -11    1    1    2    0    0 -0.35424791419E+02  0.73725689267E+01  0.23279026459E+02  0.43025384281E+02  0.00000000000E+00 0.  1.
         11    1    1    2    0    0 -0.51843855064E+01  0.11551526187E+03  0.19949627420E+03  0.23058494529E+03  0.00000000000E+00 0. -1.
</event>
<event>
 7    1  0.2490079E-009  0.1293805E+03  0.7561462E-02  0.1228378E+00
          2   -1    0    0  501    0  0.00000000000E+00  0.00000000000E+00  0.43445210673E+03  0.43445210673E+03  0.00000000000E+00 0. -1.
         -2   -1    0    0    0  501 -0.00000000000E+00 -0.00000000000E+00 -0.46846034640E+02  0.46846034640E+02  0.00000000000E+00 0.  1.
         25    2    1    2    0    0 -0.64297378806E+02  0.66417319671E+02  0.19475221187E+03  0.24924140641E+03  0.12508973328E+03 0.  0.
          5    1    3    3  502    0 -0.53664931341E+02  0.89686865166E+02  0.19717873951E+03  0.22320525610E+03  0.41800000000E+01 0.  1.
         -5    1    3    3    0  502 -0.10632447464E+02 -0.23269545495E+02 -0.24265276402E+01  0.26036150311E+02  0.41800000000E+01 0.  1.
        -11    1    1    2    0    0  0.81916273125E+01  0.22026149917E+02  0.46307558742E+02  0.51929221396E+02  0.00000000000E+00 0.  1.
         11    1    1    2    0    0  0.56105751493E+02 -0.88443469587E+02  0.14654630149E+03  0.18012751356E+03  0.00000000000E+00 0. -1.
</event>
<event>
 7    1  0.2490079E-009  0.9267940E+02  0.7561462E-02  0.1296490E+00
          1   -1    0    0  501    0  0.00000000000E+00  0.00000000000E+00  0.76843758310E+02  0.76843758310E+02  0.00000000000E+00 0. -1.
         -1   -1    0    0    0  501 -0.00000000000E+00 -0.00000000000E+00 -0.19169664123E+03  0.19169664123E+03  0.00000000000E+00 0.  1.
         25    2    1    2    0    0 -0.88326047079E+01 -0.42447814821E+02 -0.24658737917E+02  0.13466480086E+03  0.12508686320E+03 0.  0.
          5    1    3    3  502    0  0.39784752130E+02  0.26019934706E+02 -0.28561247646E+01  0.47806833746E+02  0.41800000000E+01 0.  1.
         -5    1    3    3    0  502 -0.48617356838E+02 -0.68467749527E+02 -0.21802613153E+02  0.86857967115E+02  0.41800000000E+01 0.  1.
        -11    1    1    2    0    0 -0.73493742390E+01  0.34970243605E+02 -0.10486653608E+03  0.11078773230E+03  0.00000000000E+00 0.  1.
         11    1    1    2    0    0  0.16181978947E+02  0.74775712159E+01  0.14672391076E+02  0.23087866376E+02  0.00000000000E+00 0. -1.
</event>
<event>
 7    1  0.2490079E-009  0.1157983E+03  0.7561462E-02  0.1250194E+00
         -2   -1    0    0    0  501 -0.00000000000E+00  0.00000000000E+00  0.37438044582E+02  0.37438044582E+02  0.00000000000E+00 0. -1.
          2   -1    0    0  501    0  0.00000000000E+00 -0.00000000000E+00 -0.40165909650E+03  0.40165909650E+03  0.00000000000E+00 0.  1.
         25    2    1    2    0    0 -0.34730587754E+02  0.47504809783E+02 -0.20568626396E+03  0.24782434823E+03  0.12508855950E+03 0.  0.
          5    1    3    3  502    0  0.35944350204E+02  0.49596327738E+02 -0.13220046308E+03  0.14576085508E+03  0.41800000000E+01 0.  1.
         -5    1    3    3    0  502 -0.70674937958E+02 -0.20915179557E+01 -0.73485800880E+02  0.10206349315E+03  0.41800000000E+01 0.  1.
        -11    1    1    2    0    0  0.21471754220E+02  0.20739630448E+02 -0.19021176282E+02  0.35397367806E+02  0.00000000000E+00 0. -1.
         11    1    1    2    0    0  0.13258833534E+02 -0.68244440231E+02 -0.13951361168E+03  0.15587542504E+03  0.00000000000E+00 0.  1.
</event>
<event>
 7    1  0.2490079E-009  0.1441176E+03  0.7561462E-02  0.1207893E+00
          2   -1    0    0  501    0  0.00000000000E+00  0.00000000000E+00  0.16317193492E+03  0.16317193492E+03  0.00000000000E+00 0. -1.
         -2   -1    0    0    0  501 -0.00000000000E+00 -0.00000000000E+00 -0.16863124225E+03  0.16863124225E+03  0.00000000000E+00 0.  1.
         25    2    1    2    0    0  0.13280802170E+01  0.12535604099E+03  0.43806672374E+00  0.17709705209E+03  0.12508906086E+03 0.  0.
          5    1    3    3  502    0  0.49113876265E+01 -0.12235197721E+02  0.32841033193E+02  0.35634641192E+02  0.41800000000E+01 0. -1.
         -5    1    3    3    0  502 -0.35833074095E+01  0.13759123871E+03 -0.32402966469E+02  0.14146241090E+03  0.41800000000E+01 0. -1.
        -11    1    1    2    0    0  0.20955999381E+02 -0.19834869055E+02 -0.32666315419E+02  0.43585136269E+02  0.00000000000E+00 0.  1.
         11    1    1    2    0    0 -0.22284079598E+02 -0.10552117194E+03  0.26768941364E+02  0.11112098880E+03  0.00000000000E+00 0. -1.
</event>
<event>
 7    1  0.2490079E-009  0.1036790E+03  0.7561462E-02  0.1272744E+00
          2   -1    0    0  501    0  0.00000000000E+00  0.00000000000E+00  0.13090154769E+03  0.13090154769E+03  0.00000000000E+00 0. -1.
         -2   -1    0    0    0  501 -0.00000000000E+00 -0.00000000000E+00 -0.15449226139E+03  0.15449226139E+03  0.00000000000E+00 0.  1.
         25    2    1    2    0    0 -0.62211613360E+02 -0.63926809797E+02 -0.34356274396E+02  0.15743047342E+03  0.12508828292E+03 0.  0.
          5    1    3    3  502    0  0.16722644797E+00 -0.50183290368E+02 -0.68393193705E+02  0.84932278564E+02  0.41800000000E+01 0. -1.
         -5    1    3    3    0  502 -0.62378839808E+02 -0.13743519429E+02  0.34036919309E+02  0.72498194861E+02  0.41800000000E+01 0. -1.
        -11    1    1    2    0    0  0.34853997696E+02  0.17257816431E+02 -0.38550818555E+02  0.54761291024E+02  0.00000000000E+00 0.  1.
         11    1    1    2    0    0  0.27357615664E+02  0.46668993366E+02  0.49316379245E+02  0.73202044633E+02  0.00000000000E+00 0. -1.
</event>
<event>
 7    1  0.2490079E-009  0.1425623E+03  0.7561462E-02  0.1209922E+00
         -1   -1    0    0    0  501 -0.00000000000E+00  0.00000000000E+00  0.51649123354E+02  0.51649123354E+02  0.00000000000E+00 0.  1.
          1   -1    0    0  501    0  0.00000000000E+00 -0.00000000000E+00 -0.54489876764E+03  0.54489876764E+03  0.00000000000E+00 0. -1.
         25    2    1    2    0    0 -0.85401251914E+02 -0.95292420618E+02 -0.23502601020E+03  0.29539611711E+03  0.12509045238E+03 0.  0.
          5    1    3    3  502    0 -0.41788393921E+02 -0.66322852585E+02 -0.22953264910E+03  0.24258544896E+03  0.41800000000E+01 0.  1.
         -5    1    3    3    0  502 -0.43612857993E+02 -0.28969568033E+02 -0.54933610949E+01  0.52810668150E+02  0.41800000000E+01 0.  1.
        -11    1    1    2    0    0  0.10234480238E+03  0.90163663258E+02 -0.23765247543E+03  0.27401212350E+03  0.00000000000E+00 0. -1.
         11    1    1    2    0    0 -0.16943550470E+02  0.51287573606E+01 -0.20571158658E+02  0.27139650387E+02  0.00000000000E+00 0.  1.
</event>
<event>
 7    1  0.2490079E-009  0.9095441E+02  0.7561462E-02  0.1300557E+00
          1   -1    0    0  501    0  0.00000000000E+00  0.00000000000E+00  0.90177634648E+03  0.90177634648E+03  0.00000000000E+00 0. -1.
         -1   -1    0    0    0  501 -0.00000000000E+00 -0.00000000000E+00 -0.15166432556E+02  0.15166432556E+02  0.00000000000E+00 0.  1.
         25    2    1    2    0    0  0.12749843326E+02  0.92568746239E+00  0.66706439573E+03  0.67881212467E+03  0.12509027598E+03 0.  0.
          5    1    3    3  502    0 -0.38727145904E+02  0.31057345062E+00  0.54340703745E+03  0.54480140330E+03  0.41800000000E+01 0.  1.
         -5    1    3    3    0  502  0.51476989230E+02  0.61511401177E+00  0.12365735828E+03  0.13401072137E+03  0.41800000000E+01 0.  1.
        -11    1    1    2    0    0  0.13508004251E+02 -0.41127013780E+02  0.87425816669E+02  0.97555988343E+02  0.00000000000E+00 0.  1.
         11    1    1    2    0    0 -0.26257847577E+02  0.40201326318E+02  0.13211970153E+03  0.14057466603E+03  0.00000000000E+00 0. -1.
</event>
<event>
 7    1  0.2490079E-009  0.1613376E+03  0.7561462E-02  0.1187195E+00
         -2   -1    0    0    0  501 -0.00000000000E+00  0.00000000000E+00  0.21295784419E+03  0.21295784419E+03  0.00000000000E+00 0. -1.
          2   -1    0    0  501    0  0.00000000000E+00 -0.00000000000E+00 -0.13345338115E+03  0.13345338115E+03  0.00000000000E+00 0.  1.
         25    2    1    2    0    0  0.11131552143E+03 -0.45351254227E+02  0.89330166079E+02  0.19512995159E+03  0.12509171781E+03 0.  0.
          5    1    3    3  502    0 -0.69065491315E+01  0.30431591182E+02  0.26833625055E+02  0.41367837705E+02  0.41800000000E+01 0. -1.
         -5    1    3    3    0  502  0.11822207056E+03 -0.75782845409E+02  0.62496541024E+02  0.15376211388E+03  0.41800000000E+01 0. -1.
        -11    1    1    2    0    0 -0.13777753519E+02  0.51169135547E+02  0.77135515880E+00  0.52997187788E+02  0.00000000000E+00 0.  1.
         11    1    1    2    0    0 -0.97537767907E+02 -0.58178813194E+01 -0.10597058196E+02  0.98284085964E+02  0.00000000000E+00 0. -1.
</event>
<event>
 7    1  0.2490079E-009  0.9755748E+02  0.7561462E-02  0.1285518E+00
         -1   -1    0    0    0  501 -0.00000000000E+00  0.00000000000E+00  0.32664900481E+03  0.32664900481E+03  0.00000000000E+00 0.  1.
          1   -1    0    0  501    0  0.00000000000E+00 -0.00000000000E+00 -0.43375079114E+02  0.43375079114E+02  0.00000000000E+00 0. -1.
         25    2    1    2    0    0  0.77154166881E+01  0.45097661624E+02  0.17752275150E+03  0.22193481491E+03  0.12508960000E+03 0.  0.
          5    1    3    3  502    0  0.20731576820E+02  0.64709868393E+02  0.33376810419E+02  0.75819847128E+02  0.41800000000E+01 0.  1.
         -5    1    3    3    0  502 -0.13016160132E+02 -0.19612206769E+02  0.14414594108E+03  0.14611496778E+03  0.41800000000E+01 0.  1.
        -11    1    1    2    0    0  0.25405929495E+02 -0.61227988695E+02  0.60593062649E+02  0.89810061208E+02  0.00000000000E+00 0. -1.
         11    1    1    2    0    0 -0.33121346183E+02  0.16130327071E+02  0.45158111552E+02  0.58279207813E+02  0.00000000000E+00 0.  1.
</event>
<event>
 7    1  0.2490079E-009  0.1633676E+03  0.7561462E-02  0.1184946E+00
         -1   -1    0    0    0  501 -0.00000000000E+00  0.00000000000E+00  0.27047869451E+02  0.27047869451E+02  0.00000000000E+00 0.  1.
          1   -1    0    0  501    0  0.00000000000E+00 -0.00000000000E+00 -0.17467649136E+04  0.17467649136E+04  0.00000000000E+00 0. -1.
         25    2    1    2    0    0  0.15379194481E+03  0.42866145843E+02 -0.12981626455E+04  0.13139111979E+04  0.12508762151E+03 0.  0.
          5    1    3    3  502    0  0.14030621242E+03  0.36358792168E+02 -0.66797857847E+03  0.68353540413E+03  0.41800000000E+01 0. -1.
         -5    1    3    3    0  502  0.13485732389E+02  0.65073536758E+01 -0.63018406703E+03  0.63037579376E+03  0.41800000000E+01 0. -1.
        -11    1    1    2    0    0 -0.26434611803E+02 -0.27101795031E+02 -0.31405912197E+02  0.49189707419E+02  0.00000000000E+00 0.  1.
         11    1    1    2    0    0 -0.12735733300E+03 -0.15764350813E+02 -0.39014848641E+03  0.41071187769E+03  0.00000000000E+00 0. -1.
</event>
<event>
 7    1  0.2490079E-009  0.1334124E+03  0.7561462E-02  0.1222478E+00
          1   -1    0    0  501    0  0.00000000000E+00  0.00000000000E+00  0.39894507896E+03  0.39894507896E+03  0.00000000000E+00 0. -1.
         -1   -1    0    0    0  501 -0.00000000000E+00 -0.00000000000E+00 -0.66469653091E+02  0.66469653091E+02  0.00000000000E+00 0.  1.
         25    2    1    2    0    0  0.80807342483E+02  0.20770038471E+02  0.51757591736E+02  0.15902157357E+03  0.12509113262E+03 0.  0.
          5    1    3    3  502    0  0.24531703897E+02 -0.48829726880E+02  0.41681436524E+02  0.68854638725E+02  0.41800000000E+01 0. -1.
         -5    1    3    3    0  502  0.56275638586E+02  0.69599765351E+02  0.10076155213E+02  0.90166934844E+02  0.41800000000E+01 0. -1.
        -11    1    1    2    0    0 -0.95717211261E+02  0.13675540105E+01  0.20935696505E+03  0.23020424312E+03  0.00000000000E+00 0.  1.
         11    1    1    2    0    0  0.14909868778E+02 -0.22137592482E+02  0.71360869077E+02  0.76188915357E+02  0.00000000000E+00 0. -1.
</event>
<event>
 7    1  0.2490079E-009  0.1859724E+03  0.7561462E-02  0.1162145E+00
         -1   -1    0    0    0  501 -0.00000000000E+00  0.00000000000E+00  0.78465158575E+03  0.78465158575E+03  0.00000000000E+00 0.  1.
          1   -1    0    0  501    0  0.00000000000E+00 -0.00000000000E+00 -0.52316253354E+02  0.52316253354E+02  0.00000000000E+00 0. -1.
         25    2    1    2    0    0 -0.11247438300E+03 -0.12548102486E+03  0.41857575751E+03  0.46824061766E+03  0.12509051452E+03 0.  0.
          5    1    3    3  502    0 -0.12356271604E+03 -0.11476637669E+03  0.26699931768E+03  0.31582459381E+03  0.41800000000E+01 0. -1.
         -5    1    3    3    0  502  0.11088333042E+02 -0.10714648167E+02  0.15157643983E+03  0.15241602385E+03  0.41800000000E+01 0. -1.
        -11    1    1    2    0    0 -0.13844741227E+01  0.51448661399E+02  0.48485063937E+02  0.70708436225E+02  0.00000000000E+00 0. -1.
         11    1    1    2    0    0  0.11385885712E+03  0.74032363459E+02  0.26527451095E+03  0.29801878522E+03  0.00000000000E+00 0.  1.
</event>
<event>
 7    1  0.2490079E-009  0.1818037E+03  0.7561462E-02  0.1166069E+00
          1   -1    0    0  501    0  0.00000000000E+00  0.00000000000E+00  0.28960129931E+03  0.28960129931E+03  0.00000000000E+00 0. -1.
         -1   -1    0    0    0  501 -0.00000000000E+00 -0.00000000000E+00 -0.11487814760E+03  0.11487814760E+03  0.00000000000E+00 0.  1.
         25    2    1    2    0    0 -0.82098328454E+02  0.12028465078E+03  0.97490179176E+02  0.21531856508E+03  0.12509682924E+03 0.  0.
          5    1    3    3  502    0 -0.10256500952E+03  0.43442354794E+02  0.66992243901E+02  0.13004711651E+03  0.41800000000E+01 0.  1.
         -5    1    3    3    0  502  0.20466681068E+02  0.76842295989E+02  0.30497935275E+02  0.85271448579E+02  0.41800000000E+01 0.  1.
        -11    1    1    2    0    0  0.74746015537E+02 -0.27819528515E+02  0.39815431393E+02  0.89141245125E+02  0.00000000000E+00 0. -1.
         11    1    1    2    0    0  0.73523129171E+01 -0.92465122268E+02  0.37417541134E+02  0.10001963670E+03  0.00000000000E+00 0.  1.
</event>
<event>
 7    1  0.2490079E-009  0.1087269E+03  0.7561462E-02  0.1262946E+00
          3   -1    0    0  501    0  0.00000000000E+00  0.00000000000E+00  0.14222529619E+03  0.14222529619E+03  0.00000000000E+00 0. -1.
         -3   -1    0    0    0  501 -0.00000000000E+00 -0.00000000000E+00 -0.96274301961E+02  0.96274301961E+02  0.00000000000E+00 0.  1.
         25    2    1    2    0    0  0.25101680024E+01  0.42522121973E+02  0.12948113042E+02  0.13277722474E+03  0.12509079094E+03 0.  0.
          5    1    3    3  502    0  0.51526159198E+02 -0.17412680159E+02  0.34343138972E+01  0.54657235788E+02  0.41800000000E+01 0. -1.
         -5    1    3    3    0  502 -0.49015991196E+02  0.59934802132E+02  0.95137991451E+01  0.78119988950E+02  0.41800000000E+01 0. -1.
        -11    1    1    2    0    0 -0.11381245006E+02 -0.62489081637E+02  0.47662502669E+02  0.79411159307E+02  0.00000000000E+00 0. -1.
         11    1    1    2    0    0  0.88710770036E+01  0.19966959664E+02 -0.14659621487E+02  0.26311214103E+02  0.00000000000E+00 0.  1.
</event>
<event>
 7    1  0.3380993E-009  0.1314123E+03  0.7561462E-02  0.1225375E+00
          2   -1    0    0  501    0  0.00000000000E+00  0.00000000000E+00  0.16418493040E+04  0.16418493040E+04  0.00000000000E+00 0. -1.
         -2   -1    0    0    0  501 -0.00000000000E+00 -0.00000000000E+00 -0.12596171836E+02  0.12596171836E+02  0.00000000000E+00 0.  1.
         25    2    1    2    0    0 -0.58019271702E+02  0.48359438081E+02  0.12059110798E+04  0.12147321572E+04  0.12509120801E+03 0.  0.
          5    1    3    3  502    0 -0.97046384445E+02  0.34191095217E+02  0.92987275228E+03  0.93555750201E+03  0.41800000000E+01 0.  1.
         -5    1    3    3    0  502  0.39027112743E+02  0.14168342864E+02  0.27603832751E+03  0.27917465523E+03  0.41800000000E+01 0.  1.
        -11    1    1    2    0    0  0.59368680108E+02  0.96019189296E+01  0.24014601499E+03  0.24756200342E+03  0.00000000000E+00 0.  1.
         11    1    1    2    0    0 -0.13494084058E+01 -0.57961357011E+02  0.18319603738E+03  0.19215131517E+03  0.00000000000E+00 0. -1.
</event>
<event>
 7    1  0.2490079E-009  0.1460112E+03  0.7561462E-02  0.1205462E+00
          1   -1    0    0  501    0  0.00000000000E+00  0.00000000000E+00  0.51707479911E+02  0.51707479911E+02  0.00000000000E+00 0. -1.
         -1   -1    0    0    0  501 -0.00000000000E+00 -0.00000000000E+00 -0.47257302796E+03  0.47257302796E+03  0.00000000000E+00 0.  1.
         25    2    1    2    0    0  0.10458093695E+03  0.26552983211E+02 -0.28380986326E+03  0.32838684071E+03  0.12509054870E+03 0.  0.
          5    1    3    3  502    0  0.85014718809E+00  0.51742574664E+02 -0.53726285775E+02  0.74712803229E+02  0.41800000000E+01 0.  1.
         -5    1    3    3    0  502  0.10373078977E+03 -0.25189591453E+02 -0.23008357749E+03  0.25367403748E+03  0.41800000000E+01 0.  1.
        -11    1    1    2    0    0 -0.64633667646E+02  0.23911730664E+02 -0.10054881060E+03  0.12189891373E+03  0.00000000000E+00 0.  1.
         11    1    1    2    0    0 -0.39947269307E+02 -0.50464713875E+02 -0.36506874188E+02  0.73994753426E+02  0.00000000000E+00 0. -1.
</event>
<event>
 7    1  0.2490079E-009  0.1044057E+03  0.7561462E-02  0.1271295E+00
         -1   -1    0    0    0  501 -0.00000000000E+00  0.00000000000E+00  0.82279100025E+02  0.82279100025E+02  0.00000000000E+00 0.  1.
          1   -1    0    0  501    0  0.00000000000E+00 -0.00000000000E+00 -0.14547941068E+03  0.14547941068E+03  0.00000000000E+00 0. -1.
         25    2    1    2    0    0  0.24592972118E+02  0.28360237253E+02 -0.35102228665E+02  0.13523037136E+03  0.12508385007E+03 0.  0.
          5    1    3    3  502    0  0.73540737250E+02  0.81800250703E+01 -0.52303360443E+01  0.74296579064E+02  0.41800000000E+01 0. -1.
         -5    1    3    3    0  502 -0.48947765133E+02  0.20180212182E+02 -0.29871892621E+02  0.60933792299E+02  0.41800000000E+01 0. -1.
        -11    1    1    2    0    0 -0.46627065422E+02 -0.35307175601E+02 -0.32172787059E+01  0.58575001161E+02  0.00000000000E+00 0.  1.
         11    1    1    2    0    0  0.22034093304E+02  0.69469383481E+01 -0.24880803281E+02  0.33953138177E+02  0.00000000000E+00 0. -1.
</event>
<event>
 7    1  0.2490079E-009  0.9650615E+02  0.7561462E-02  0.1287819E+00
          3   -1    0    0  501    0  0.00000000000E+00  0.00000000000E+00  0.20440676597E+03  0.20440676597E+03  0.00000000000E+00 0. -1.
         -3   -1    0    0    0  501 -0.00000000000E+00 -0.00000000000E+00 -0.84677047028E+02  0.84677047028E+02  0.00000000000E+00 0.  1.
         25    2    1    2    0    0  0.68765671058E+02  0.17564562617E+02  0.72751031533E+02  0.16117495956E+03  0.12508966234E+03 0.  0.
          5    1    3    3  502    0  0.32412403918E+02  0.18766602695E+02 -0.32483452146E+02  0.49753355342E+02  0.41800000000E+01 0. -1.
         -5    1    3    3    0  502  0.36353267139E+02 -0.12020400777E+01  0.10523448368E+03  0.11142160422E+03  0.41800000000E+01 0. -1.
        -11    1    1    2    0    0  0.22070558885E+01 -0.43197750502E+02  0.21175386233E+02  0.48159253796E+02  0.00000000000E+00 0.  1.
         11    1    1    2    0    0 -0.70972726946E+02  0.25633187884E+02  0.25803301179E+02  0.79749599642E+02  0.00000000000E+00 0. -1.
</event>
<event>
 7    1  0.2490079E-009  0.1089543E+03  0.7561462E-02  0.1262519E+00
          1   -1    0    0  501    0  0.00000000000E+00  0.00000000000E+00  0.10239056370E+04  0.10239056370E+04  0.00000000000E+00 0. -1.
         -1   -1    0    0    0  501 -0.00000000000E+00 -0.00000000000E+00 -0.16697473628E+02  0.16697473628E+02  0.00000000000E+00 0.  1.
         25    2    1    2    0    0 -0.69212857534E+02  0.19942229785E+02  0.55145767276E+03  0.57003563542E+03  0.12508776370E+03 0.  0.
          5    1    3    3  502    0  0.65996360970E+01  0.24278656116E+02  0.18078787034E+02  0.31262170111E+02  0.41800000000E+01 0. -1.
         -5    1    3    3    0  502 -0.75812493631E+02 -0.43364263314E+01  0.53337888572E+03  0.53877346531E+03  0.41800000000E+01 0. -1.
        -11    1    1    2    0    0  0.56047840463E+02  0.30784396182E+02  0.27751501525E+03  0.28478697856E+03  0.00000000000E+00 0. -1.
         11    1    1    2    0    0  0.13165017071E+02 -0.50726625966E+02  0.17823547538E+03  0.18578049667E+03  0.00000000000E+00 0.  1.
</event>
<event>
 7    1  0.2490079E-009  0.1064959E+03  0.7561462E-02  0.1267200E+00
          3   -1    0    0  501    0  0.00000000000E+00  0.00000000000E+00  0.14187155853E+03  0.14187155853E+03  0.00000000000E+00 0. -1.
         -3   -1    0    0    0  501 -0.00000000000E+00 -0.00000000000E+00 -0.13440379445E+03  0.13440379445E+03  0.00000000000E+00 0.  1.
         25    2    1    2    0    0 -0.33285168624E+02 -0.17221602607E+01  0.81541285906E+02  0.15299358222E+03  0.12508871494E+03 0.  0.
          5    1    3    3  502    0 -0.75564801450E+02  0.16842824151E+02  0.28646694276E+02  0.82654857308E+02  0.41800000000E+01 0.  1.
         -5    1    3    3    0  502  0.42279632826E+02 -0.18564984412E+02  0.52894591630E+02  0.70338724909E+02  0.41800000000E+01 0.  1.
        -11    1    1    2    0    0  0.58914604727E+02 -0.11848978946E+02 -0.22605293924E+02  0.64205360100E+02  0.00000000000E+00 0. -1.
         11    1    1    2    0    0 -0.25629436103E+02  0.13571139207E+02 -0.51468227899E+02  0.59076410668E+02  0.00000000000E+00 0.  1.
</event>
<event>
 7    1  0.2490079E-009  0.9805703E+02  0.7561462E-02  0.1284436E+00
         -1   -1    0    0    0  501 -0.00000000000E+00  0.00000000000E+00  0.38747728123E+02  0.38747728123E+02  0.00000000000E+00 0.  1.
          1   -1    0    0  501    0  0.00000000000E+00 -0.00000000000E+00 -0.52550635773E+03  0.52550635773E+03  0.00000000000E+00 0. -1.
         25    2    1    2    0    0 -0.53604230726E+02 -0.42708192531E+02 -0.38843260582E+03  0.41379313364E+03  0.12508982742E+03 0.  0.
          5    1    3    3  502    0 -0.76393218791E+02 -0.55906455113E+02 -0.36853705674E+03  0.38052396796E+03  0.41800000000E+01 0. -1.
         -5    1    3    3    0  502  0.22788988065E+02  0.13198262581E+02 -0.19895549086E+02  0.33269165689E+02  0.41800000000E+01 0. -1.
        -11    1    1    2    0    0  0.23826152111E+02  0.37549183518E+02  0.31483152541E+01  0.44581819122E+02  0.00000000000E+00 0.  1.
         11    1    1    2    0    0  0.29778078614E+02  0.51590090130E+01 -0.10147433903E+03  0.10587913308E+03  0.00000000000E+00 0. -1.
</event>
<event>
 7    1  0.2490079E-009  0.1005224E+03  0.7561462E-02  0.1279201E+00
         -1   -1    0    0    0  501 -0.00000000000E+00  0.00000000000E+00  0.36593771861E+03  0.36593771861E+03  0.00000000000E+00 0.  1.
          1   -1    0    0  501    0  0.00000000000E+00 -0.00000000000E+00 -0.47941448080E+02  0.47941448080E+02  0.00000000000E+00 0. -1.
         25    2    1    2    0    0  0.25806182296E+02 -0.68085879760E+02  0.14016103027E+03  0.20147919748E+03  0.12508839492E+03 0.  0.
          5    1    3    3  502    0  0.60221141095E+02 -0.62078815144E+02  0.14192067149E+03  0.16625075795E+03  0.41800000000E+01 0.  1.
         -5    1    3    3    0  502 -0.34414958799E+02 -0.60070646161E+01 -0.17596412166E+01  0.35228439529E+02  0.41800000000E+01 0.  1.
        -11    1    1    2    0    0 -0.15733218413E+01  0.47351266406E+02  0.20086511242E+02  0.51459554077E+02  0.00000000000E+00 0. -1.
         11    1    1    2    0    0 -0.24232860455E+02  0.20734613354E+02  0.15774872902E+03  0.16094041514E+03  0.00000000000E+00 0.  1.
</event>
<event>
 7    1  0.2490079E-009  0.1311577E+03  0.7561462E-02  0.1225748E+00
          4   -1    0    0  501    0  0.00000000000E+00  0.00000000000E+00  0.75051102789E+02  0.75051102789E+02  0.00000000000E+00 0. -1.
         -4   -1    0    0    0  501 -0.00000000000E+00 -0.00000000000E+00 -0.28471057415E+03  0.28471057415E+03  0.00000000000E+00 0.  1.
         25    2    1    2    0    0  0.91560856410E+02 -0.21107793331E+02 -0.14706126997E+03  0.21471719805E+03  0.12509008213E+03 0.  0.
          5    1    3    3  502    0  0.90800215391E+01 -0.47908554917E+02 -0.63180182694E+01  0.49346389738E+02  0.41800000000E+01 0. -1.
         -5    1    3    3    0  502  0.82480834871E+02  0.26800761586E+02 -0.14074325170E+03  0.16537080831E+03  0.41800000000E+01 0. -1.
        -11    1    1    2    0    0 -0.10652481240E+03  0.82924255322E+01 -0.37719483698E+02  0.11330957342E+03  0.00000000000E+00 0. -1.
         11    1    1    2    0    0  0.14963955994E+02  0.12815367799E+02 -0.24878717689E+02  0.31734905461E+02  0.00000000000E+00 0.  1.
</event>
<event>
 7    1  0.2490079E-009  0.1235644E+03  0.7561462E-02  0.1237330E+00
          2   -1    0    0  501    0  0.00000000000E+00  0.00000000000E+00  0.32639046549E+03  0.32639046549E+03  0.00000000000E+00 0. -1.
         -2   -1    0    0    0  501 -0.00000000000E+00 -0.00000000000E+00 -0.76885443732E+02  0.76885443732E+02  0.00000000000E+00 0.  1.
         25    2    1    2    0    0  0.48025642351E+01  0.10694598666E+03  0.19143624016E+03  0.25249664539E+03  0.12508482402E+03 0.  0.
          5    1    3    3  502    0 -0.20614170139E+02  0.11019269442E+02  0.13737570345E+03  0.13941278495E+03  0.41800000000E+01 0. -1.
         -5    1    3    3    0  502  0.25416734374E+02  0.95926717218E+02  0.54060536716E+02  0.11308386044E+03  0.41800000000E+01 0. -1.
        -11    1    1    2    0    0 -0.15280009078E+02  0.12736603356E+01 -0.13651209949E+02  0.20529403818E+02  0.00000000000E+00 0.  1.
         11    1    1    2    0    0  0.10477444842E+02 -0.10821964700E+03  0.71719991543E+02  0.13024986001E+03  0.00000000000E+00 0. -1.
</event>
<event>
 7    1  0.2490079E-009  0.1128025E+03  0.7561462E-02  0.1255466E+00
         -2   -1    0    0    0  501 -0.00000000000E+00  0.00000000000E+00  0.52152194325E+02  0.52152194325E+02  0.00000000000E+00 0.  1.
          2   -1    0    0  501    0  0.00000000000E+00 -0.00000000000E+00 -0.38449147562E+03  0.38449147562E+03  0.00000000000E+00 0. -1.
         25    2    1    2    0    0  0.38826011966E+02 -0.64530101034E+02 -0.26373473332E+03  0.30145359077E+03  0.12508662870E+03 0.  0.
          5    1    3    3  502    0  0.12004794254E+02  0.37931656374E+02 -0.71026514323E+02  0.81517873974E+02  0.41800000000E+01 0.  1.
         -5    1    3    3    0  502  0.26821217712E+02 -0.10246175741E+03 -0.19270821900E+03  0.21993571679E+03  0.41800000000E+01 0.  1.
        -11    1    1    2    0    0 -0.31639842909E+02  0.27616817001E+02 -0.84501030625E+02  0.94362028472E+02  0.00000000000E+00 0. -1.
         11    1    1    2    0    0 -0.71861690563E+01  0.36913284033E+02  0.15896482654E+02  0.40828050707E+02  0.00000000000E+00 0.  1.
</event>
<event>
 7    1  0.2490079E-009  0.1041036E+03  0.7561462E-02  0.1271896E+00
         -1   -1    0    0    0  501 -0.00000000000E+00  0.00000000000E+00  0.11342693481E+03  0.11342693481E+03  0.00000000000E+00 0.  1.
          1   -1    0    0  501    0  0.00000000000E+00 -0.00000000000E+00 -0.16636725728E+03  0.16636725728E+03  0.00000000000E+00 0. -1.
         25    2    1    2    0    0 -0.15898933885E+02  0.11994827998E+02  0.53294542822E+02  0.13742327248E+03  0.12509274770E+03 0.  0.
          5    1    3    3  502    0  0.38012497901E+02 -0.28202265956E+02 -0.57148009932E+01  0.47858637173E+02  0.41800000000E+01 0. -1.
         -5    1    3    3    0  502 -0.53911431786E+02  0.40197093954E+02  0.59009343815E+02  0.89564635303E+02  0.41800000000E+01 0. -1.
        -11    1    1    2    0    0 -0.38319168610E+02 -0.52822297913E+01 -0.32013038522E+02  0.50210509557E+02  0.00000000000E+00 0.  1.
         11    1    1    2    0    0  0.54218102495E+02 -0.67125982063E+01 -0.74221826768E+02  0.92160410055E+02  0.00000000000E+00 0. -1.
</event>
<event>
 7    1  0.2507122E-009  0.1036334E+03  0.7561462E-02  0.1272836E+00
         -1   -1    0    0    0  501 -0.00000000000E+00  0.00000000000E+00  0.12409995147E+03  0.12409995147E+03  0.00000000000E+00 0.  1.
          1   -1    0    0  501    0  0.00000000000E+00 -0.00000000000E+00 -0.12677956732E+03  0.12677956732E+03  0.00000000000E+00 0. -1.
         25    2    1    2    0    0 -0.32239225380E+02  0.38959956793E+02  0.37766624191E+02  0.14010862197E+03  0.12508741808E+03 0.  0.
          5    1    3    3  502    0 -0.43699241469E+02 -0.26261604784E+02  0.51238036717E+02  0.72402378396E+02  0.41800000000E+01 0. -1.
         -5    1    3    3    0  502  0.11460016088E+02  0.65221561578E+02 -0.13471412526E+02  0.67706243573E+02  0.41800000000E+01 0. -1.
        -11    1    1    2    0    0  0.50252806359E+02 -0.39749785496E+01  0.49986979898E+01  0.50657003297E+02  0.00000000000E+00 0.  1.
         11    1    1    2    0    0 -0.18013580979E+02 -0.34984978244E+02 -0.45444938027E+02  0.60113893525E+02  0.00000000000E+00 0. -1.
</event>
<event>
 7    1  0.2490079E-009  0.5017314E+02  0.7561462E-02  0.1444410E+00
          1   -1    0    0  501    0  0.00000000000E+00  0.00000000000E+00  0.32968781311E+03  0.32968781311E+03  0.00000000000E+00 0. -1.
         -1   -1    0    0    0  501 -0.00000000000E+00 -0.00000000000E+00 -0.39221446750E+02  0.39221446750E+02  0.00000000000E+00 0.  1.
         25    2    1    2    0    0 -0.10289905614E+02  0.58357466120E+01  0.17515333587E+03  0.21555938033E+03  0.12508883758E+03 0.  0.
          5    1    3    3  502    0 -0.25616679292E+02  0.10725142443E+02 -0.98872763810E+01  0.29773706061E+02  0.41800000000E+01 0.  1.
         -5    1    3    3    0  502  0.15326773678E+02 -0.48893958314E+01  0.18504061225E+03  0.18578567427E+03  0.41800000000E+01 0.  1.
        -11    1    1    2    0    0  0.25934937778E+02 -0.21361064874E+02  0.12488085215E+03  0.12932185942E+03  0.00000000000E+00 0. -1.
         11    1    1    2    0    0 -0.15645032164E+02  0.15525318262E+02 -0.95678216647E+01  0.24028020101E+02  0.00000000000E+00 0.  1.
</event>
<event>
 7    1  0.2490079E-009  0.9067506E+02  0.7561462E-02  0.1301225E+00
          1   -1    0    0  501    0  0.00000000000E+00  0.00000000000E+00  0.13076408957E+03  0.13076408957E+03  0.00000000000E+00 0. -1.
         -1   -1    0    0    0  501 -0.00000000000E+00 -0.00000000000E+00 -0.88769786318E+02  0.88769786318E+02  0.00000000000E+00 0.  1.
         25    2    1    2    0    0  0.50525561242E+01 -0.48057287420E+01  0.14169316804E+02  0.12608506818E+03  0.12509217212E+03 0.  0.
          5    1    3    3  502    0  0.10220757236E+02  0.58204046010E+02  0.19830716313E+02  0.62473230746E+02  0.41800000000E+01 0. -1.
         -5    1    3    3    0  502 -0.51682011121E+01 -0.63009774752E+02 -0.56613995085E+01  0.63611837431E+02  0.41800000000E+01 0. -1.
        -11    1    1    2    0    0  0.18755292327E+02 -0.17844100804E+02 -0.21858316859E+02  0.33881542758E+02  0.00000000000E+00 0.  1.
         11    1    1    2    0    0 -0.23807848451E+02  0.22649829546E+02  0.49683303307E+02  0.59567264952E+02  0.00000000000E+00 0. -1.
</event>
<event>
 7    1  0.2490079E-009  0.1339781E+03  0.7561462E-02  0.1221670E+00
         -1   -1    0    0    0  501 -0.00000000000E+00  0.00000000000E+00  0.58663754407E+02  0.58663754407E+02  0.00000000000E+00 0.  1.
          1   -1    0    0  501    0  0.00000000000E+00 -0.00000000000E+00 -0.56667112032E+03  0.56667112032E+03  0.00000000000E+00 0. -1.
         25    2    1    2    0    0 -0.44374777811E+02 -0.10229215085E+03 -0.10552467592E+03  0.19802680217E+03  0.12508537931E+03 0.  0.
          5    1    3    3  502    0  0.88548568428E+01 -0.48757997103E+02  0.18259382804E+02  0.52977620102E+02  0.41800000000E+01 0. -1.
         -5    1    3    3    0  502 -0.53229634654E+02 -0.53534153749E+02 -0.12378405873E+03  0.14504918207E+03  0.41800000000E+01 0. -1.
        -11    1    1    2    0    0  0.40030648685E+02 -0.20005258528E+00 -0.13572492807E+03  0.14150529656E+03  0.00000000000E+00 0.  1.
         11    1    1    2    0    0  0.43441291260E+01  0.10249220344E+03 -0.26675776192E+03  0.28580277600E+03  0.00000000000E+00 0. -1.
</event>
<event>
 7    1  0.2490079E-009  0.1001371E+03  0.7561462E-02  0.1280008E+00
          3   -1    0    0  501    0  0.00000000000E+00  0.00000000000E+00  0.13140020899E+03  0.13140020899E+03  0.00000000000E+00 0. -1.
         -3   -1    0    0    0  501 -0.00000000000E+00 -0.00000000000E+00 -0.13942978881E+03  0.13942978881E+03  0.00000000000E+00 0.  1.
         25    2    1    2    0    0 -0.12447551397E+02  0.76990847952E+01 -0.82432539073E+02  0.15052602133E+03  0.12509493258E+03 0.  0.
          5    1    3    3  502    0 -0.32535998289E+02  0.59852601938E+02 -0.33069343500E+02  0.75841802609E+02  0.41800000000E+01 0. -1.
         -5    1    3    3    0  502  0.20088446892E+02 -0.52153517143E+02 -0.49363195573E+02  0.74684218721E+02  0.41800000000E+01 0. -1.
        -11    1    1    2    0    0  0.39854052924E+02 -0.21508974434E+02  0.64531237703E+01  0.45745210919E+02  0.00000000000E+00 0.  1.
         11    1    1    2    0    0 -0.27406501527E+02  0.13809889638E+02  0.67949835483E+02  0.74558765547E+02  0.00000000000E+00 0. -1.
</event>
<event>
 7    1  0.2490079E-009  0.1114788E+03  0.7561462E-02  0.1257856E+00
         -2   -1    0    0    0  501 -0.00000000000E+00  0.00000000000E+00  0.73274077924E+02  0.73274077924E+02  0.00000000000E+00 0.  1.
          2   -1    0    0  501    0  0.00000000000E+00 -0.00000000000E+00 -0.21707513594E+03  0.21707513594E+03  0.00000000000E+00 0. -1.
         25    2    1    2    0    0 -0.40274478663E+02  0.30850184602E+02 -0.59249247782E+02  0.14741594367E+03  0.12508884668E+03 0.  0.
          5    1    3    3  502    0 -0.71514494979E+02  0.32977864766E+02  0.15738416400E+01  0.78878463057E+02  0.41800000000E+01 0. -1.
         -5    1    3    3    0  502  0.31240016316E+02 -0.21276801637E+01 -0.60823089422E+02  0.68537480616E+02  0.41800000000E+01 0. -1.
        -11    1    1    2    0    0  0.57763625167E+02 -0.56930497577E+02 -0.46103205854E+02  0.93291068902E+02  0.00000000000E+00 0. -1.
         11    1    1    2    0    0 -0.17489146504E+02  0.26080312974E+02 -0.38448604383E+02  0.49642201293E+02  0.00000000000E+00 0.  1.
</event>
<event>
 7    1  0.2490079E-009  0.2280571E+03  0.7561462E-02  0.1128015E+00
          3   -1    0    0  501    0  0.00000000000E+00  0.00000000000E+00  0.62909701262E+02  0.62909701262E+02  0.00000000000E+00 0.  1.
         -3   -1    0    0    0  501 -0.00000000000E+00 -0.00000000000E+00 -0.96335548872E+03  0.96335548872E+03  0.00000000000E+00 0. -1.
         25    2    1    2    0    0 -0.16430351516E+03 -0.14621974461E+03 -0.42363512733E+03  0.49344752460E+03  0.12509148497E+03 0.  0.
          5    1    3    3  502    0 -0.58454199025E+02 -0.76063708840E+01 -0.38193618187E+02  0.70363166017E+02  0.41800000000E+01 0. -1.
         -5    1    3    3    0  502 -0.10584931614E+03 -0.13861337372E+03 -0.38544150915E+03  0.42308435858E+03  0.41800000000E+01 0. -1.
        -11    1    1    2    0    0  0.88764190597E+02  0.10125177030E+03 -0.37425023896E+03  0.39773640000E+03  0.00000000000E+00 0.  1.
         11    1    1    2    0    0  0.75539324567E+02  0.44967974307E+02 -0.10256042116E+03  0.13508126538E+03  0.00000000000E+00 0. -1.
</event>
<event>
 7    1  0.2490079E-009  0.1311114E+03  0.7561462E-02  0.1225816E+00
         -1   -1    0    0    0  501 -0.00000000000E+00  0.00000000000E+00  0.10614159602E+03  0.10614159602E+03  0.00000000000E+00 0.  1.
          1   -1    0    0  501    0  0.00000000000E+00 -0.00000000000E+00 -0.24308915876E+03  0.24308915876E+03  0.00000000000E+00 0. -1.
         25    2    1    2    0    0 -0.72020744500E+02  0.72354379818E+02 -0.13806431898E+03  0.21244517131E+03  0.12509616589E+03 0.  0.
          5    1    3    3  502    0 -0.23388439958E+02 -0.18688627715E+02 -0.96449512419E+02  0.10107553995E+03  0.41800000000E+01 0.  1.
         -5    1    3    3    0  502 -0.48632304542E+02  0.91043007533E+02 -0.41614806565E+02  0.11136963137E+03  0.41800000000E+01 0.  1.
        -11    1    1    2    0    0 -0.50980243695E+01  0.12817406819E+02 -0.15436086869E+02  0.20701414151E+02  0.00000000000E+00 0. -1.
         11    1    1    2    0    0  0.77118768869E+02 -0.85171786637E+02  0.16552843107E+02  0.11608416932E+03  0.00000000000E+00 0.  1.
</event>
<event>
 7    1  0.2490079E-009  0.1056681E+03  0.7561462E-02  0.1268809E+00
          1   -1    0    0  501    0  0.00000000000E+00  0.00000000000E+00  0.27629872021E+02  0.27629872021E+02  0.00000000000E+00 0. -1.
         -1   -1    0    0    0  501 -0.00000000000E+00 -0.00000000000E+00 -0.45822664756E+03  0.45822664756E+03  0.00000000000E+00 0.  1.
         25    2    1    2    0    0 -0.26944466626E+02  0.23116857346E+02 -0.24886317277E+03  0.28078699210E+03  0.12509221716E+03 0.  0.
          5    1    3    3  502    0 -0.43435359142E+02  0.68691765628E+02 -0.15443102553E+03  0.17456117305E+03  0.41800000000E+01 0. -1.
         -5    1    3    3    0  502  0.16490892516E+02 -0.45574908282E+02 -0.94432147239E+02  0.10622581905E+03  0.41800000000E+01 0. -1.
        -11    1    1    2    0    0  0.37347654882E+02  0.16148758160E+02 -0.37885797585E+02  0.55596433104E+02  0.00000000000E+00 0. -1.
         11    1    1    2    0    0 -0.10403188256E+02 -0.39265615506E+02 -0.14384780518E+03  0.14947309438E+03  0.00000000000E+00 0.  1.
</event>
<event>
 7    1  0.2490079E-009  0.1320980E+03  0.7561462E-02  0.1224376E+00
          1   -1    0    0  501    0  0.00000000000E+00  0.00000000000E+00  0.23880202125E+03  0.23880202125E+03  0.00000000000E+00 0. -1.
         -1   -1    0    0    0  501 -0.00000000000E+00 -0.00000000000E+00 -0.10398393940E+03  0.10398393940E+03  0.00000000000E+00 0.  1.
         25    2    1    2    0    0  0.93096415830E+02  0.10706555208E+02  0.16272848603E+03  0.22563162790E+03  0.12508996113E+03 0.  0.
          5    1    3    3  502    0  0.58886086935E+02 -0.53920271155E+02  0.10713546923E+03  0.13368039514E+03  0.41800000000E+01 0.  1.
         -5    1    3    3    0  502  0.34210328895E+02  0.64626826363E+02  0.55593016801E+02  0.91951232759E+02  0.41800000000E+01 0.  1.
        -11    1    1    2    0    0 -0.65359324112E+02  0.21211199494E+02 -0.29635679222E+02  0.74833346279E+02  0.00000000000E+00 0.  1.
         11    1    1    2    0    0 -0.27737091717E+02 -0.31917754702E+02  0.17252750310E+01  0.42320986474E+02  0.00000000000E+00 0. -1.
</event>
<event>
 7    1  0.2490079E-009  0.1394201E+03  0.7561462E-02  0.1214111E+00
         -1   -1    0    0    0  501 -0.00000000000E+00  0.00000000000E+00  0.47567213371E+02  0.47567213371E+02  0.00000000000E+00 0.  1.
          1   -1    0    0  501    0  0.00000000000E+00 -0.00000000000E+00 -0.57722598182E+03  0.57722598182E+03  0.00000000000E+00 0. -1.
         25    2    1    2    0    0 -0.21791609307E+02 -0.10518465142E+03 -0.40093894538E+03  0.43351846188E+03  0.12509010247E+03 0.  0.
          5    1    3    3  502    0  0.25965502077E+02 -0.12563027211E+01 -0.20435437306E+03  0.20604360651E+03  0.41800000000E+01 0. -1.
         -5    1    3    3    0  502 -0.47757111384E+02 -0.10392834870E+03 -0.19658457232E+03  0.22747485537E+03  0.41800000000E+01 0. -1.
        -11    1    1    2    0    0  0.39228296522E+02  0.89233632223E+01 -0.19691367312E+02  0.44791021487E+02  0.00000000000E+00 0.  1.
         11    1    1    2    0    0 -0.17436687215E+02  0.96261288196E+02 -0.10902845576E+03  0.14648371183E+03  0.00000000000E+00 0. -1.
</event>
<event>
 7    1  0.2490079E-009  0.1162260E+03  0.7561462E-02  0.1249456E+00
          1   -1    0    0  501    0  0.00000000000E+00  0.00000000000E+00  0.65372199745E+02  0.65372199745E+02  0.00000000000E+00 0. -1.
         -1   -1    0    0    0  501 -0.00000000000E+00 -0.00000000000E+00 -0.34553237895E+03  0.34553237895E+03  0.00000000000E+00 0.  1.
         25    2    1    2    0    0 -0.44844504470E+02  0.64993080149E+02 -0.57825896783E+02  0.15882443723E+03  0.12508492105E+03 0.  0.
          5    1    3    3  502    0 -0.23567737703E+02  0.10193359549E+03 -0.46163282747E+02  0.11443084035E+03  0.41800000000E+01 0. -1.
         -5    1    3    3    0  502 -0.21276766766E+02 -0.36940515341E+02 -0.11662614036E+02  0.44393596879E+02  0.41800000000E+01 0. -1.
        -11    1    1    2    0    0  0.19742603101E+02 -0.54022704426E+02 -0.21658076623E+03  0.22408804357E+03  0.00000000000E+00 0.  1.
         11    1    1    2    0    0  0.25101901369E+02 -0.10970375723E+02 -0.57535161948E+01  0.27992097893E+02  0.00000000000E+00 0. -1.
</event>
<event>
 7    1  0.2490079E-009  0.1158845E+03  0.7561462E-02  0.1250045E+00
         -2   -1    0    0    0  501 -0.00000000000E+00  0.00000000000E+00  0.15688810286E+03  0.15688810286E+03  0.00000000000E+00 0.  1.
          2   -1    0    0  501    0  0.00000000000E+00 -0.00000000000E+00 -0.14479681353E+03  0.14479681353E+03  0.00000000000E+00 0. -1.
         25    2    1    2    0    0 -0.77241292162E+02 -0.24029050986E+02  0.71424741623E+02  0.16520513679E+03  0.12509049125E+03 0.  0.
          5    1    3    3  502    0 -0.49193327293E+01  0.38306009941E+02  0.56367069761E+02  0.68456330500E+02  0.41800000000E+01 0. -1.
         -5    1    3    3    0  502 -0.72321959433E+02 -0.62335060927E+02  0.15057671862E+02  0.96748806292E+02  0.41800000000E+01 0. -1.
        -11    1    1    2    0    0  0.66328921490E+02 -0.48251733051E+01 -0.76346910355E+02  0.10125047577E+03  0.00000000000E+00 0. -1.
         11    1    1    2    0    0  0.10912370672E+02  0.28854224291E+02  0.17013458063E+02  0.35229303831E+02  0.00000000000E+00 0.  1.
</event>
<event>
 7    1  0.2490079E-009  0.1786426E+03  0.7561462E-02  0.1169123E+00
          1   -1    0    0  501    0  0.00000000000E+00  0.00000000000E+00  0.42862337177E+03  0.42862337177E+03  0.00000000000E+00 0. -1.
         -1   -1    0    0    0  501 -0.00000000000E+00 -0.00000000000E+00 -0.88188684792E+02  0.88188684792E+02  0.00000000000E+00 0.  1.
         25    2    1    2    0    0  0.99836517477E+02  0.12185240688E+03  0.21168335833E+03  0.29201496941E+03  0.12509020298E+03 0.  0.
          5    1    3    3  502    0  0.10078407926E+03  0.73784464659E+02  0.72005437666E+02  0.14423534002E+03  0.41800000000E+01 0.  1.
         -5    1    3    3    0  502 -0.94756177951E+00  0.48067942217E+02  0.13967792067E+03  0.14777962940E+03  0.41800000000E+01 0.  1.
        -11    1    1    2    0    0 -0.10042710505E+03 -0.49981975367E+02  0.83837631881E+02  0.14004481357E+03  0.00000000000E+00 0. -1.
         11    1    1    2    0    0  0.59058756991E+00 -0.71870431510E+02  0.44913696766E+02  0.84752273576E+02  0.00000000000E+00 0.  1.
</event>
<event>
 7    1  0.2490079E-009  0.1197695E+03  0.7561462E-02  0.1243478E+00
          3   -1    0    0  501    0  0.00000000000E+00  0.00000000000E+00  0.74656750730E+03  0.74656750730E+03  0.00000000000E+00 0. -1.
         -3   -1    0    0    0  501 -0.00000000000E+00 -0.00000000000E+00 -0.28564287357E+02  0.28564287357E+02  0.00000000000E+00 0.  1.
         25    2    1    2    0    0 -0.44227056854E+02 -0.88540664396E+02  0.35632451744E+03  0.39039591579E+03  0.12508528103E+03 0.  0.
          5    1    3    3  502    0 -0.35900449279E+02 -0.17894424770E+02  0.17164210887E+02  0.43830756685E+02  0.41800000000E+01 0.  1.
         -5    1    3    3    0  502 -0.83266075750E+01 -0.70646239626E+02  0.33916030655E+03  0.34656515911E+03  0.41800000000E+01 0.  1.
        -11    1    1    2    0    0 -0.24055717475E+02  0.24517240651E+02  0.63283418063E+02  0.72003914019E+02  0.00000000000E+00 0. -1.
         11    1    1    2    0    0  0.68282774329E+02  0.64023423745E+02  0.29839528444E+03  0.31273196484E+03  0.00000000000E+00 0.  1.
</event>
<event>
 7    1  0.2490079E-009  0.1153575E+03  0.7561462E-02  0.1250958E+00
          1   -1    0    0  501    0  0.00000000000E+00  0.00000000000E+00  0.16886925429E+04  0.16886925429E+04  0.00000000000E+00 0. -1.
         -1   -1    0    0    0  501 -0.00000000000E+00 -0.00000000000E+00 -0.14805244668E+02  0.14805244668E+02  0.00000000000E+00 0.  1.
         25    2    1    2    0    0  0.29045277218E+02 -0.79597479793E+02  0.13173770484E+04  0.13260124107E+04  0.12508892359E+03 0.  0.
          5    1    3    3  502    0  0.27368728158E+02 -0.99522899242E+02  0.12727125582E+04  0.12768980316E+04  0.41800000000E+01 0.  1.
         -5    1    3    3    0  502  0.16765490597E+01  0.19925419450E+02  0.44664490207E+02  0.49114379182E+02  0.41800000000E+01 0.  1.
        -11    1    1    2    0    0 -0.29140053682E+02  0.18088724372E+01  0.30098341240E+02  0.41932384782E+02  0.00000000000E+00 0. -1.
         11    1    1    2    0    0  0.94776464064E-01  0.77788607356E+02  0.32641190860E+03  0.33555299208E+03  0.00000000000E+00 0.  1.
</event>
<event>
 7    1  0.2490079E-009  0.1069554E+03  0.7561462E-02  0.1266314E+00
         -2   -1    0    0    0  501 -0.00000000000E+00  0.00000000000E+00  0.19593914491E+03  0.19593914491E+03  0.00000000000E+00 0. -1.
          2   -1    0    0  501    0  0.00000000000E+00 -0.00000000000E+00 -0.70043034595E+02  0.70043034595E+02  0.00000000000E+00 0.  1.
         25    2    1    2    0    0 -0.21303649393E+02 -0.29144151512E+02  0.39578565464E+02  0.13607017737E+03  0.12508158650E+03 0.  0.
          5    1    3    3  502    0  0.49704636051E+02 -0.26989548102E+02  0.30310376215E+02  0.64305348595E+02  0.41800000000E+01 0. -1.
         -5    1    3    3    0  502 -0.71008285444E+02 -0.21546034095E+01  0.92681892493E+01  0.71764828778E+02  0.41800000000E+01 0. -1.
        -11    1    1    2    0    0  0.16004219623E+02 -0.26056281526E+02  0.62459772115E+02  0.69543425177E+02  0.00000000000E+00 0. -1.
         11    1    1    2    0    0  0.52994297699E+01  0.55200433038E+02  0.23857772736E+02  0.60368576953E+02  0.00000000000E+00 0.  1.
</event>
<event>
 7    1  0.2490079E-009  0.9365752E+02  0.7561462E-02  0.1294229E+00
         -1   -1    0    0    0  501 -0.00000000000E+00  0.00000000000E+00  0.42525346687E+02  0.42525346687E+02  0.00000000000E+00 0.  1.
          1   -1    0    0  501    0  0.00000000000E+00 -0.00000000000E+00 -0.30213493043E+03  0.30213493043E+03  0.00000000000E+00 0. -1.
         25    2    1    2    0    0  0.16216950535E+02 -0.11807409481E+02 -0.18831540047E+03  0.22696275936E+03  0.12508796777E+03 0.  0.
          5    1    3    3  502    0  0.55038522232E+02  0.15896611452E+02 -0.37174541203E+02  0.68420465496E+02  0.41800000000E+01 0. -1.
         -5    1    3    3    0  502 -0.38821571697E+02 -0.27704020933E+02 -0.15114085926E+03  0.15854229387E+03  0.41800000000E+01 0. -1.
        -11    1    1    2    0    0  0.12799189189E+01 -0.33451180152E+02 -0.58687486994E+02  0.67563605407E+02  0.00000000000E+00 0.  1.
         11    1    1    2    0    0 -0.17496869454E+02  0.45258589633E+02 -0.12606696283E+02  0.50133912349E+02  0.00000000000E+00 0. -1.
</event>
<event>
 7    1  0.2490079E-009  0.7198229E+02  0.7561462E-02  0.1353479E+00
         -1   -1    0    0    0  501 -0.00000000000E+00  0.00000000000E+00  0.30083998172E+02  0.30083998172E+02  0.00000000000E+00 0.  1.
          1   -1    0    0  501    0  0.00000000000E+00 -0.00000000000E+00 -0.46158834142E+03  0.46158834142E+03  0.00000000000E+00 0. -1.
         25    2    1    2    0    0  0.40478973331E+02 -0.76778197030E+01 -0.20865640195E+03  0.24674325439E+03  0.12508894162E+03 0.  0.
          5    1    3    3  502    0  0.65630666882E+01 -0.19461356575E+01  0.16812308493E+02  0.18627597946E+02  0.41800000000E+01 0. -1.
         -5    1    3    3    0  502  0.33915906643E+02 -0.57316840455E+01 -0.22546871045E+03  0.22811565645E+03  0.41800000000E+01 0. -1.
        -11    1    1    2    0    0 -0.68801954712E+02 -0.74152386369E+01 -0.16126213438E+03  0.17548267926E+03  0.00000000000E+00 0.  1.
         11    1    1    2    0    0  0.28322981381E+02  0.15093058340E+02 -0.61585806914E+02  0.69446405937E+02  0.00000000000E+00 0. -1.
</event>
<event>
 7    1  0.2490079E-009  0.1218335E+03  0.7561462E-02  0.1240103E+00
         -1   -1    0    0    0  501 -0.00000000000E+00  0.00000000000E+00  0.25914952316E+03  0.25914952316E+03  0.00000000000E+00 0.  1.
          1   -1    0    0  501    0  0.00000000000E+00 -0.00000000000E+00 -0.10048742409E+03  0.10048742409E+03  0.00000000000E+00 0. -1.
         25    2    1    2    0    0  0.60126773313E+02 -0.69684931309E+02  0.17087004616E+03  0.23091009091E+03  0.12510667004E+03 0.  0.
          5    1    3    3  502    0  0.39367409051E+02 -0.10113453878E+03  0.88017890043E+02  0.13979488259E+03  0.41800000000E+01 0. -1.
         -5    1    3    3    0  502  0.20759364262E+02  0.31449607471E+02  0.82852156114E+02  0.91115208322E+02  0.41800000000E+01 0. -1.
        -11    1    1    2    0    0 -0.35263528315E+02  0.17558220811E+02 -0.46983175464E+02  0.61312529910E+02  0.00000000000E+00 0. -1.
         11    1    1    2    0    0 -0.24863244998E+02  0.52126710499E+02  0.34775228375E+02  0.67414326428E+02  0.00000000000E+00 0.  1.
</event>
<event>
 7    1  0.2490079E-009  0.1527269E+03  0.7561462E-02  0.1197162E+00
         -1   -1    0    0    0  501 -0.00000000000E+00  0.00000000000E+00  0.32633669985E+03  0.32633669985E+03  0.00000000000E+00 0.  1.
          1   -1    0    0  501    0  0.00000000000E+00 -0.00000000000E+00 -0.90762130083E+02  0.90762130083E+02  0.00000000000E+00 0. -1.
         25    2    1    2    0    0 -0.81521554116E+02 -0.70132398875E+02  0.31022372980E+02  0.16784560003E+03  0.12508173595E+03 0.  0.
          5    1    3    3  502    0 -0.76312555505E+02 -0.10381172731E+03  0.14443178300E+02  0.12971722574E+03  0.41800000000E+01 0.  1.
         -5    1    3    3    0  502 -0.52089986112E+01  0.33679328430E+02  0.16579194680E+02  0.38128374294E+02  0.41800000000E+01 0.  1.
        -11    1    1    2    0    0 -0.17469834202E+02  0.31353509863E+02  0.57793012986E+02  0.68031390091E+02  0.00000000000E+00 0.  1.
         11    1    1    2    0    0  0.98991388318E+02  0.38778889012E+02  0.14675918380E+03  0.18122183981E+03  0.00000000000E+00 0. -1.
</event>
<event>
 7    1  0.2490079E-009  0.1166174E+03  0.7561462E-02  0.1248784E+00
         -2   -1    0    0    0  501 -0.00000000000E+00  0.00000000000E+00  0.29950731596E+03  0.29950731596E+03  0.00000000000E+00 0.  1.
          2   -1    0    0  501    0  0.00000000000E+00 -0.00000000000E+00 -0.52525936508E+02  0.52525936508E+02  0.00000000000E+00 0. -1.
         25    2    1    2    0    0 -0.29332482129E+02 -0.36000596197E+02  0.16171649149E+03  0.20965673730E+03  0.12508911401E+03 0.  0.
          5    1    3    3  502    0 -0.60573556012E+02  0.23789131947E+02  0.69252012634E+02  0.95123036855E+02  0.41800000000E+01 0.  1.
         -5    1    3    3    0  502  0.31241073883E+02 -0.59789728144E+02  0.92464478854E+02  0.11453370045E+03  0.41800000000E+01 0.  1.
        -11    1    1    2    0    0 -0.21800170908E+02 -0.16353905197E+02  0.58353553705E+02  0.64403686982E+02  0.00000000000E+00 0.  1.
         11    1    1    2    0    0  0.51132653037E+02  0.52354501394E+02  0.26911334255E+02  0.77972828178E+02  0.00000000000E+00 0. -1.
</event>
<event>
 7    1  0.2490079E-009  0.1317008E+03  0.7561462E-02  0.1224954E+00
          1   -1    0    0  501    0  0.00000000000E+00  0.00000000000E+00  0.49340612095E+03  0.49340612095E+03  0.00000000000E+00 0. -1.
         -1   -1    0    0    0  501 -0.00000000000E+00 -0.00000000000E+00 -0.36187033384E+02  0.36187033384E+02  0.00000000000E+00 0.  1.
         25    2    1    2    0    0  0.24742467466E+02  0.67668921786E+02  0.20793992216E+03  0.25313556721E+03  0.12508929405E+03 0.  0.
          5    1    3    3  502    0  0.75325181518E+02  0.30377915739E+02  0.11399292812E+03  0.14003057093E+03  0.41800000000E+01 0.  1.
         -5    1    3    3    0  502 -0.50582714052E+02  0.37291006047E+02  0.93946994048E+02  0.11310499628E+03  0.41800000000E+01 0.  1.
        -11    1    1    2    0    0 -0.52553942307E+02 -0.78667542513E+01  0.12314991722E+03  0.13412570516E+03  0.00000000000E+00 0.  1.
         11    1    1    2    0    0  0.27811474841E+02 -0.59802167535E+02  0.12612924818E+03  0.14233188196E+03  0.00000000000E+00 0. -1.
</event>
<event>
 7    1  0.2490079E-009  0.1132930E+03  0.7561462E-02  0.1254590E+00
         -2   -1    0    0    0  501 -0.00000000000E+00  0.00000000000E+00  0.87911049277E+02  0.87911049277E+02  0.00000000000E+00 0.  1.
          2   -1    0    0  501    0  0.00000000000E+00 -0.00000000000E+00 -0.18119402930E+03  0.18119402930E+03  0.00000000000E+00 0. -1.
         25    2    1    2    0    0 -0.40968349735E+02  0.35290296877E+02 -0.17366220981E+02  0.13737917626E+03  0.12509053403E+03 0.  0.
          5    1    3    3  502    0 -0.65719526494E+02 -0.24782245248E+02 -0.15439084790E+01  0.70378064022E+02  0.41800000000E+01 0.  1.
         -5    1    3    3    0  502  0.24751176759E+02  0.60072542124E+02 -0.15822312502E+02  0.67001112238E+02  0.41800000000E+01 0.  1.
        -11    1    1    2    0    0 -0.78851097064E+01  0.17498524357E+02  0.83552985417E+01  0.20932852731E+02  0.00000000000E+00 0.  1.
         11    1    1    2    0    0  0.48853459442E+02 -0.52788821234E+02 -0.84272057582E+02  0.11079304958E+03  0.00000000000E+00 0. -1.
</event>
<event>
 7    1  0.2490079E-009  0.7457735E+02  0.7561462E-02  0.1345185E+00
          2   -1    0    0  501    0  0.00000000000E+00  0.00000000000E+00  0.30098290360E+02  0.30098290360E+02  0.00000000000E+00 0. -1.
         -2   -1    0    0    0  501 -0.00000000000E+00 -0.00000000000E+00 -0.45343561922E+03  0.45343561922E+03  0.00000000000E+00 0.  1.
         25    2    1    2    0    0 -0.30969151070E+02  0.17447421978E+01 -0.17535288639E+03  0.21762067754E+03  0.12509193453E+03 0.  0.
          5    1    3    3  502    0 -0.47974761408E+02 -0.15800509312E+02 -0.11588017719E+02  0.51990271987E+02  0.41800000000E+01 0. -1.
         -5    1    3    3    0  502  0.17005610337E+02  0.17545251509E+02 -0.16376486867E+03  0.16563040555E+03  0.41800000000E+01 0. -1.
        -11    1    1    2    0    0  0.13587748076E+02 -0.34236616684E+02 -0.20918813897E+03  0.21240633301E+03  0.00000000000E+00 0.  1.
         11    1    1    2    0    0  0.17381402994E+02  0.32491874486E+02 -0.38796303503E+02  0.53506899024E+02  0.00000000000E+00 0. -1.
</event>
<event>
 7    1  0.2490079E-009  0.1050362E+03  0.7561462E-02  0.1270048E+00
         -1   -1    0    0    0  501 -0.00000000000E+00  0.00000000000E+00  0.43264990502E+02  0.43264990502E+02  0.00000000000E+00 0.  1.
          1   -1    0    0  501    0  0.00000000000E+00 -0.00000000000E+00 -0.61668307145E+03  0.61668307145E+03  0.00000000000E+00 0. -1.
         25    2    1    2    0    0 -0.11419082052E+02 -0.10380552103E+03 -0.18040318691E+03  0.24310307024E+03  0.12509121186E+03 0.  0.
          5    1    3    3  502    0 -0.27494408031E+01 -0.13214063163E+02 -0.14448900758E+03  0.14517822358E+03  0.41800000000E+01 0. -1.
         -5    1    3    3    0  502 -0.86696412488E+01 -0.90591457863E+02 -0.35914179326E+02  0.97924846662E+02  0.41800000000E+01 0. -1.
        -11    1    1    2    0    0 -0.72992467790E+00  0.32517926267E+02 -0.23016920539E+02  0.39846291544E+02  0.00000000000E+00 0.  1.
         11    1    1    2    0    0  0.12149006730E+02  0.71287594759E+02 -0.36999797350E+03  0.37699870016E+03  0.00000000000E+00 0. -1.
</event>
<event>
 7    1  0.2490079E-009  0.2001846E+03  0.7561462E-02  0.1149583E+00
          2   -1    0    0  501    0  0.00000000000E+00  0.00000000000E+00  0.10278766480E+04  0.10278766480E+04  0.00000000000E+00 0. -1.
         -2   -1    0    0    0  501 -0.00000000000E+00 -0.00000000000E+00 -0.50988726675E+02  0.50988726675E+02  0.00000000000E+00 0.  1.
         25    2    1    2    0    0  0.17824492382E+03  0.67933176532E+02  0.65151275446E+03  0.69028878772E+03  0.12507426549E+03 0.  0.
          5    1    3    3  502    0  0.12348647299E+03  0.59750263491E+02  0.59665144235E+03  0.61223314109E+03  0.41800000000E+01 0. -1.
         -5    1    3    3    0  502  0.54758450834E+02  0.81829130403E+01  0.54861312111E+02  0.78055646626E+02  0.41800000000E+01 0. -1.
        -11    1    1    2    0    0 -0.60973238949E+02 -0.66633373278E+02  0.10167973764E+03  0.13600187995E+03  0.00000000000E+00 0. -1.
         11    1    1    2    0    0 -0.11727168488E+03 -0.12998032531E+01  0.22369542920E+03  0.25257470698E+03  0.00000000000E+00 0.  1.
</event>
<event>
 7    1  0.2490079E-009  0.1102475E+03  0.7561462E-02  0.1260112E+00
          2   -1    0    0  501    0  0.00000000000E+00  0.00000000000E+00  0.25944739677E+03  0.25944739677E+03  0.00000000000E+00 0. -1.
         -2   -1    0    0    0  501 -0.00000000000E+00 -0.00000000000E+00 -0.49380393427E+02  0.49380393427E+02  0.00000000000E+00 0.  1.
         25    2    1    2    0    0  0.25343843660E+01  0.32480954000E+02  0.12383230328E+03  0.17900698767E+03  0.12509047455E+03 0.  0.
          5    1    3    3  502    0 -0.53944888905E+02  0.43893654159E+02  0.52635367650E+02  0.87319289061E+02  0.41800000000E+01 0.  1.
         -5    1    3    3    0  502  0.56479273271E+02 -0.11412700159E+02  0.71196935625E+02  0.91687698611E+02  0.41800000000E+01 0.  1.
        -11    1    1    2    0    0  0.29004831315E+02 -0.49380937170E+02  0.34306796256E+02  0.66758620902E+02  0.00000000000E+00 0. -1.
         11    1    1    2    0    0 -0.31539215681E+02  0.16899983170E+02  0.51927903813E+02  0.63062181625E+02  0.00000000000E+00 0.  1.
</event>
<event>
 7    1  0.2490079E-009  0.1412974E+03  0.7561462E-02  0.1211594E+00
         -1   -1    0    0    0  501 -0.00000000000E+00  0.00000000000E+00  0.22266021892E+02  0.22266021892E+02  0.00000000000E+00 0.  1.
          1   -1    0    0  501    0  0.00000000000E+00 -0.00000000000E+00 -0.10985747471E+04  0.10985747471E+04  0.00000000000E+00 0. -1.
         25    2    1    2    0    0  0.91378386487E+02  0.71318885776E+02 -0.56951784584E+03  0.59450339631E+03  0.12508924220E+03 0.  0.
          5    1    3    3  502    0  0.48845991331E+02  0.10188781511E+03 -0.44921165179E+03  0.46322309770E+03  0.41800000000E+01 0.  1.
         -5    1    3    3    0  502  0.42532395155E+02 -0.30568929330E+02 -0.12030619405E+03  0.13128029862E+03  0.41800000000E+01 0.  1.
        -11    1    1    2    0    0 -0.12849299886E+02 -0.17784780169E+02 -0.17963385505E+02  0.28356412538E+02  0.00000000000E+00 0. -1.
         11    1    1    2    0    0 -0.78529086601E+02 -0.53534105607E+02 -0.48882749389E+03  0.49798096017E+03  0.00000000000E+00 0.  1.
</event>
<event>
 7    1  0.2490079E-009  0.1318836E+03  0.7561462E-02  0.1224687E+00
          2   -1    0    0  501    0  0.00000000000E+00  0.00000000000E+00  0.70766816239E+02  0.70766816239E+02  0.00000000000E+00 0. -1.
         -2   -1    0    0    0  501 -0.00000000000E+00 -0.00000000000E+00 -0.27309420734E+03  0.27309420734E+03  0.00000000000E+00 0.  1.
         25    2    1    2    0    0  0.70604540886E+02  0.53138391821E+02 -0.94861442209E+02  0.18015084000E+03  0.12508773744E+03 0.  0.
          5    1    3    3  502    0  0.25787070014E+02 -0.34228037934E+02 -0.64005512789E+02  0.77140842801E+02  0.41800000000E+01 0.  1.
         -5    1    3    3    0  502  0.44817470871E+02  0.87366429755E+02 -0.30855929421E+02  0.10300999720E+03  0.41800000000E+01 0.  1.
        -11    1    1    2    0    0 -0.41419694342E+02  0.18282598966E+02 -0.29594261313E+02  0.54089414926E+02  0.00000000000E+00 0. -1.
         11    1    1    2    0    0 -0.29184846544E+02 -0.71420990787E+02 -0.77871687580E+02  0.10962076865E+03  0.00000000000E+00 0.  1.
</event>
<event>
 7    1  0.2490079E-009  0.7062737E+02  0.7561462E-02  0.1357973E+00
         -3   -1    0    0    0  501 -0.00000000000E+00  0.00000000000E+00  0.80063942260E+02  0.80063942260E+02  0.00000000000E+00 0.  1.
          3   -1    0    0  501    0  0.00000000000E+00 -0.00000000000E+00 -0.14395031316E+03  0.14395031316E+03  0.00000000000E+00 0. -1.
         25    2    1    2    0    0 -0.52222643954E+02 -0.41145490126E+02 -0.58080935007E+02  0.15309854268E+03  0.12508242427E+03 0.  0.
          5    1    3    3  502    0 -0.22872097609E+02 -0.35470783331E+02 -0.95811864217E+02  0.10477926820E+03  0.41800000000E+01 0. -1.
         -5    1    3    3    0  502 -0.29350546344E+02 -0.56747067949E+01  0.37730929210E+02  0.48319274487E+02  0.41800000000E+01 0. -1.
        -11    1    1    2    0    0  0.24238706735E+02  0.29920393466E+02  0.51213562214E+01  0.38845503458E+02  0.00000000000E+00 0.  1.
         11    1    1    2    0    0  0.27983937219E+02  0.11225096660E+02 -0.10926792114E+02  0.32070209279E+02  0.00000000000E+00 0. -1.
</event>
<event>
 7    1  0.2490079E-009  0.1280998E+03  0.7561462E-02  0.1230303E+00
         -2   -1    0    0    0  501 -0.00000000000E+00  0.00000000000E+00  0.31396086472E+02  0.31396086472E+02  0.00000000000E+00 0.  1.
          2   -1    0    0  501    0  0.00000000000E+00 -0.00000000000E+00 -0.61131111898E+03  0.61131111898E+03  0.00000000000E+00 0. -1.
         25    2    1    2    0    0 -0.33201750042E+02  0.71767156131E+02 -0.39145892602E+03  0.41849712432E+03  0.12508745502E+03 0.  0.
          5    1    3    3  502    0 -0.80842607542E+02  0.47680178617E+02 -0.23262969804E+03  0.25088438660E+03  0.41800000000E+01 0.  1.
         -5    1    3    3    0  502  0.47640857499E+02  0.24086977515E+02 -0.15882922797E+03  0.16761273773E+03  0.41800000000E+01 0.  1.
        -11    1    1    2    0    0 -0.18020857753E+01 -0.73628123631E+02 -0.16845575631E+03  0.18385235908E+03  0.00000000000E+00 0. -1.
         11    1    1    2    0    0  0.35003835818E+02  0.18609674993E+01 -0.20000350175E+02  0.40357722050E+02  0.00000000000E+00 0.  1.
</event>
<event>
 7    1  0.2490079E-009  0.1062157E+03  0.7561462E-02  0.1267743E+00
         -2   -1    0    0    0  501 -0.00000000000E+00  0.00000000000E+00  0.21622259233E+03  0.21622259233E+03  0.00000000000E+00 0.  1.
          2   -1    0    0  501    0  0.00000000000E+00 -0.00000000000E+00 -0.10817669104E+03  0.10817669104E+03  0.00000000000E+00 0. -1.
         25    2    1    2    0    0 -0.27109594163E+02 -0.72105446463E+02 -0.17802461995E+02  0.14798076426E+03  0.12508898205E+03 0.  0.
          5    1    3    3  502    0 -0.32799664750E+02 -0.88775106001E+02 -0.52890759708E+02  0.10849766042E+03  0.41800000000E+01 0. -1.
         -5    1    3    3    0  502  0.56900705876E+01  0.16669659538E+02  0.35088297714E+02  0.39483103840E+02  0.41800000000E+01 0. -1.
        -11    1    1    2    0    0  0.40046846464E+02  0.76152107134E+02  0.50301374546E+02  0.99665047102E+02  0.00000000000E+00 0. -1.
         11    1    1    2    0    0 -0.12937252301E+02 -0.40466606709E+01  0.75546988732E+02  0.76753472014E+02  0.00000000000E+00 0.  1.
</event>
<event>
 7    1  0.2490079E-009  0.8265410E+02  0.7561462E-02  0.1321684E+00
         -2   -1    0    0    0  501 -0.00000000000E+00  0.00000000000E+00  0.25034153928E+03  0.25034153928E+03  0.00000000000E+00 0.  1.
          2   -1    0    0  501    0  0.00000000000E+00 -0.00000000000E+00 -0.50408367948E+02  0.50408367948E+02  0.00000000000E+00 0. -1.
         25    2    1    2    0    0  0.11768326060E+02  0.27540638521E+02  0.99833593999E+02  0.16282109921E+03  0.12508790344E+03 0.  0.
          5    1    3    3  502    0  0.59142099070E+02 -0.18532969197E+02  0.53781118407E+02  0.82165320706E+02  0.41800000000E+01 0.  1.
         -5    1    3    3    0  502 -0.47373773010E+02  0.46073607718E+02  0.46052475592E+02  0.80655778501E+02  0.41800000000E+01 0.  1.
        -11    1    1    2    0    0  0.60370797887E+01 -0.11592564797E+02 -0.15275207382E+02  0.20103876529E+02  0.00000000000E+00 0. -1.
         11    1    1    2    0    0 -0.17805405849E+02 -0.15948073725E+02  0.11537478471E+03  0.11782493149E+03  0.00000000000E+00 0.  1.
</event>
<event>
 7    1  0.2490079E-009  0.1336519E+03  0.7561462E-02  0.1222135E+00
          1   -1    0    0  501    0  0.00000000000E+00  0.00000000000E+00  0.61284256579E+03  0.61284256579E+03  0.00000000000E+00 0. -1.
         -1   -1    0    0    0  501 -0.00000000000E+00 -0.00000000000E+00 -0.41569269789E+02  0.41569269789E+02  0.00000000000E+00 0.  1.
         25    2    1    2    0    0  0.56156217143E+02  0.10223209420E+03  0.34663193407E+03  0.38652983507E+03  0.12508674539E+03 0.  0.
          5    1    3    3  502    0 -0.12432767779E+02  0.37742802782E+02  0.24378121515E+03  0.24703409914E+03  0.41800000000E+01 0.  1.
         -5    1    3    3    0  502  0.68588984922E+02  0.64489291417E+02  0.10285071892E+03  0.13949573593E+03  0.41800000000E+01 0.  1.
        -11    1    1    2    0    0 -0.22002872047E+02 -0.95876879910E+02  0.20640405758E+03  0.22864631522E+03  0.00000000000E+00 0.  1.
         11    1    1    2    0    0 -0.34153345096E+02 -0.63552142894E+01  0.18237304350E+02  0.39235685286E+02  0.00000000000E+00 0. -1.
</event>
<event>
 7    1  0.2490079E-009  0.2158623E+03  0.7561462E-02  0.1137006E+00
         -4   -1    0    0    0  501 -0.00000000000E+00  0.00000000000E+00  0.15334170490E+04  0.15334170490E+04  0.00000000000E+00 0.  1.
          4   -1    0    0  501    0  0.00000000000E+00 -0.00000000000E+00 -0.37554411858E+02  0.37554411858E+02  0.00000000000E+00 0. -1.
         25    2    1    2    0    0  0.20695668538E+03  0.10364988754E+02  0.60101490887E+03  0.64792430397E+03  0.12509388621E+03 0.  0.
          5    1    3    3  502    0  0.11335111420E+03 -0.27589920349E+02  0.17703058962E+03  0.21205419321E+03  0.41800000000E+01 0. -1.
         -5    1    3    3    0  502  0.93605571173E+02  0.37954909102E+02  0.42398431925E+03  0.43587011076E+03  0.41800000000E+01 0. -1.
        -11    1    1    2    0    0 -0.10825806405E+03 -0.31928500220E+02  0.31839336681E+03  0.33780700642E+03  0.00000000000E+00 0. -1.
         11    1    1    2    0    0 -0.98698621329E+02  0.21563511466E+02  0.57645436146E+03  0.58524015047E+03  0.00000000000E+00 0.  1.
</event>
<event>
 7    1  0.2490079E-009  0.1235713E+03  0.7561462E-02  0.1237319E+00
          1   -1    0    0  501    0  0.00000000000E+00  0.00000000000E+00  0.29407887388E+02  0.29407887388E+02  0.00000000000E+00 0. -1.
         -1   -1    0    0    0  501 -0.00000000000E+00 -0.00000000000E+00 -0.67467555867E+03  0.67467555867E+03  0.00000000000E+00 0.  1.
         25    2    1    2    0    0  0.78764709029E+02  0.36993120705E+02 -0.40454411629E+03  0.43229048726E+03  0.12508698164E+03 0.  0.
          5    1    3    3  502    0  0.10210716603E+03  0.60432786044E+02 -0.30395000103E+03  0.32631437374E+03  0.41800000000E+01 0.  1.
         -5    1    3    3    0  502 -0.23342457002E+02 -0.23439665339E+02 -0.10059411527E+03  0.10597611352E+03  0.41800000000E+01 0.  1.
        -11    1    1    2    0    0 -0.48830490940E+02 -0.17867167487E+01 -0.21160204938E+03  0.21717052403E+03  0.00000000000E+00 0.  1.
         11    1    1    2    0    0 -0.29934218089E+02 -0.35206403956E+02 -0.29121505603E+02  0.54622434775E+02  0.00000000000E+00 0. -1.
</event>
<event>
 7    1  0.2490079E-009  0.8636909E+02  0.7561462E-02  0.1311891E+00
         -2   -1    0    0    0  501 -0.00000000000E+00  0.00000000000E+00  0.39740856895E+02  0.39740856895E+02  0.00000000000E+00 0. -1.
          2   -1    0    0  501    0  0.00000000000E+00 -0.00000000000E+00 -0.38696751975E+03  0.38696751975E+03  0.00000000000E+00 0.  1.
         25    2    1    2    0    0  0.37880773485E+02  0.45494391657E+02 -0.17489348115E+03  0.22302420233E+03  0.12508945759E+03 0.  0.
          5    1    3    3  502    0  0.19308947394E+02  0.50222943139E+01  0.16655027267E+02  0.26323396873E+02  0.41800000000E+01 0. -1.
         -5    1    3    3    0  502  0.18571826091E+02  0.40472097343E+02 -0.19154850842E+03  0.19670080545E+03  0.41800000000E+01 0. -1.
        -11    1    1    2    0    0 -0.61601375784E+02 -0.64436379913E+01 -0.11221766088E+03  0.12817586896E+03  0.00000000000E+00 0.  1.
         11    1    1    2    0    0  0.23720602299E+02 -0.39050753665E+02 -0.60115520811E+02  0.75508305355E+02  0.00000000000E+00 0. -1.
</event>
<event>
 7    1  0.2490079E-009  0.9721956E+02  0.7561462E-02  0.1286254E+00
          1   -1    0    0  501    0  0.00000000000E+00  0.00000000000E+00  0.56979317298E+02  0.56979317298E+02  0.00000000000E+00 0. -1.
         -1   -1    0    0    0  501 -0.00000000000E+00 -0.00000000000E+00 -0.39322311360E+03  0.39322311360E+03  0.00000000000E+00 0.  1.
         25    2    1    2    0    0  0.38388678412E+02  0.34441638812E+02 -0.31426123678E+03  0.34215295904E+03  0.12509438567E+03 0.  0.
          5    1    3    3  502    0  0.46094955181E+02  0.66873100694E+02 -0.11971332560E+03  0.14472563428E+03  0.41800000000E+01 0.  1.
         -5    1    3    3    0  502 -0.77062767695E+01 -0.32431461882E+02 -0.19454791117E+03  0.19742732476E+03  0.41800000000E+01 0.  1.
        -11    1    1    2    0    0 -0.24864148016E+02  0.14470345551E+02  0.25580922973E+02  0.38496758008E+02  0.00000000000E+00 0. -1.
         11    1    1    2    0    0 -0.13524530396E+02 -0.48911984363E+02 -0.47563482502E+02  0.69552713854E+02  0.00000000000E+00 0.  1.
</event>
<event>
 7    1  0.2490079E-009  0.1088107E+03  0.7561462E-02  0.1262788E+00
         -2   -1    0    0    0  501 -0.00000000000E+00  0.00000000000E+00  0.35663289404E+03  0.35663289404E+03  0.00000000000E+00 0.  1.
          2   -1    0    0  501    0  0.00000000000E+00 -0.00000000000E+00 -0.63129320180E+02  0.63129320180E+02  0.00000000000E+00 0. -1.
         25    2    1    2    0    0 -0.91174498833E+02  0.92713131442E+01  0.89980296552E+02  0.17927975485E+03  0.12508409270E+03 0.  0.
          5    1    3    3  502    0  0.85830244440E+01  0.20089496572E+02 -0.20306592803E+02  0.30117873305E+02  0.41800000000E+01 0.  1.
         -5    1    3    3    0  502 -0.99757523277E+02 -0.10818183428E+02  0.11028688936E+03  0.14916188155E+03  0.41800000000E+01 0.  1.
        -11    1    1    2    0    0  0.33526616274E+02 -0.15556716017E+02  0.97590104151E+01  0.38226740592E+02  0.00000000000E+00 0. -1.
         11    1    1    2    0    0  0.57647882559E+02  0.62854028726E+01  0.19376426689E+03  0.20225571877E+03  0.00000000000E+00 0.  1.
</event>
<event>
 7    1  0.2490079E-009  0.2212092E+03  0.7561462E-02  0.1132985E+00
         -1   -1    0    0    0  501 -0.00000000000E+00  0.00000000000E+00  0.26549883965E+03  0.26549883965E+03  0.00000000000E+00 0.  1.
          1   -1    0    0  501    0  0.00000000000E+00 -0.00000000000E+00 -0.22104924640E+03  0.22104924640E+03  0.00000000000E+00 0. -1.
         25    2    1    2    0    0 -0.74804111514E+02  0.20288360097E+03  0.21326622106E+02  0.25072486327E+03  0.12510284413E+03 0.  0.
          5    1    3    3  502    0 -0.61151468731E+02  0.13110675499E+03  0.72061843885E+02  0.16167518386E+03  0.41800000000E+01 0.  1.
         -5    1    3    3    0  502 -0.13652642783E+02  0.71776845981E+02 -0.50735221778E+02  0.89049679409E+02  0.41800000000E+01 0.  1.
        -11    1    1    2    0    0  0.19427229517E+02 -0.13731953765E+03  0.47519244734E+02  0.14660201665E+03  0.00000000000E+00 0.  1.
         11    1    1    2    0    0  0.55376881996E+02 -0.65564063322E+02 -0.24396273583E+02  0.89221206132E+02  0.00000000000E+00 0. -1.
</event>
<event>
 7    1  0.2490079E-009  0.1857171E+03  0.7561462E-02  0.1162382E+00
          1   -1    0    0  501    0  0.00000000000E+00  0.00000000000E+00  0.63708256857E+03  0.63708256857E+03  0.00000000000E+00 0. -1.
         -1   -1    0    0    0  501 -0.00000000000E+00 -0.00000000000E+00 -0.70241838851E+02  0.70241838851E+02  0.00000000000E+00 0.  1.
         25    2    1    2    0    0  0.17745632093E+03 -0.33313480131E+02  0.32041360958E+03  0.38847422791E+03  0.12508721259E+03 0.  0.
          5    1    3    3  502    0  0.91578424976E+02  0.34501776206E+01  0.26348447510E+03  0.27899830226E+03  0.41800000000E+01 0. -1.
         -5    1    3    3    0  502  0.85877895954E+02 -0.36763657752E+02  0.56929134480E+02  0.10947592565E+03  0.41800000000E+01 0. -1.
        -11    1    1    2    0    0 -0.28451990385E+02 -0.11349008463E+02  0.41173932914E+01  0.30907421074E+02  0.00000000000E+00 0.  1.
         11    1    1    2    0    0 -0.14900433054E+03  0.44662488594E+02  0.24230972685E+03  0.28794275844E+03  0.00000000000E+00 0. -1.
</event>
<event>
 7    1  0.2490079E-009  0.1132812E+03  0.7561462E-02  0.1254612E+00
         -1   -1    0    0    0  501 -0.00000000000E+00  0.00000000000E+00  0.36626888148E+02  0.36626888148E+02  0.00000000000E+00 0.  1.
          1   -1    0    0  501    0  0.00000000000E+00 -0.00000000000E+00 -0.65307155109E+03  0.65307155109E+03  0.00000000000E+00 0. -1.
         25    2    1    2    0    0 -0.84233057196E+02 -0.43726586719E+02 -0.45311622965E+03  0.47955099944E+03  0.12509045200E+03 0.  0.
          5    1    3    3  502    0 -0.68227461210E+02  0.37781513620E+00 -0.88104271918E+02  0.11151217125E+03  0.41800000000E+01 0. -1.
         -5    1    3    3    0  502 -0.16005595986E+02 -0.44104401856E+02 -0.36501195773E+03  0.36803882819E+03  0.41800000000E+01 0. -1.
        -11    1    1    2    0    0  0.38616331806E+02  0.51969182204E+02 -0.14763382053E+03  0.16120720190E+03  0.00000000000E+00 0.  1.
         11    1    1    2    0    0  0.45616725391E+02 -0.82425954850E+01 -0.15694612767E+02  0.48940237899E+02  0.00000000000E+00 0. -1.
</event>
<event>
 7    1  0.2490079E-009  0.2907012E+03  0.7561462E-02  0.1089984E+00
         -1   -1    0    0    0  501 -0.00000000000E+00  0.00000000000E+00  0.17841952229E+03  0.17841952229E+03  0.00000000000E+00 0.  1.
          1   -1    0    0  501    0  0.00000000000E+00 -0.00000000000E+00 -0.50177932105E+03  0.50177932105E+03  0.00000000000E+00 0. -1.
         25    2    1    2    0    0 -0.13115451401E+03 -0.23718987649E+03 -0.23827975279E+03  0.38194835783E+03  0.12508702333E+03 0.  0.
          5    1    3    3  502    0  0.23435276354E+02 -0.34757860770E+02 -0.48765156640E+02  0.64442485716E+02  0.41800000000E+01 0.  1.
         -5    1    3    3    0  502 -0.15458979036E+03 -0.20243201572E+03 -0.18951459615E+03  0.31750587211E+03  0.41800000000E+01 0.  1.
        -11    1    1    2    0    0 -0.56547857369E+01  0.61969158956E+02 -0.69367298359E+01  0.62612071394E+02  0.00000000000E+00 0.  1.
         11    1    1    2    0    0  0.13680929974E+03  0.17522071754E+03 -0.78143316135E+02  0.23563841411E+03  0.00000000000E+00 0. -1.
</event>
<event>
 7    1  0.2490079E-009  0.9679600E+02  0.7561462E-02  0.1287182E+00
         -1   -1    0    0    0  501 -0.00000000000E+00  0.00000000000E+00  0.55330194728E+02  0.55330194728E+02  0.00000000000E+00 0.  1.
          1   -1    0    0  501    0  0.00000000000E+00 -0.00000000000E+00 -0.27386381028E+03  0.27386381028E+03  0.00000000000E+00 0. -1.
         25    2    1    2    0    0 -0.86515962047E+01  0.47139765841E+02 -0.74067412106E+02  0.15307022391E+03  0.12508998469E+03 0.  0.
          5    1    3    3  502    0  0.35617008446E+02 -0.23221251474E+01  0.17440310652E+02  0.39944967036E+02  0.41800000000E+01 0. -1.
         -5    1    3    3    0  502 -0.44268604650E+02  0.49461890989E+02 -0.91507722758E+02  0.11312525687E+03  0.41800000000E+01 0. -1.
        -11    1    1    2    0    0 -0.21631307209E+02 -0.55635548700E+02 -0.12656198188E+03  0.13993270878E+03  0.00000000000E+00 0. -1.
         11    1    1    2    0    0  0.30282903413E+02  0.84957828587E+01 -0.17904221569E+02  0.36191072318E+02  0.00000000000E+00 0.  1.
</event>
<event>
 7    1  0.2490079E-009  0.1222501E+03  0.7561462E-02  0.1239431E+00
         -1   -1    0    0    0  501 -0.00000000000E+00  0.00000000000E+00  0.12626284066E+03  0.12626284066E+03  0.00000000000E+00 0.  1.
          1   -1    0    0  501    0  0.00000000000E+00 -0.00000000000E+00 -0.22077730725E+03  0.22077730725E+03  0.00000000000E+00 0. -1.
         25    2    1    2    0    0  0.10821374130E+03 -0.36162967806E+02 -0.11085633015E+03  0.20237092645E+03  0.12508753691E+03 0.  0.
          5    1    3    3  502    0  0.10011153683E+03 -0.18537369493E+02 -0.13625233473E+03  0.17014148522E+03  0.41800000000E+01 0.  1.
         -5    1    3    3    0  502  0.81022044744E+01 -0.17625598313E+02  0.25396004579E+02  0.32229441228E+02  0.41800000000E+01 0.  1.
        -11    1    1    2    0    0 -0.30249104077E+02 -0.10351562462E+02  0.39654735599E+02  0.50937816976E+02  0.00000000000E+00 0.  1.
         11    1    1    2    0    0 -0.77964637225E+02  0.46514530268E+02 -0.23312872048E+02  0.93731404486E+02  0.00000000000E+00 0. -1.
</event>
<event>
 7    1  0.2490079E-009  0.1419506E+03  0.7561462E-02  0.1210728E+00
          2   -1    0    0  501    0  0.00000000000E+00  0.00000000000E+00  0.13268457753E+04  0.13268457753E+04  0.00000000000E+00 0. -1.
         -2   -1    0    0    0  501 -0.00000000000E+00 -0.00000000000E+00 -0.17713509707E+02  0.17713509707E+02  0.00000000000E+00 0.  1.
         25    2    1    2    0    0 -0.89788978069E+02 -0.34126525932E+02  0.93314685566E+03  0.94638150559E+03  0.12509284372E+03 0.  0.
          5    1    3    3  502    0 -0.54442038513E+02  0.41993670095E+02  0.30776406595E+03  0.31537849733E+03  0.41800000000E+01 0. -1.
         -5    1    3    3    0  502 -0.35346939556E+02 -0.76120196027E+02  0.62538278971E+03  0.63100300827E+03  0.41800000000E+01 0. -1.
        -11    1    1    2    0    0  0.68603210912E+02  0.64361983602E+02  0.26337892380E+03  0.27967360080E+03  0.00000000000E+00 0. -1.
         11    1    1    2    0    0  0.21185767157E+02 -0.30235457670E+02  0.11260648617E+03  0.11850417865E+03  0.00000000000E+00 0.  1.
</event>
<event>
 7    1  0.2490079E-009  0.1157619E+03  0.7561462E-02  0.1250257E+00
          2   -1    0    0  501    0  0.00000000000E+00  0.00000000000E+00  0.77349006901E+03  0.77349006901E+03  0.00000000000E+00 0.  1.
         -2   -1    0    0    0  501 -0.00000000000E+00 -0.00000000000E+00 -0.20086580942E+02  0.20086580942E+02  0.00000000000E+00 0. -1.
         25    2    1    2    0    0 -0.60462020758E+02  0.33326256809E+01  0.38214664103E+03  0.40663431756E+03  0.12509456671E+03 0.  0.
          5    1    3    3  502    0  0.16020525574E+02 -0.41510739119E+02  0.79042392626E+02  0.90801822305E+02  0.41800000000E+01 0. -1.
         -5    1    3    3    0  502 -0.76482546332E+02  0.44843364800E+02  0.30310424840E+03  0.31583249526E+03  0.41800000000E+01 0. -1.
        -11    1    1    2    0    0  0.37361694515E+02 -0.40001837944E+02  0.11893829175E+03  0.13092883754E+03  0.00000000000E+00 0. -1.
         11    1    1    2    0    0  0.23100326243E+02  0.36669212263E+02  0.25231855529E+03  0.25601349485E+03  0.00000000000E+00 0.  1.
</event>
<event>
 7    1  0.2490079E-009  0.8303867E+02  0.7561462E-02  0.1320643E+00
         -2   -1    0    0    0  501 -0.00000000000E+00  0.00000000000E+00  0.51748920813E+03  0.51748920813E+03  0.00000000000E+00 0.  1.
          2   -1    0    0  501    0  0.00000000000E+00 -0.00000000000E+00 -0.26348372738E+02  0.26348372738E+02  0.00000000000E+00 0. -1.
         25    2    1    2    0    0 -0.18593069885E+02 -0.35546300832E+02  0.26817545512E+03  0.29862095151E+03  0.12508859340E+03 0.  0.
          5    1    3    3  502    0 -0.16125613334E+02 -0.65210045463E+02  0.66144019107E+02  0.94365719932E+02  0.41800000000E+01 0.  1.
         -5    1    3    3    0  502 -0.24674565515E+01  0.29663744631E+02  0.20203143602E+03  0.20425523158E+03  0.41800000000E+01 0.  1.
        -11    1    1    2    0    0 -0.14535730566E+02 -0.58721910634E+01 -0.35843378872E+00  0.15681153202E+02  0.00000000000E+00 0. -1.
         11    1    1    2    0    0  0.33128800451E+02  0.41418491895E+02  0.22332381406E+03  0.22953547616E+03  0.00000000000E+00 0.  1.
</event>
<event>
 7    1  0.2490079E-009  0.1610489E+03  0.7561462E-02  0.1187518E+00
         -2   -1    0    0    0  501 -0.00000000000E+00  0.00000000000E+00  0.38351044244E+02  0.38351044244E+02  0.00000000000E+00 0.  1.
          2   -1    0    0  501    0  0.00000000000E+00 -0.00000000000E+00 -0.98669944660E+03  0.98669944660E+03  0.00000000000E+00 0. -1.
         25    2    1    2    0    0 -0.11858595420E+03  0.90338221098E+02 -0.65942870926E+03  0.68754471843E+03  0.12509154457E+03 0.  0.
          5    1    3    3  502    0 -0.72621205399E+02  0.20531463429E+02 -0.51584985583E+03  0.52135777219E+03  0.41800000000E+01 0.  1.
         -5    1    3    3    0  502 -0.45964748804E+02  0.69806757669E+02 -0.14357885343E+03  0.16618694624E+03  0.41800000000E+01 0.  1.
        -11    1    1    2    0    0  0.66943132019E+02 -0.88744240864E+02 -0.13349201332E+03  0.17371540183E+03  0.00000000000E+00 0.  1.
         11    1    1    2    0    0  0.51642822183E+02 -0.15939802341E+01 -0.15542767977E+03  0.16379037058E+03  0.00000000000E+00 0. -1.
</event>
<event>
 7    1  0.2490079E-009  0.9740159E+02  0.7561462E-02  0.1285857E+00
          2   -1    0    0  501    0  0.00000000000E+00  0.00000000000E+00  0.20743321917E+03  0.20743321917E+03  0.00000000000E+00 0. -1.
         -2   -1    0    0    0  501 -0.00000000000E+00 -0.00000000000E+00 -0.86174470300E+02  0.86174470300E+02  0.00000000000E+00 0.  1.
         25    2    1    2    0    0  0.99263734480E+01  0.34037026307E+02  0.14266957969E+03  0.19302447192E+03  0.12508711262E+03 0.  0.
          5    1    3    3  502    0 -0.59166513947E+01  0.77594730867E+02  0.11488520575E+03  0.13882374409E+03  0.41800000000E+01 0. -1.
         -5    1    3    3    0  502  0.15843024843E+02 -0.43557704560E+02  0.27784373932E+02  0.54200727831E+02  0.41800000000E+01 0. -1.
        -11    1    1    2    0    0 -0.20997714438E+02 -0.48071722781E+02  0.19478483595E+02  0.55957178860E+02  0.00000000000E+00 0. -1.
         11    1    1    2    0    0  0.11071340990E+02  0.14034696474E+02 -0.40889314409E+02  0.44626038691E+02  0.00000000000E+00 0.  1.
</event>
<event>
 7    1  0.2490079E-009  0.1261826E+03  0.7561462E-02  0.1233233E+00
          1   -1    0    0  501    0  0.00000000000E+00  0.00000000000E+00  0.69242879439E+03  0.69242879439E+03  0.00000000000E+00 0. -1.
         -1   -1    0    0    0  501 -0.00000000000E+00 -0.00000000000E+00 -0.41991498343E+02  0.41991498343E+02  0.00000000000E+00 0.  1.
         25    2    1    2    0    0 -0.52656727147E+02  0.89952620554E+02  0.52357646434E+03  0.54831159078E+03  0.12509628976E+03 0.  0.
          5    1    3    3  502    0 -0.17283288686E+02  0.77072677614E+02  0.49390020710E+03  0.50019375913E+03  0.41800000000E+01 0. -1.
         -5    1    3    3    0  502 -0.35373438461E+02  0.12879942940E+02  0.29676257246E+02  0.48117831651E+02  0.41800000000E+01 0. -1.
        -11    1    1    2    0    0 -0.16352044613E+02 -0.56276067000E+02  0.45147505263E+02  0.73977579789E+02  0.00000000000E+00 0.  1.
         11    1    1    2    0    0  0.69008771760E+02 -0.33676553554E+02  0.81713326439E+02  0.11213112216E+03  0.00000000000E+00 0. -1.
</event>
<event>
 7    1  0.2490079E-009  0.1612008E+03  0.7561462E-02  0.1187348E+00
          2   -1    0    0  501    0  0.00000000000E+00  0.00000000000E+00  0.39385014632E+03  0.39385014632E+03  0.00000000000E+00 0. -1.
         -2   -1    0    0    0  501 -0.00000000000E+00 -0.00000000000E+00 -0.90698926117E+02  0.90698926117E+02  0.00000000000E+00 0.  1.
         25    2    1    2    0    0 -0.12535718125E+03  0.20377351862E+02  0.26592577707E+03  0.32014650585E+03  0.12509039506E+03 0.  0.
          5    1    3    3  502    0 -0.17802450506E+02  0.47813798661E+02  0.29885966921E+02  0.59276723975E+02  0.41800000000E+01 0. -1.
         -5    1    3    3    0  502 -0.10755473075E+03 -0.27436446799E+02  0.23603981015E+03  0.26086978187E+03  0.41800000000E+01 0. -1.
        -11    1    1    2    0    0  0.25698659081E+02  0.37066468479E+02  0.10604651976E+02  0.46333603439E+02  0.00000000000E+00 0. -1.
         11    1    1    2    0    0  0.99658522174E+02 -0.57443820341E+02  0.26620791156E+02  0.11806896315E+03  0.00000000000E+00 0.  1.
</event>
<event>
 7    1  0.2490079E-009  0.2079367E+03  0.7561462E-02  0.1143210E+00
          1   -1    0    0  501    0  0.00000000000E+00  0.00000000000E+00  0.34336199557E+03  0.34336199557E+03  0.00000000000E+00 0. -1.
         -1   -1    0    0    0  501 -0.00000000000E+00 -0.00000000000E+00 -0.13585674653E+03  0.13585674653E+03  0.00000000000E+00 0.  1.
         25    2    1    2    0    0 -0.14145140727E+02  0.18406887486E+03  0.12435556664E+03  0.25532792934E+03  0.12508640553E+03 0.  0.
          5    1    3    3  502    0 -0.45322664762E+02  0.16554399598E+03  0.60989101058E+02  0.18219797308E+03  0.41800000000E+01 0. -1.
         -5    1    3    3    0  502  0.31177524035E+02  0.18524878885E+02  0.63366465585E+02  0.73129956265E+02  0.41800000000E+01 0. -1.
        -11    1    1    2    0    0 -0.37856014848E+02 -0.11600359933E+03  0.53643320042E+02  0.13329485625E+03  0.00000000000E+00 0.  1.
         11    1    1    2    0    0  0.52001155575E+02 -0.68065275536E+02  0.29506362358E+02  0.90595956502E+02  0.00000000000E+00 0. -1.
</event>
<event>
 7    1  0.2490079E-009  0.1408663E+03  0.7561462E-02  0.1212168E+00
          2   -1    0    0  501    0  0.00000000000E+00  0.00000000000E+00  0.54879074673E+03  0.54879074673E+03  0.00000000000E+00 0. -1.
         -2   -1    0    0    0  501 -0.00000000000E+00 -0.00000000000E+00 -0.43979535674E+02  0.43979535674E+02  0.00000000000E+00 0.  1.
         25    2    1    2    0    0 -0.74771783945E+02  0.61387858025E+02  0.36747731161E+03  0.40005746967E+03  0.12508843151E+03 0.  0.
          5    1    3    3  502    0 -0.89433121578E+02  0.25945185005E+01  0.15446567056E+03  0.17855567911E+03  0.41800000000E+01 0.  1.
         -5    1    3    3    0  502  0.14661337633E+02  0.58793339525E+02  0.21301164106E+03  0.22150179056E+03  0.41800000000E+01 0.  1.
        -11    1    1    2    0    0  0.93589772863E+02 -0.37037268060E+02  0.83829266231E+02  0.13098912431E+03  0.00000000000E+00 0.  1.
         11    1    1    2    0    0 -0.18817988917E+02 -0.24350589966E+02  0.53504633213E+02  0.61723688434E+02  0.00000000000E+00 0. -1.
</event>
<event>
 7    1  0.2490079E-009  0.8883033E+02  0.7561462E-02  0.1305709E+00
         -1   -1    0    0    0  501 -0.00000000000E+00  0.00000000000E+00  0.59150221588E+03  0.59150221588E+03  0.00000000000E+00 0.  1.
          1   -1    0    0  501    0  0.00000000000E+00 -0.00000000000E+00 -0.22935479067E+02  0.22935479067E+02  0.00000000000E+00 0. -1.
         25    2    1    2    0    0 -0.26880348964E+02 -0.42052242911E+02  0.30176474005E+03  0.33045965994E+03  0.12510269468E+03 0.  0.
          5    1    3    3  502    0 -0.27302151367E+02  0.16292065151E+02  0.25090424357E+03  0.25294515354E+03  0.41800000000E+01 0.  1.
         -5    1    3    3    0  502  0.42180240334E+00 -0.58344308062E+02  0.50860496478E+02  0.77514506400E+02  0.41800000000E+01 0.  1.
        -11    1    1    2    0    0  0.37730399183E+02  0.57164866420E+02  0.24892654775E+03  0.25817790601E+03  0.00000000000E+00 0.  1.
         11    1    1    2    0    0 -0.10850050219E+02 -0.15112623509E+02  0.17875449016E+02  0.25800129004E+02  0.00000000000E+00 0. -1.
</event>
<event>
 7    1  0.2490079E-009  0.1222954E+03  0.7561462E-02  0.1239358E+00
         -3   -1    0    0    0  501 -0.00000000000E+00  0.00000000000E+00  0.15658535147E+03  0.15658535147E+03  0.00000000000E+00 0. -1.
          3   -1    0    0  501    0  0.00000000000E+00 -0.00000000000E+00 -0.15585241337E+03  0.15585241337E+03  0.00000000000E+00 0.  1.
         25    2    1    2    0    0 -0.95427072829E+02  0.57195294046E+02 -0.43912593589E+01  0.16746656663E+03  0.12509252532E+03 0.  0.
          5    1    3    3  502    0 -0.20904155623E+02  0.44207612406E+02 -0.57009282297E+02  0.75225177866E+02  0.41800000000E+01 0. -1.
         -5    1    3    3    0  502 -0.74522917206E+02  0.12987681640E+02  0.52618022938E+02  0.92241388764E+02  0.41800000000E+01 0. -1.
        -11    1    1    2    0    0  0.64053613521E+02 -0.60618866609E+02  0.40944231513E+02  0.97231386333E+02  0.00000000000E+00 0. -1.
         11    1    1    2    0    0  0.31373459308E+02  0.34235725623E+01 -0.35820034055E+02  0.47739811874E+02  0.00000000000E+00 0.  1.
</event>
<event>
 7    1  0.2490079E-009  0.1487252E+03  0.7561462E-02  0.1202048E+00
         -2   -1    0    0    0  501 -0.00000000000E+00  0.00000000000E+00  0.59688119805E+02  0.59688119805E+02  0.00000000000E+00 0.  1.
          2   -1    0    0  501    0  0.00000000000E+00 -0.00000000000E+00 -0.43394801887E+03  0.43394801887E+03  0.00000000000E+00 0. -1.
         25    2    1    2    0    0  0.54727917141E+02  0.90199597569E+02 -0.28794180861E+03  0.33119153554E+03  0.12508491417E+03 0.  0.
          5    1    3    3  502    0 -0.36977875370E+02  0.52541141533E+02 -0.11032486075E+03  0.12773794315E+03  0.41800000000E+01 0. -1.
         -5    1    3    3    0  502  0.91705792511E+02  0.37658456036E+02 -0.17761694786E+03  0.20345359239E+03  0.41800000000E+01 0. -1.
        -11    1    1    2    0    0 -0.76752643136E+02 -0.72579182027E+02 -0.51162178209E+02  0.11737237482E+03  0.00000000000E+00 0.  1.
         11    1    1    2    0    0  0.22024725995E+02 -0.17620415542E+02 -0.35155912244E+02  0.45072228309E+02  0.00000000000E+00 0. -1.
</event>
<event>
 7    1  0.2490079E-009  0.1093543E+03  0.7561462E-02  0.1261770E+00
         -3   -1    0    0    0  501 -0.00000000000E+00  0.00000000000E+00  0.69801543473E+02  0.69801543473E+02  0.00000000000E+00 0. -1.
          3   -1    0    0  501    0  0.00000000000E+00 -0.00000000000E+00 -0.20740980746E+03  0.20740980746E+03  0.00000000000E+00 0.  1.
         25    2    1    2    0    0  0.32301840969E+02 -0.22260660513E+02 -0.37519495846E+02  0.13636115991E+03  0.12509079673E+03 0.  0.
          5    1    3    3  502    0  0.62855479771E+02 -0.54180821007E+02 -0.89326671832E+01  0.83568161672E+02  0.41800000000E+01 0. -1.
         -5    1    3    3    0  502 -0.30553638802E+02  0.31920160493E+02 -0.28586828663E+02  0.52792998238E+02  0.41800000000E+01 0. -1.
        -11    1    1    2    0    0 -0.22612812647E+02  0.53737448168E+02 -0.88417670913E+02  0.10590909858E+03  0.00000000000E+00 0.  1.
         11    1    1    2    0    0 -0.96890283211E+01 -0.31476787655E+02 -0.11671097226E+02  0.34941092447E+02  0.00000000000E+00 0. -1.
</event>
<event>
 7    1  0.2490079E-009  0.1371434E+03  0.7561462E-02  0.1217225E+00
          1   -1    0    0  501    0  0.00000000000E+00  0.00000000000E+00  0.13713521431E+03  0.13713521431E+03  0.00000000000E+00 0. -1.
         -1   -1    0    0    0  501 -0.00000000000E+00 -0.00000000000E+00 -0.14599523753E+03  0.14599523753E+03  0.00000000000E+00 0.  1.
         25    2    1    2    0    0  0.26312077515E+01 -0.89461492198E+02  0.12111265711E+01  0.15382030848E+03  0.12509571789E+03 0.  0.
          5    1    3    3  502    0 -0.98105715327E+01  0.28413350217E+02 -0.15445742001E+02  0.34053034084E+02  0.41800000000E+01 0. -1.
         -5    1    3    3    0  502  0.12441779284E+02 -0.11787484241E+03  0.16656868572E+02  0.11976727440E+03  0.41800000000E+01 0. -1.
        -11    1    1    2    0    0  0.42309981300E+02  0.50268271389E+02  0.98532394914E+01  0.66438843718E+02  0.00000000000E+00 0. -1.
         11    1    1    2    0    0 -0.44941189052E+02  0.39193220808E+02 -0.19924389281E+02  0.62871299644E+02  0.00000000000E+00 0.  1.
</event>
<event>
 7    1  0.2490079E-009  0.1070480E+03  0.7561462E-02  0.1266136E+00
         -2   -1    0    0    0  501 -0.00000000000E+00  0.00000000000E+00  0.42434132965E+02  0.42434132965E+02  0.00000000000E+00 0. -1.
          2   -1    0    0  501    0  0.00000000000E+00 -0.00000000000E+00 -0.31205483954E+03  0.31205483954E+03  0.00000000000E+00 0.  1.
         25    2    1    2    0    0 -0.32457486858E+01 -0.22933249162E+02 -0.10451032848E+03  0.16463862292E+03  0.12508796344E+03 0.  0.
          5    1    3    3  502    0 -0.29167584770E+02  0.45166334394E+02 -0.38856269130E+02  0.66468246664E+02  0.41800000000E+01 0.  1.
         -5    1    3    3    0  502  0.25921836084E+02 -0.68099583556E+02 -0.65654059346E+02  0.98170376260E+02  0.41800000000E+01 0.  1.
        -11    1    1    2    0    0 -0.34314389506E+02 -0.11537035075E+02 -0.36067622005E+02  0.51102386076E+02  0.00000000000E+00 0.  1.
         11    1    1    2    0    0  0.37560138192E+02  0.34470284238E+02 -0.12904275609E+03  0.13874796350E+03  0.00000000000E+00 0. -1.
</event>
<event>
 7    1  0.2490079E-009  0.7272938E+02  0.7561462E-02  0.1351050E+00
          1   -1    0    0  501    0  0.00000000000E+00  0.00000000000E+00  0.14282556317E+03  0.14282556317E+03  0.00000000000E+00 0. -1.
         -1   -1    0    0    0  501 -0.00000000000E+00 -0.00000000000E+00 -0.10238460852E+03  0.10238460852E+03  0.00000000000E+00 0.  1.
         25    2    1    2    0    0  0.10848879054E+01 -0.13779937193E+01  0.77180279496E+02  0.14699547257E+03  0.12509115701E+03 0.  0.
          5    1    3    3  502    0  0.12111385210E+02  0.33541936741E+02 -0.21366240211E+02  0.41782003217E+02  0.41800000000E+01 0. -1.
         -5    1    3    3    0  502 -0.11026497305E+02 -0.34919930460E+02  0.98546519707E+02  0.10521346935E+03  0.41800000000E+01 0. -1.
        -11    1    1    2    0    0 -0.17776414404E+02 -0.31303392963E+02  0.11329289115E+02  0.37739317851E+02  0.00000000000E+00 0. -1.
         11    1    1    2    0    0  0.16691526498E+02  0.32681386682E+02 -0.48068613960E+02  0.60475381275E+02  0.00000000000E+00 0.  1.
</event>
<event>
 7    1  0.2490079E-009  0.1249213E+03  0.7561462E-02  0.1235192E+00
          1   -1    0    0  501    0  0.00000000000E+00  0.00000000000E+00  0.30248682254E+03  0.30248682254E+03  0.00000000000E+00 0. -1.
         -1   -1    0    0    0  501 -0.00000000000E+00 -0.00000000000E+00 -0.52975446982E+02  0.52975446982E+02  0.00000000000E+00 0.  1.
         25    2    1    2    0    0  0.41713519209E+02  0.49146841527E+02  0.15559196236E+03  0.20978875465E+03  0.12508810138E+03 0.  0.
          5    1    3    3  502    0  0.84752920798E+02  0.18397324925E+02  0.10742020904E+03  0.13812346961E+03  0.41800000000E+01 0. -1.
         -5    1    3    3    0  502 -0.43039401589E+02  0.30749516603E+02  0.48171753323E+02  0.71665285032E+02  0.41800000000E+01 0. -1.
        -11    1    1    2    0    0 -0.57854194779E+02  0.38925159586E+00  0.60854771108E+02  0.83967627910E+02  0.00000000000E+00 0. -1.
         11    1    1    2    0    0  0.16140675570E+02 -0.49536093123E+02  0.33064642086E+02  0.61705886964E+02  0.00000000000E+00 0.  1.
</event>
<event>
 7    1  0.2490079E-009  0.1114018E+03  0.7561462E-02  0.1257996E+00
          1   -1    0    0  501    0  0.00000000000E+00  0.00000000000E+00  0.48130764373E+02  0.48130764373E+02  0.00000000000E+00 0. -1.
         -1   -1    0    0    0  501 -0.00000000000E+00 -0.00000000000E+00 -0.29653671056E+03  0.29653671056E+03  0.00000000000E+00 0.  1.
         25    2    1    2    0    0  0.46490924945E+00 -0.50493575603E+02 -0.13463695916E+03  0.19058928400E+03  0.12508935640E+03 0.  0.
          5    1    3    3  502    0 -0.46566499800E+02  0.45321310430E+01 -0.12593034440E+02  0.48631636122E+02  0.41800000000E+01 0. -1.
         -5    1    3    3    0  502  0.47031409050E+02 -0.55025706646E+02 -0.12204392472E+03  0.14195764788E+03  0.41800000000E+01 0. -1.
        -11    1    1    2    0    0  0.31705272422E+02 -0.11299071463E+02 -0.44930427459E+02  0.56139439140E+02  0.00000000000E+00 0.  1.
         11    1    1    2    0    0 -0.32170181672E+02  0.61792647066E+02 -0.68838559572E+02  0.97938751800E+02  0.00000000000E+00 0. -1.
</event>
<event>
 7    1  0.2490079E-009  0.9118287E+02  0.7561462E-02  0.1300012E+00
          1   -1    0    0  501    0  0.00000000000E+00  0.00000000000E+00  0.55494834716E+03  0.55494834716E+03  0.00000000000E+00 0. -1.
         -1   -1    0    0    0  501 -0.00000000000E+00 -0.00000000000E+00 -0.23957115302E+02  0.23957115302E+02  0.00000000000E+00 0.  1.
         25    2    1    2    0    0  0.39997204660E+02 -0.18899825170E+02  0.30404644795E+03  0.33173568500E+03  0.12508933776E+03 0.  0.
          5    1    3    3  502    0  0.32292747544E+02  0.33211077655E+02  0.25639874957E+03  0.26058316984E+03  0.41800000000E+01 0.  1.
         -5    1    3    3    0  502  0.77044571156E+01 -0.52110902825E+02  0.47647698376E+02  0.71152515158E+02  0.41800000000E+01 0.  1.
        -11    1    1    2    0    0 -0.56533400829E+02 -0.17456281685E+01  0.20542784719E+03  0.21307199024E+03  0.00000000000E+00 0. -1.
         11    1    1    2    0    0  0.16536196169E+02  0.20645453338E+02  0.21516936726E+02  0.34097787221E+02  0.00000000000E+00 0.  1.
</event>
<event>
 7    1  0.2490079E-009  0.8765446E+02  0.7561462E-02  0.1308633E+00
          2   -1    0    0  501    0  0.00000000000E+00  0.00000000000E+00  0.95968428509E+02  0.95968428509E+02  0.00000000000E+00 0. -1.
         -2   -1    0    0    0  501 -0.00000000000E+00 -0.00000000000E+00 -0.13598846722E+03  0.13598846722E+03  0.00000000000E+00 0.  1.
         25    2    1    2    0    0  0.34083695502E+02  0.51471383942E+01 -0.33179611573E+02  0.13392950904E+03  0.12509210780E+03 0.  0.
          5    1    3    3  502    0  0.43275957555E+02  0.40054890294E+02 -0.63386722301E+02  0.86674977375E+02  0.41800000000E+01 0. -1.
         -5    1    3    3    0  502 -0.91922620536E+01 -0.34907751900E+02  0.30207110728E+02  0.47254531665E+02  0.41800000000E+01 0. -1.
        -11    1    1    2    0    0 -0.21015411099E+02 -0.38594085043E+02  0.24545407055E+02  0.50335155820E+02  0.00000000000E+00 0. -1.
         11    1    1    2    0    0 -0.13068284403E+02  0.33446946649E+02 -0.31385834197E+02  0.47692230873E+02  0.00000000000E+00 0.  1.
</event>
<event>
 7    1  0.2490079E-009  0.1161156E+03  0.7561462E-02  0.1249646E+00
          2   -1    0    0  501    0  0.00000000000E+00  0.00000000000E+00  0.58160773930E+02  0.58160773930E+02  0.00000000000E+00 0. -1.
         -2   -1    0    0    0  501 -0.00000000000E+00 -0.00000000000E+00 -0.29949314906E+03  0.29949314906E+03  0.00000000000E+00 0.  1.
         25    2    1    2    0    0  0.62557559598E+02  0.56033956991E+01 -0.79439760753E+02  0.16094479193E+03  0.12509078365E+03 0.  0.
          5    1    3    3  502    0 -0.36151139918E+02  0.17088134555E+02 -0.18117661638E+02  0.44097974139E+02  0.41800000000E+01 0.  1.
         -5    1    3    3    0  502  0.98708699517E+02 -0.11484738856E+02 -0.61322099115E+02  0.11684681779E+03  0.41800000000E+01 0.  1.
        -11    1    1    2    0    0  0.54421867902E+01  0.19373043190E+02 -0.98226706497E+02  0.10026673461E+03  0.00000000000E+00 0.  1.
         11    1    1    2    0    0 -0.67999746389E+02 -0.24976438889E+02 -0.63665907881E+02  0.96442396459E+02  0.00000000000E+00 0. -1.
</event>
<event>
 7    1  0.2490079E-009  0.1300450E+03  0.7561462E-02  0.1227389E+00
          1   -1    0    0  501    0  0.00000000000E+00  0.00000000000E+00  0.23063300731E+03  0.23063300731E+03  0.00000000000E+00 0. -1.
         -1   -1    0    0    0  501 -0.00000000000E+00 -0.00000000000E+00 -0.11467998392E+03  0.11467998392E+03  0.00000000000E+00 0.  1.
         25    2    1    2    0    0  0.62239900331E+02  0.80619116338E+02 -0.97208339790E+01  0.16159722159E+03  0.12508365321E+03 0.  0.
          5    1    3    3  502    0  0.97766183651E+02  0.56921576758E+02  0.11386548555E+02  0.11377793483E+03  0.41800000000E+01 0.  1.
         -5    1    3    3    0  502 -0.35526283320E+02  0.23697539580E+02 -0.21107382534E+02  0.47819286758E+02  0.41800000000E+01 0.  1.
        -11    1    1    2    0    0 -0.53687524283E+02 -0.54548225408E+02  0.13462020703E+03  0.15485625367E+03  0.00000000000E+00 0. -1.
         11    1    1    2    0    0 -0.85523760475E+01 -0.26070890929E+02 -0.89463496584E+01  0.28859515972E+02  0.00000000000E+00 0.  1.
</event>
<event>
 7    1  0.2490079E-009  0.1630088E+03  0.7561462E-02  0.1185341E+00
         -1   -1    0    0    0  501 -0.00000000000E+00  0.00000000000E+00  0.13560987390E+03  0.13560987390E+03  0.00000000000E+00 0.  1.
          1   -1    0    0  501    0  0.00000000000E+00 -0.00000000000E+00 -0.25632114321E+03  0.25632114321E+03  0.00000000000E+00 0. -1.
         25    2    1    2    0    0 -0.15079542411E+03 -0.29479329594E+01 -0.50242436562E+02  0.20228649262E+03  0.12509025711E+03 0.  0.
          5    1    3    3  502    0 -0.90992784037E+02  0.29156003391E+02  0.26995339528E+02  0.99377965549E+02  0.41800000000E+01 0. -1.
         -5    1    3    3    0  502 -0.59802640070E+02 -0.32103936350E+02 -0.77237776091E+02  0.10290852707E+03  0.41800000000E+01 0. -1.
        -11    1    1    2    0    0  0.38123765183E+02 -0.25872102270E+02 -0.55893950639E+02  0.72435632569E+02  0.00000000000E+00 0. -1.
         11    1    1    2    0    0  0.11267165892E+03  0.28820035230E+02 -0.14574882110E+02  0.11720889191E+03  0.00000000000E+00 0.  1.
</event>
<event>
 7    1  0.2490079E-009  0.9645159E+02  0.7561462E-02  0.1287940E+00
         -2   -1    0    0    0  501 -0.00000000000E+00  0.00000000000E+00  0.11992365767E+03  0.11992365767E+03  0.00000000000E+00 0.  1.
          2   -1    0    0  501    0  0.00000000000E+00 -0.00000000000E+00 -0.19172847061E+03  0.19172847061E+03  0.00000000000E+00 0. -1.
         25    2    1    2    0    0 -0.21512133763E+02  0.55838681959E+02 -0.12834343450E+03  0.18894377231E+03  0.12508789556E+03 0.  0.
          5    1    3    3  502    0  0.31353729668E+02  0.68344912730E+02 -0.40325843728E+02  0.85426749515E+02  0.41800000000E+01 0.  1.
         -5    1    3    3    0  502 -0.52865863431E+02 -0.12506230772E+02 -0.88017590768E+02  0.10351702280E+03  0.41800000000E+01 0.  1.
        -11    1    1    2    0    0  0.11617029510E+02 -0.76404286696E+01 -0.24344180893E+02  0.28035168419E+02  0.00000000000E+00 0. -1.
         11    1    1    2    0    0  0.98951042522E+01 -0.48198253289E+02  0.80882802452E+02  0.94673187549E+02  0.00000000000E+00 0.  1.
</event>
<event>
 7    1  0.2490079E-009  0.2066767E+03  0.7561462E-02  0.1144225E+00
         -1   -1    0    0    0  501 -0.00000000000E+00  0.00000000000E+00  0.23113747534E+02  0.23113747534E+02  0.00000000000E+00 0.  1.
          1   -1    0    0  501    0  0.00000000000E+00 -0.00000000000E+00 -0.23716016232E+04  0.23716016232E+04  0.00000000000E+00 0. -1.
         25    2    1    2    0    0  0.13129477116E+03  0.15507799801E+03 -0.14082544553E+04  0.14283277141E+04  0.12510773557E+03 0.  0.
          5    1    3    3  502    0  0.43926534982E+02  0.63794305193E+02 -0.21820829058E+03  0.23158493977E+03  0.41800000000E+01 0.  1.
         -5    1    3    3    0  502  0.87368236178E+02  0.91283692815E+02 -0.11900461647E+04  0.11967427743E+04  0.41800000000E+01 0.  1.
        -11    1    1    2    0    0 -0.27672728434E+02 -0.70051371590E+02 -0.19204132584E+03  0.20628341037E+03  0.00000000000E+00 0.  1.
         11    1    1    2    0    0 -0.10362204273E+03 -0.85026626417E+02 -0.74819209451E+03  0.76010424629E+03  0.00000000000E+00 0. -1.
</event>
<event>
 7    1  0.2490079E-009  0.1628576E+03  0.7561462E-02  0.1185508E+00
         -2   -1    0    0    0  501 -0.00000000000E+00  0.00000000000E+00  0.17026749707E+03  0.17026749707E+03  0.00000000000E+00 0.  1.
          2   -1    0    0  501    0  0.00000000000E+00 -0.00000000000E+00 -0.18936862911E+03  0.18936862911E+03  0.00000000000E+00 0. -1.
         25    2    1    2    0    0  0.73421631492E+02 -0.99831558095E+02 -0.80692262256E+02  0.19369264719E+03  0.12509406232E+03 0.  0.
          5    1    3    3  502    0  0.31268003302E+02  0.27490495160E+02 -0.21285836871E+02  0.46946507920E+02  0.41800000000E+01 0.  1.
         -5    1    3    3    0  502  0.42153628190E+02 -0.12732205326E+03 -0.59406425385E+02  0.14674613927E+03  0.41800000000E+01 0.  1.
        -11    1    1    2    0    0 -0.87819783231E+02  0.10257222302E+03  0.41872335080E+02  0.14137421161E+03  0.00000000000E+00 0. -1.
         11    1    1    2    0    0  0.14398151739E+02 -0.27406649281E+01  0.19718795141E+02  0.24569267380E+02  0.00000000000E+00 0.  1.
</event>
<event>
 7    1  0.2490079E-009  0.9237090E+02  0.7561462E-02  0.1297210E+00
          1   -1    0    0  501    0  0.00000000000E+00  0.00000000000E+00  0.18221135761E+03  0.18221135761E+03  0.00000000000E+00 0. -1.
         -1   -1    0    0    0  501 -0.00000000000E+00 -0.00000000000E+00 -0.91645384115E+02  0.91645384115E+02  0.00000000000E+00 0.  1.
         25    2    1    2    0    0  0.28456434241E+02  0.48314341345E+02  0.54094132071E+01  0.13718889289E+03  0.12508991307E+03 0.  0.
          5    1    3    3  502    0 -0.50585501447E+01 -0.28488521879E+02 -0.33705898708E+02  0.44617763460E+02  0.41800000000E+01 0.  1.
         -5    1    3    3    0  502  0.33514984385E+02  0.76802863224E+02  0.39115311915E+02  0.92571129431E+02  0.41800000000E+01 0.  1.
        -11    1    1    2    0    0 -0.27982383895E+01 -0.45732859969E+02  0.97760338128E+02  0.10796484766E+03  0.00000000000E+00 0. -1.
         11    1    1    2    0    0 -0.25658195851E+02 -0.25814813765E+01 -0.12603777843E+02  0.28703001173E+02  0.00000000000E+00 0.  1.
</event>
<event>
 7    1  0.2490079E-009  0.8820513E+02  0.7561462E-02  0.1307257E+00
         -3   -1    0    0    0  501 -0.00000000000E+00  0.00000000000E+00  0.78003208307E+03  0.78003208307E+03  0.00000000000E+00 0.  1.
          3   -1    0    0  501    0  0.00000000000E+00 -0.00000000000E+00 -0.19042263588E+02  0.19042263588E+02  0.00000000000E+00 0. -1.
         25    2    1    2    0    0  0.40820437755E+02  0.14716809914E+02  0.54203787685E+03  0.55797435265E+03  0.12508967040E+03 0.  0.
          5    1    3    3  502    0 -0.20176220119E+02 -0.45996336081E+01  0.12430037524E+02  0.24499279999E+02  0.41800000000E+01 0. -1.
         -5    1    3    3    0  502  0.60996657874E+02  0.19316443522E+02  0.52960783933E+03  0.53347507265E+03  0.41800000000E+01 0. -1.
        -11    1    1    2    0    0 -0.16175263377E+02  0.33404502626E+02  0.41885351378E+02  0.55963225435E+02  0.00000000000E+00 0. -1.
         11    1    1    2    0    0 -0.24645174377E+02 -0.48121312540E+02  0.17706659126E+03  0.18513676858E+03  0.00000000000E+00 0.  1.
</event>
<event>
 7    1  0.2490079E-009  0.1162623E+03  0.7561462E-02  0.1249394E+00
         -2   -1    0    0    0  501 -0.00000000000E+00  0.00000000000E+00  0.16063621833E+03  0.16063621833E+03  0.00000000000E+00 0.  1.
          2   -1    0    0  501    0  0.00000000000E+00 -0.00000000000E+00 -0.10851685713E+03  0.10851685713E+03  0.00000000000E+00 0. -1.
         25    2    1    2    0    0 -0.62229045372E+02 -0.15588445069E+02  0.71644115726E+02  0.15778173105E+03  0.12508693628E+03 0.  0.
          5    1    3    3  502    0 -0.96744889220E+02 -0.14577175041E+02  0.74263065381E+02  0.12290054069E+03  0.41800000000E+01 0.  1.
         -5    1    3    3    0  502  0.34515843848E+02 -0.10112700279E+01 -0.26189496547E+01  0.34881190359E+02  0.41800000000E+01 0.  1.
        -11    1    1    2    0    0 -0.15556567763E+02 -0.93256113163E+01 -0.23394093498E+02  0.29601645859E+02  0.00000000000E+00 0. -1.
         11    1    1    2    0    0  0.77785613135E+02  0.24914056385E+02  0.38693389765E+01  0.81769698547E+02  0.00000000000E+00 0.  1.
</event>
<event>
 7    1  0.2490079E-009  0.1224370E+03  0.7561462E-02  0.1239130E+00
         -1   -1    0    0    0  501 -0.00000000000E+00  0.00000000000E+00  0.46934938841E+02  0.46934938841E+02  0.00000000000E+00 0.  1.
          1   -1    0    0  501    0  0.00000000000E+00 -0.00000000000E+00 -0.76369140143E+03  0.76369140143E+03  0.00000000000E+00 0. -1.
         25    2    1    2    0    0 -0.35142874455E+02 -0.93039789666E+02 -0.62465553988E+03  0.64477467876E+03  0.12509364006E+03 0.  0.
          5    1    3    3  502    0 -0.39196762736E+02  0.49677986793E+01 -0.62143440631E+02  0.73758693360E+02  0.41800000000E+01 0. -1.
         -5    1    3    3    0  502  0.40538882813E+01 -0.98007588346E+02 -0.56251209925E+03  0.57101598540E+03  0.41800000000E+01 0. -1.
        -11    1    1    2    0    0  0.25383938663E+01  0.61655305594E+02 -0.10229186583E+03  0.11946315736E+03  0.00000000000E+00 0. -1.
         11    1    1    2    0    0  0.32604480588E+02  0.31384484073E+02  0.10190943126E+02  0.46388504144E+02  0.00000000000E+00 0.  1.
</event>
<event>
 7    1  0.2490079E-009  0.1188870E+03  0.7561462E-02  0.1244944E+00
         -1   -1    0    0    0  501 -0.00000000000E+00  0.00000000000E+00  0.39565073148E+02  0.39565073148E+02  0.00000000000E+00 0.  1.
          1   -1    0    0  501    0  0.00000000000E+00 -0.00000000000E+00 -0.39134259379E+03  0.39134259379E+03  0.00000000000E+00 0. -1.
         25    2    1    2    0    0  0.49324136323E+02 -0.29032618925E+02 -0.22912187781E+03  0.26724488933E+03  0.12508889879E+03 0.  0.
          5    1    3    3  502    0 -0.33185459063E+02 -0.42211117122E+02 -0.93064832079E+02  0.10752482723E+03  0.41800000000E+01 0.  1.
         -5    1    3    3    0  502  0.82509595386E+02  0.13178498197E+02 -0.13605704573E+03  0.15972006210E+03  0.41800000000E+01 0.  1.
        -11    1    1    2    0    0  0.46477971812E+01  0.44003182338E+02 -0.24310218038E+02  0.50486322658E+02  0.00000000000E+00 0.  1.
         11    1    1    2    0    0 -0.53971933504E+02 -0.14970563413E+02 -0.98345424796E+02  0.11317645494E+03  0.00000000000E+00 0. -1.
</event>
<event>
 7    1  0.2490079E-009  0.1550541E+03  0.7561462E-02  0.1194397E+00
         -3   -1    0    0    0  501 -0.00000000000E+00  0.00000000000E+00  0.12242263136E+03  0.12242263136E+03  0.00000000000E+00 0.  1.
          3   -1    0    0  501    0  0.00000000000E+00 -0.00000000000E+00 -0.43406780145E+03  0.43406780145E+03  0.00000000000E+00 0. -1.
         25    2    1    2    0    0 -0.16605831453E+02  0.12313779867E+03  0.35620331382E+02  0.17988067171E+03  0.12509826916E+03 0.  0.
          5    1    3    3  502    0  0.53656681618E+02  0.57802324311E+02  0.52350734538E+01  0.79151920836E+02  0.41800000000E+01 0.  1.
         -5    1    3    3    0  502 -0.70262513071E+02  0.65335474362E+02  0.30385257928E+02  0.10072875087E+03  0.41800000000E+01 0.  1.
        -11    1    1    2    0    0 -0.19466776463E+02 -0.41302114591E+02 -0.57891706853E+02  0.73731063860E+02  0.00000000000E+00 0. -1.
         11    1    1    2    0    0  0.36072607916E+02 -0.81835684081E+02 -0.28937379462E+03  0.30287869724E+03  0.00000000000E+00 0.  1.
</event>
<event>
 7    1  0.2490079E-009  0.1110381E+03  0.7561462E-02  0.1258660E+00
         -3   -1    0    0    0  501 -0.00000000000E+00  0.00000000000E+00  0.37589347984E+02  0.37589347984E+02  0.00000000000E+00 0.  1.
          3   -1    0    0  501    0  0.00000000000E+00 -0.00000000000E+00 -0.39696172920E+03  0.39696172920E+03  0.00000000000E+00 0. -1.
         25    2    1    2    0    0 -0.23060925376E+02  0.42672295924E+01 -0.13571594474E+03  0.18605375988E+03  0.12508864209E+03 0.  0.
          5    1    3    3  502    0 -0.60942455871E+02 -0.36146477862E+02 -0.66096406378E+02  0.96988443257E+02  0.41800000000E+01 0. -1.
         -5    1    3    3    0  502  0.37881530495E+02  0.40413707454E+02 -0.69619538364E+02  0.89065316621E+02  0.41800000000E+01 0. -1.
        -11    1    1    2    0    0 -0.22714977789E+02  0.30525752023E+02 -0.15165297354E+03  0.15635349736E+03  0.00000000000E+00 0. -1.
         11    1    1    2    0    0  0.45775903165E+02 -0.34792981615E+02 -0.72003462935E+02  0.92143819949E+02  0.00000000000E+00 0.  1.
</event>
<event>
 7    1  0.2490079E-009  0.9842101E+02  0.7561462E-02  0.1283652E+00
          2   -1    0    0  501    0  0.00000000000E+00  0.00000000000E+00  0.15682369838E+03  0.15682369838E+03  0.00000000000E+00 0. -1.
         -2   -1    0    0    0  501 -0.00000000000E+00 -0.00000000000E+00 -0.91826712367E+02  0.91826712367E+02  0.00000000000E+00 0.  1.
         25    2    1    2    0    0 -0.27382275886E+02 -0.42903523541E+02  0.43443731420E+02  0.14186287848E+03  0.12508883693E+03 0.  0.
          5    1    3    3  502    0 -0.52473769937E+02 -0.51285765147E+02 -0.17278292730E+02  0.75496609446E+02  0.41800000000E+01 0.  1.
         -5    1    3    3    0  502  0.25091494050E+02  0.83822416062E+01  0.60722024150E+02  0.66366269030E+02  0.41800000000E+01 0.  1.
        -11    1    1    2    0    0  0.53259144844E+02  0.46168295842E+02 -0.35684755116E+01  0.70574655989E+02  0.00000000000E+00 0.  1.
         11    1    1    2    0    0 -0.25876868958E+02 -0.32647723008E+01  0.25121730109E+02  0.36212876286E+02  0.00000000000E+00 0. -1.
</event>
<event>
 7    1  0.2490079E-009  0.1073312E+03  0.7561462E-02  0.1265594E+00
         -2   -1    0    0    0  501 -0.00000000000E+00  0.00000000000E+00  0.32947124605E+02  0.32947124605E+02  0.00000000000E+00 0.  1.
          2   -1    0    0  501    0  0.00000000000E+00 -0.00000000000E+00 -0.41667410036E+03  0.41667410036E+03  0.00000000000E+00 0. -1.
         25    2    1    2    0    0  0.20343644821E+02  0.15766852680E+02 -0.28345590777E+03  0.31089750224E+03  0.12509015837E+03 0.  0.
          5    1    3    3  502    0  0.62813226558E+02  0.43406815668E+02 -0.18212034461E+03  0.19752201244E+03  0.41800000000E+01 0. -1.
         -5    1    3    3    0  502 -0.42469581738E+02 -0.27639962988E+02 -0.10133556317E+03  0.11337548981E+03  0.41800000000E+01 0. -1.
        -11    1    1    2    0    0  0.30566351842E+02  0.73525983638E+01 -0.10844687695E+02  0.33256124531E+02  0.00000000000E+00 0.  1.
         11    1    1    2    0    0 -0.50909996663E+02 -0.23119451044E+02 -0.89426380283E+02  0.10546759819E+03  0.00000000000E+00 0. -1.
</event>
<event>
 7    1  0.2490079E-009  0.1247802E+03  0.7561462E-02  0.1235413E+00
         -2   -1    0    0    0  501 -0.00000000000E+00  0.00000000000E+00  0.34738646606E+02  0.34738646606E+02  0.00000000000E+00 0.  1.
          2   -1    0    0  501    0  0.00000000000E+00 -0.00000000000E+00 -0.65885527620E+03  0.65885527620E+03  0.00000000000E+00 0. -1.
         25    2    1    2    0    0  0.26251987225E+02 -0.79865842256E+02 -0.16964715414E+03  0.22693227299E+03  0.12510147892E+03 0.  0.
          5    1    3    3  502    0  0.54357293571E+02 -0.10105190981E+03 -0.12181346389E+03  0.16739831608E+03  0.41800000000E+01 0. -1.
         -5    1    3    3    0  502 -0.28105306346E+02  0.21186067556E+02 -0.47833690249E+02  0.59533956916E+02  0.41800000000E+01 0. -1.
        -11    1    1    2    0    0  0.14342169863E+02  0.39611245825E+02 -0.11632386623E+03  0.12371738151E+03  0.00000000000E+00 0.  1.
         11    1    1    2    0    0 -0.40594157088E+02  0.40254596431E+02 -0.33814560923E+03  0.34294426830E+03  0.00000000000E+00 0. -1.
</event>
<event>
 7    1  0.2490079E-009  0.7086525E+02  0.7561462E-02  0.1357175E+00
          1   -1    0    0  501    0  0.00000000000E+00  0.00000000000E+00  0.10030867426E+03  0.10030867426E+03  0.00000000000E+00 0. -1.
         -1   -1    0    0    0  501 -0.00000000000E+00 -0.00000000000E+00 -0.11011960211E+03  0.11011960211E+03  0.00000000000E+00 0.  1.
         25    2    1    2    0    0  0.12189048965E+02 -0.15822044593E+02 -0.36029819837E+02  0.13170329843E+03  0.12509476763E+03 0.  0.
          5    1    3    3  502    0 -0.13516838525E+02 -0.33975114419E+02  0.36929205881E+02  0.52136858080E+02  0.41800000000E+01 0.  1.
         -5    1    3    3    0  502  0.25705887490E+02  0.18153069826E+02 -0.72959025718E+02  0.79566440347E+02  0.41800000000E+01 0.  1.
        -11    1    1    2    0    0  0.73697461106E+01  0.40798048213E+02  0.82662429824E+01  0.42274397320E+02  0.00000000000E+00 0.  1.
         11    1    1    2    0    0 -0.19558795076E+02 -0.24976003620E+02  0.17952649008E+02  0.36450580627E+02  0.00000000000E+00 0. -1.
</event>
<event>
 7    1  0.2490079E-009  0.1123351E+03  0.7561462E-02  0.1256306E+00
          1   -1    0    0  501    0  0.00000000000E+00  0.00000000000E+00  0.52989559357E+03  0.52989559357E+03  0.00000000000E+00 0. -1.
         -1   -1    0    0    0  501 -0.00000000000E+00 -0.00000000000E+00 -0.30632026178E+02  0.30632026178E+02  0.00000000000E+00 0.  1.
         25    2    1    2    0    0  0.46445471793E+02 -0.25629237567E+02  0.22072801451E+03  0.25919300866E+03  0.12508445018E+03 0.  0.
          5    1    3    3  502    0  0.87062341368E+02 -0.31027508698E+02  0.17271433556E+03  0.19593435556E+03  0.41800000000E+01 0.  1.
         -5    1    3    3    0  502 -0.40616869575E+02  0.53982711318E+01  0.48013678954E+02  0.63258653100E+02  0.41800000000E+01 0.  1.
        -11    1    1    2    0    0 -0.48297248800E+02  0.48248458243E+02  0.26754697201E+03  0.27611939482E+03  0.00000000000E+00 0. -1.
         11    1    1    2    0    0  0.18517770076E+01 -0.22619220677E+02  0.10988580873E+02  0.25215216273E+02  0.00000000000E+00 0.  1.
</event>
<event>
 7    1  0.2490079E-009  0.1854437E+03  0.7561462E-02  0.1162636E+00
          1   -1    0    0  501    0  0.00000000000E+00  0.00000000000E+00  0.11721459799E+03  0.11721459799E+03  0.00000000000E+00 0. -1.
         -1   -1    0    0    0  501 -0.00000000000E+00 -0.00000000000E+00 -0.34826940327E+03  0.34826940327E+03  0.00000000000E+00 0.  1.
         25    2    1    2    0    0  0.15484477880E+03 -0.45990958222E+00 -0.39926733030E+02  0.20301181570E+03  0.12507012539E+03 0.  0.
          5    1    3    3  502    0  0.39211549678E+02 -0.57320238211E+02 -0.68465216661E+01  0.69910675835E+02  0.41800000000E+01 0.  1.
         -5    1    3    3    0  502  0.11563322913E+03  0.56860328629E+02 -0.33080211364E+02  0.13310113987E+03  0.41800000000E+01 0.  1.
        -11    1    1    2    0    0 -0.81213828390E+02  0.38085529522E+02 -0.61650168212E+02  0.10884363427E+03  0.00000000000E+00 0.  1.
         11    1    1    2    0    0 -0.73630950414E+02 -0.37625619940E+02 -0.12947790405E+03  0.15362855129E+03  0.00000000000E+00 0. -1.
</event>
<event>
 7    1  0.2490079E-009  0.1468824E+03  0.7561462E-02  0.1204357E+00
          1   -1    0    0  501    0  0.00000000000E+00  0.00000000000E+00  0.68427419185E+02  0.68427419185E+02  0.00000000000E+00 0. -1.
         -1   -1    0    0    0  501 -0.00000000000E+00 -0.00000000000E+00 -0.39277576338E+03  0.39277576338E+03  0.00000000000E+00 0.  1.
         25    2    1    2    0    0  0.91409112034E+01 -0.12154616070E+03 -0.21599372412E+03  0.27777253124E+03  0.12508902755E+03 0.  0.
          5    1    3    3  502    0  0.31022194568E+02 -0.12721608470E+03 -0.21837802437E+03  0.25466201658E+03  0.41800000000E+01 0.  1.
         -5    1    3    3    0  502 -0.21881283365E+02  0.56699240048E+01  0.23843002498E+01  0.23110514654E+02  0.41800000000E+01 0.  1.
        -11    1    1    2    0    0  0.25163689084E+02  0.18702030139E+02 -0.53301815114E+02  0.61838989918E+02  0.00000000000E+00 0.  1.
         11    1    1    2    0    0 -0.34304600287E+02  0.10284413056E+03 -0.55052804964E+02  0.12159166141E+03  0.00000000000E+00 0. -1.
</event>
<event>
 7    1  0.2490079E-009  0.1101608E+03  0.7561462E-02  0.1260272E+00
          1   -1    0    0  501    0  0.00000000000E+00  0.00000000000E+00  0.79562639173E+02  0.79562639173E+02  0.00000000000E+00 0. -1.
         -1   -1    0    0    0  501 -0.00000000000E+00 -0.00000000000E+00 -0.17861937018E+03  0.17861937018E+03  0.00000000000E+00 0.  1.
         25    2    1    2    0    0  0.28589977829E+02  0.94362953362E+01 -0.96227764371E+02  0.16066527665E+03  0.12508844064E+03 0.  0.
          5    1    3    3  502    0  0.13819500464E+02 -0.56111026655E+02 -0.26398440926E+02  0.63669270364E+02  0.41800000000E+01 0.  1.
         -5    1    3    3    0  502  0.14770477365E+02  0.65547321991E+02 -0.69829323445E+02  0.96996006282E+02  0.41800000000E+01 0.  1.
        -11    1    1    2    0    0 -0.60239859737E+02 -0.16856779414E+02  0.84184712490E+01  0.63117845112E+02  0.00000000000E+00 0. -1.
         11    1    1    2    0    0  0.31649881908E+02  0.74204840783E+01 -0.11247437883E+02  0.34398887594E+02  0.00000000000E+00 0.  1.
</event>
<event>
 7    1  0.2490079E-009  0.1569622E+03  0.7561462E-02  0.1192170E+00
          2   -1    0    0  501    0  0.00000000000E+00  0.00000000000E+00  0.87346568908E+03  0.87346568908E+03  0.00000000000E+00 0. -1.
         -2   -1    0    0    0  501 -0.00000000000E+00 -0.00000000000E+00 -0.42748597683E+02  0.42748597683E+02  0.00000000000E+00 0.  1.
         25    2    1    2    0    0 -0.10652803444E+03  0.66258121725E+02  0.67133308237E+03  0.69431522991E+03  0.12508864928E+03 0.  0.
          5    1    3    3  502    0 -0.47377782964E+02  0.98677727689E+02  0.40832765840E+03  0.42276577117E+03  0.41800000000E+01 0. -1.
         -5    1    3    3    0  502 -0.59150251479E+02 -0.32419605964E+02  0.26300542397E+03  0.27154945874E+03  0.41800000000E+01 0. -1.
        -11    1    1    2    0    0  0.98271214957E+02 -0.34758311539E+02  0.15802421422E+03  0.18930669346E+03  0.00000000000E+00 0. -1.
         11    1    1    2    0    0  0.82568194857E+01 -0.31499810185E+02  0.13597948090E+01  0.32592363395E+02  0.00000000000E+00 0.  1.
</event>
<event>
 7    1  0.2490079E-009  0.1430607E+03  0.7561462E-02  0.1209269E+00
          2   -1    0    0  501    0  0.00000000000E+00  0.00000000000E+00  0.28026397750E+03  0.28026397750E+03  0.00000000000E+00 0. -1.
         -2   -1    0    0    0  501 -0.00000000000E+00 -0.00000000000E+00 -0.88457399982E+02  0.88457399982E+02  0.00000000000E+00 0.  1.
         25    2    1    2    0    0 -0.57854030258E+02  0.96645065892E+02  0.10580867858E+03  0.19883480795E+03  0.12510973907E+03 0.  0.
          5    1    3    3  502    0  0.36275980667E+02  0.10183718616E+02  0.39640094674E+02  0.54849470407E+02  0.41800000000E+01 0. -1.
         -5    1    3    3    0  502 -0.94130010926E+02  0.86461347276E+02  0.66168583911E+02  0.14398533754E+03  0.41800000000E+01 0. -1.
        -11    1    1    2    0    0  0.31638154102E+00 -0.38599455475E+02  0.78914870806E+02  0.87849729053E+02  0.00000000000E+00 0.  1.
         11    1    1    2    0    0  0.57537648717E+02 -0.58045610417E+02  0.70830281249E+01  0.82036840480E+02  0.00000000000E+00 0. -1.
</event>
<event>
 7    1  0.2490079E-009  0.1038113E+03  0.7561462E-02  0.1272479E+00
          1   -1    0    0  501    0  0.00000000000E+00  0.00000000000E+00  0.99518677016E+02  0.99518677016E+02  0.00000000000E+00 0. -1.
         -1   -1    0    0    0  501 -0.00000000000E+00 -0.00000000000E+00 -0.21015589338E+03  0.21015589338E+03  0.00000000000E+00 0.  1.
         25    2    1    2    0    0 -0.32403975636E+02  0.69454575171E+02 -0.10817579069E+02  0.14709839958E+03  0.12508782312E+03 0.  0.
          5    1    3    3  502    0  0.11983768447E+02  0.16381935914E+02  0.50480025348E+02  0.54568158203E+02  0.41800000000E+01 0. -1.
         -5    1    3    3    0  502 -0.44387744083E+02  0.53072639257E+02 -0.61297604417E+02  0.92530241380E+02  0.41800000000E+01 0. -1.
        -11    1    1    2    0    0 -0.22851913831E+02 -0.56334758573E+02 -0.83872276664E+02  0.10358751750E+03  0.00000000000E+00 0.  1.
         11    1    1    2    0    0  0.55255889467E+02 -0.13119816598E+02 -0.15947360629E+02  0.58988653310E+02  0.00000000000E+00 0. -1.
</event>
<event>
 7    1  0.2490079E-009  0.7712728E+02  0.7561462E-02  0.1337407E+00
         -1   -1    0    0    0  501 -0.00000000000E+00  0.00000000000E+00  0.38910916346E+03  0.38910916346E+03  0.00000000000E+00 0.  1.
          1   -1    0    0  501    0  0.00000000000E+00 -0.00000000000E+00 -0.74412832698E+02  0.74412832698E+02  0.00000000000E+00 0. -1.
         25    2    1    2    0    0  0.47858428456E+02 -0.34773186727E+02  0.82164759348E+01  0.13862002874E+03  0.12509355780E+03 0.  0.
          5    1    3    3  502    0  0.53280862488E+01  0.14908491005E+02 -0.48975408715E+02  0.51640242698E+02  0.41800000000E+01 0.  1.
         -5    1    3    3    0  502  0.42530342207E+02 -0.49681677732E+02  0.57191884650E+02  0.86979786045E+02  0.41800000000E+01 0.  1.
        -11    1    1    2    0    0  0.49148199614E+01  0.15342310777E+02  0.31655671323E+01  0.16418366865E+02  0.00000000000E+00 0. -1.
         11    1    1    2    0    0 -0.52773248418E+02  0.19430875950E+02  0.30331428770E+03  0.30848360055E+03  0.00000000000E+00 0.  1.
</event>
<event>
 7    1  0.2490079E-009  0.1405118E+03  0.7561462E-02  0.1212642E+00
         -1   -1    0    0    0  501 -0.00000000000E+00  0.00000000000E+00  0.83550558671E+02  0.83550558671E+02  0.00000000000E+00 0.  1.
          1   -1    0    0  501    0  0.00000000000E+00 -0.00000000000E+00 -0.48959154998E+03  0.48959154998E+03  0.00000000000E+00 0. -1.
         25    2    1    2    0    0  0.78183770956E+02  0.74425599406E+02 -0.37193937483E+02  0.16935896517E+03  0.12508876132E+03 0.  0.
          5    1    3    3  502    0  0.10101869703E+03  0.21853544574E+02 -0.51691606131E+01  0.10356904548E+03  0.41800000000E+01 0. -1.
         -5    1    3    3    0  502 -0.22834926078E+02  0.52572054832E+02 -0.32024776870E+02  0.65789919682E+02  0.41800000000E+01 0. -1.
        -11    1    1    2    0    0 -0.33190228942E+02 -0.52448101220E-01 -0.10155172739E+02  0.34709099403E+02  0.00000000000E+00 0.  1.
         11    1    1    2    0    0 -0.44993542014E+02 -0.74373151305E+02 -0.35869188108E+03  0.36907404408E+03  0.00000000000E+00 0. -1.
</event>
<event>
 7    1  0.2490079E-009  0.9227465E+02  0.7561462E-02  0.1297435E+00
         -1   -1    0    0    0  501 -0.00000000000E+00  0.00000000000E+00  0.11876726417E+02  0.11876726417E+02  0.00000000000E+00 0.  1.
          1   -1    0    0  501    0  0.00000000000E+00 -0.00000000000E+00 -0.13147935325E+04  0.13147935325E+04  0.00000000000E+00 0. -1.
         25    2    1    2    0    0  0.29230955422E+02  0.55710180632E+02 -0.75912342882E+03  0.77193124912E+03  0.12510555622E+03 0.  0.
          5    1    3    3  502    0  0.17512739736E+02 -0.10688929116E+00 -0.99364405787E+01  0.20564842079E+02  0.41800000000E+01 0. -1.
         -5    1    3    3    0  502  0.11718215687E+02  0.55817069923E+02 -0.74918698825E+03  0.75136640704E+03  0.41800000000E+01 0. -1.
        -11    1    1    2    0    0  0.64549151041E+01 -0.70451607764E+02 -0.33185455599E+03  0.33931186436E+03  0.00000000000E+00 0. -1.
         11    1    1    2    0    0 -0.35685870526E+02  0.14741427131E+02 -0.21193882128E+03  0.21542714544E+03  0.00000000000E+00 0.  1.
</event>
<event>
 7    1  0.2490079E-009  0.1761591E+03  0.7561462E-02  0.1171573E+00
          1   -1    0    0  501    0  0.00000000000E+00  0.00000000000E+00  0.23838561953E+03  0.23838561953E+03  0.00000000000E+00 0. -1.
         -1   -1    0    0    0  501 -0.00000000000E+00 -0.00000000000E+00 -0.14775893091E+03  0.14775893091E+03  0.00000000000E+00 0.  1.
         25    2    1    2    0    0 -0.12127956833E+03  0.87716078515E+02  0.79466829804E+02  0.21063804180E+03  0.12510221216E+03 0.  0.
          5    1    3    3  502    0 -0.12746595721E+03  0.10894166230E+03  0.53010333721E+02  0.17590742995E+03  0.41800000000E+01 0.  1.
         -5    1    3    3    0  502  0.61863888730E+01 -0.21225583784E+02  0.26456496083E+02  0.34730611847E+02  0.41800000000E+01 0.  1.
        -11    1    1    2    0    0  0.37485826563E+02  0.41872957033E+01 -0.25874516070E+02  0.45740695451E+02  0.00000000000E+00 0.  1.
         11    1    1    2    0    0  0.83793741769E+02 -0.91903374218E+02  0.37034374885E+02  0.12976581320E+03  0.00000000000E+00 0. -1.
</event>
<event>
 7    1  0.2490079E-009  0.9649039E+02  0.7561462E-02  0.1287854E+00
         -1   -1    0    0    0  501 -0.00000000000E+00  0.00000000000E+00  0.21803149077E+02  0.21803149077E+02  0.00000000000E+00 0.  1.
          1   -1    0    0  501    0  0.00000000000E+00 -0.00000000000E+00 -0.75050742708E+03  0.75050742708E+03  0.00000000000E+00 0. -1.
         25    2    1    2    0    0  0.45686442906E+02  0.40456829820E+02 -0.31406067840E+03  0.34351874259E+03  0.12508801160E+03 0.  0.
          5    1    3    3  502    0  0.25733247246E+01 -0.17484070764E+02  0.29151713792E+01  0.18392535301E+02  0.41800000000E+01 0. -1.
         -5    1    3    3    0  502  0.43113118182E+02  0.57940900585E+02 -0.31697584978E+03  0.32512620729E+03  0.41800000000E+01 0. -1.
        -11    1    1    2    0    0 -0.62367664424E+02 -0.41291228612E+01 -0.17478103732E+03  0.18562108239E+03  0.00000000000E+00 0.  1.
         11    1    1    2    0    0  0.16681221518E+02 -0.36327706959E+02 -0.23986256228E+03  0.24317075118E+03  0.00000000000E+00 0. -1.
</event>
<event>
 7    1  0.2490079E-009  0.1818655E+03  0.7561462E-02  0.1166010E+00
         -2   -1    0    0    0  501 -0.00000000000E+00  0.00000000000E+00  0.13796191256E+03  0.13796191256E+03  0.00000000000E+00 0.  1.
          2   -1    0    0  501    0  0.00000000000E+00 -0.00000000000E+00 -0.30408820906E+03  0.30408820906E+03  0.00000000000E+00 0. -1.
         25    2    1    2    0    0  0.10960736894E+03  0.11198240927E+03 -0.63191298748E+01  0.20060199054E+03  0.12508953551E+03 0.  0.
          5    1    3    3  502    0  0.28213953826E+02  0.11478938221E+03  0.43397862396E+01  0.11835934945E+03  0.41800000000E+01 0. -1.
         -5    1    3    3    0  502  0.81393415112E+02 -0.28069729350E+01 -0.10658916114E+02  0.82242641089E+02  0.41800000000E+01 0. -1.
        -11    1    1    2    0    0 -0.86359480389E+02 -0.11099453502E+03 -0.87838208923E+02  0.16581102980E+03  0.00000000000E+00 0.  1.
         11    1    1    2    0    0 -0.23247888548E+02 -0.98787425619E+00 -0.71968957699E+02  0.75637101279E+02  0.00000000000E+00 0. -1.
</event>
<event>
 7    1  0.2490079E-009  0.1307488E+03  0.7561462E-02  0.1226349E+00
          2   -1    0    0  501    0  0.00000000000E+00  0.00000000000E+00  0.48660235989E+02  0.48660235989E+02  0.00000000000E+00 0. -1.
         -2   -1    0    0    0  501 -0.00000000000E+00 -0.00000000000E+00 -0.39586630649E+03  0.39586630649E+03  0.00000000000E+00 0.  1.
         25    2    1    2    0    0  0.37296042864E+02  0.68204765756E+02 -0.13303648265E+03  0.19846937051E+03  0.12509396641E+03 0.  0.
          5    1    3    3  502    0 -0.64919219378E+01  0.90803379117E+02 -0.56113209257E+02  0.10702132200E+03  0.41800000000E+01 0.  1.
         -5    1    3    3    0  502  0.43787964802E+02 -0.22598613361E+02 -0.76923273393E+02  0.91448048513E+02  0.41800000000E+01 0.  1.
        -11    1    1    2    0    0  0.25614018270E+02 -0.48741506503E+02 -0.10508921315E+03  0.11864044466E+03  0.00000000000E+00 0. -1.
         11    1    1    2    0    0 -0.62910061134E+02 -0.19463259253E+02 -0.10908037470E+03  0.12741672731E+03  0.00000000000E+00 0.  1.
</event>
<event>
 7    1  0.2490079E-009  0.1038683E+03  0.7561462E-02  0.1272366E+00
          1   -1    0    0  501    0  0.00000000000E+00  0.00000000000E+00  0.13883400651E+03  0.13883400651E+03  0.00000000000E+00 0. -1.
         -1   -1    0    0    0  501 -0.00000000000E+00 -0.00000000000E+00 -0.15772956505E+03  0.15772956505E+03  0.00000000000E+00 0.  1.
         25    2    1    2    0    0  0.40518813384E+02 -0.14406080014E+02  0.80108873314E+02  0.15464211444E+03  0.12508973816E+03 0.  0.
          5    1    3    3  502    0 -0.31804920114E+02 -0.18460376339E+02  0.72862158833E+02  0.81723344448E+02  0.41800000000E+01 0. -1.
         -5    1    3    3    0  502  0.72323733497E+02  0.40542963246E+01  0.72467144809E+01  0.72918769987E+02  0.41800000000E+01 0. -1.
        -11    1    1    2    0    0  0.21683907463E+02  0.27075161238E+02 -0.53715142279E+02  0.63941947961E+02  0.00000000000E+00 0.  1.
         11    1    1    2    0    0 -0.62202720847E+02 -0.12669081223E+02 -0.45289289568E+02  0.77979509164E+02  0.00000000000E+00 0. -1.
</event>
<event>
 7    1  0.2490079E-009  0.1146829E+03  0.7561462E-02  0.1252136E+00
          4   -1    0    0  501    0  0.00000000000E+00  0.00000000000E+00  0.17326649914E+03  0.17326649914E+03  0.00000000000E+00 0. -1.
         -4   -1    0    0    0  501 -0.00000000000E+00 -0.00000000000E+00 -0.89622281411E+02  0.89622281411E+02  0.00000000000E+00 0.  1.
         25    2    1    2    0    0 -0.37235473498E+01  0.60147647535E+02  0.63066606803E+02  0.15250317183E+03  0.12509283039E+03 0.  0.
          5    1    3    3  502    0  0.49266108038E+02  0.11837712785E+02 -0.79931634244E+01  0.51464977477E+02  0.41800000000E+01 0. -1.
         -5    1    3    3    0  502 -0.52989655388E+02  0.48309934750E+02  0.71059770228E+02  0.10103819435E+03  0.41800000000E+01 0. -1.
        -11    1    1    2    0    0  0.45427046831E+02 -0.39328529695E+02  0.17392685056E+01  0.60111354059E+02  0.00000000000E+00 0.  1.
         11    1    1    2    0    0 -0.41703499481E+02 -0.20819117839E+02  0.18838342420E+02  0.50274254661E+02  0.00000000000E+00 0. -1.
</event>
<event>
 7    1  0.2490079E-009  0.7852914E+02  0.7561462E-02  0.1333278E+00
          2   -1    0    0  501    0  0.00000000000E+00  0.00000000000E+00  0.71827334118E+02  0.71827334118E+02  0.00000000000E+00 0. -1.
         -2   -1    0    0    0  501 -0.00000000000E+00 -0.00000000000E+00 -0.17199950227E+03  0.17199950227E+03  0.00000000000E+00 0.  1.
         25    2    1    2    0    0 -0.24650826136E+02 -0.18039599491E+02 -0.64239253352E+02  0.14390404483E+03  0.12509437265E+03 0.  0.
          5    1    3    3  502    0  0.18974925944E+02 -0.48661372209E+02 -0.72865660193E+02  0.89748837292E+02  0.41800000000E+01 0. -1.
         -5    1    3    3    0  502 -0.43625752080E+02  0.30621772719E+02  0.86264068410E+01  0.54155207542E+02  0.41800000000E+01 0. -1.
        -11    1    1    2    0    0  0.68127617656E+01  0.29313936524E+02  0.22642799397E+02  0.37661876771E+02  0.00000000000E+00 0. -1.
         11    1    1    2    0    0  0.17838064370E+02 -0.11274337033E+02 -0.58575714197E+02  0.62260914783E+02  0.00000000000E+00 0.  1.
</event>
<event>
 7    1  0.2490079E-009  0.1065517E+03  0.7561462E-02  0.1267092E+00
          1   -1    0    0  501    0  0.00000000000E+00  0.00000000000E+00  0.16666838470E+03  0.16666838470E+03  0.00000000000E+00 0. -1.
         -1   -1    0    0    0  501 -0.00000000000E+00 -0.00000000000E+00 -0.11433271374E+03  0.11433271374E+03  0.00000000000E+00 0.  1.
         25    2    1    2    0    0  0.85261310672E+02 -0.63479525452E+01  0.28156336656E+02  0.15411041288E+03  0.12508977762E+03 0.  0.
          5    1    3    3  502    0  0.21114860955E+02 -0.25114015517E+02 -0.44405440513E+02  0.55370268878E+02  0.41800000000E+01 0.  1.
         -5    1    3    3    0  502  0.64146449717E+02  0.18766062972E+02  0.72561777169E+02  0.98740143997E+02  0.41800000000E+01 0.  1.
        -11    1    1    2    0    0 -0.58940880651E+02  0.39334886475E+02 -0.11301434081E+02  0.71756415171E+02  0.00000000000E+00 0.  1.
         11    1    1    2    0    0 -0.26320430021E+02 -0.32986933930E+02  0.35480768382E+02  0.55134270391E+02  0.00000000000E+00 0. -1.
</event>
<event>
 7    1  0.2490079E-009  0.2760901E+03  0.7561462E-02  0.1097844E+00
         -2   -1    0    0    0  501 -0.00000000000E+00  0.00000000000E+00  0.14860960740E+03  0.14860960740E+03  0.00000000000E+00 0.  1.
          2   -1    0    0  501    0  0.00000000000E+00 -0.00000000000E+00 -0.54396763669E+03  0.54396763669E+03  0.00000000000E+00 0. -1.
         25    2    1    2    0    0  0.26126325505E+03 -0.14509443391E+02 -0.22997383103E+03  0.37014108222E+03  0.12508974939E+03 0.  0.
          5    1    3    3  502    0  0.14537748238E+03  0.39281805115E+02 -0.17521984851E+03  0.23107821253E+03  0.41800000000E+01 0. -1.
         -5    1    3    3    0  502  0.11588577267E+03 -0.53791248506E+02 -0.54753982515E+02  0.13906286968E+03  0.41800000000E+01 0. -1.
        -11    1    1    2    0    0 -0.19123171389E+03  0.46353777033E+02 -0.96441474582E+02  0.21913283429E+03  0.00000000000E+00 0.  1.
         11    1    1    2    0    0 -0.70031541157E+02 -0.31844333642E+02 -0.68942723677E+02  0.10330332758E+03  0.00000000000E+00 0. -1.
</event>
<event>
 7    1  0.3084011E-009  0.7685206E+02  0.7561462E-02  0.1338230E+00
          2   -1    0    0  501    0  0.00000000000E+00  0.00000000000E+00  0.51413975417E+03  0.51413975417E+03  0.00000000000E+00 0. -1.
         -2   -1    0    0    0  501 -0.00000000000E+00 -0.00000000000E+00 -0.28715624440E+02  0.28715624440E+02  0.00000000000E+00 0.  1.
         25    2    1    2    0    0  0.39381241924E+02 -0.37640177392E+02  0.25472577928E+03  0.28896393375E+03  0.12508903714E+03 0.  0.
          5    1    3    3  502    0  0.43245412799E+02 -0.12310344036E+01  0.24765513359E+03  0.25144028867E+03  0.41800000000E+01 0.  1.
         -5    1    3    3    0  502 -0.38641708749E+01 -0.36409142988E+02  0.70706456846E+01  0.37523645080E+02  0.41800000000E+01 0.  1.
        -11    1    1    2    0    0 -0.22400987862E+02 -0.87030280397E+01  0.73154767606E+01  0.25120970413E+02  0.00000000000E+00 0.  1.
         11    1    1    2    0    0 -0.16980254062E+02  0.46343205431E+02  0.22338287370E+03  0.22877047445E+03  0.00000000000E+00 0. -1.
</event>
<event>
 7    1  0.2490079E-009  0.2821569E+03  0.7561462E-02  0.1094517E+00
         -1   -1    0    0    0  501 -0.00000000000E+00  0.00000000000E+00  0.15514445115E+03  0.15514445115E+03  0.00000000000E+00 0.  1.
          1   -1    0    0  501    0  0.00000000000E+00 -0.00000000000E+00 -0.60800843847E+03  0.60800843847E+03  0.00000000000E+00 0. -1.
         25    2    1    2    0    0  0.51909435981E+02  0.26048276711E+03 -0.97371741728E+02  0.30931270261E+03  0.12508889002E+03 0.  0.
          5    1    3    3  502    0  0.53361614039E+02  0.26809348139E+03 -0.10935387755E+03  0.29444408561E+03  0.41800000000E+01 0.  1.
         -5    1    3    3    0  502 -0.14521780578E+01 -0.76107142746E+01  0.11982135820E+02  0.14868617006E+02  0.41800000000E+01 0.  1.
        -11    1    1    2    0    0 -0.69400278990E+02 -0.25425955790E+03 -0.33253468823E+03  0.42431549629E+03  0.00000000000E+00 0.  1.
         11    1    1    2    0    0  0.17490843009E+02 -0.62232092067E+01 -0.22957557355E+02  0.29524690713E+02  0.00000000000E+00 0. -1.
</event>
<event>
 7    1  0.2490079E-009  0.2948686E+03  0.7561462E-02  0.1087834E+00
          2   -1    0    0  501    0  0.00000000000E+00  0.00000000000E+00  0.89542098136E+03  0.89542098136E+03  0.00000000000E+00 0. -1.
         -2   -1    0    0    0  501 -0.00000000000E+00 -0.00000000000E+00 -0.10459594515E+03  0.10459594515E+03  0.00000000000E+00 0.  1.
         25    2    1    2    0    0 -0.10053450391E+02 -0.28189753857E+03  0.33312793139E+03  0.45408060692E+03  0.12509070627E+03 0.  0.
          5    1    3    3  502    0 -0.14593802810E+02  0.65975000548E+01  0.37378390872E+02  0.40879366330E+02  0.41800000000E+01 0. -1.
         -5    1    3    3    0  502  0.45403524187E+01 -0.28849503863E+03  0.29574954052E+03  0.41320124059E+03  0.41800000000E+01 0. -1.
        -11    1    1    2    0    0  0.23339226549E+02  0.12465243341E+03  0.12679442583E+03  0.17933146705E+03  0.00000000000E+00 0.  1.
         11    1    1    2    0    0 -0.13285776158E+02  0.15724510516E+03  0.33090267899E+03  0.36660485255E+03  0.00000000000E+00 0. -1.
</event>
<event>
 7    1  0.2490079E-009  0.1123193E+03  0.7561462E-02  0.1256334E+00
          2   -1    0    0  501    0  0.00000000000E+00  0.00000000000E+00  0.26581431781E+03  0.26581431781E+03  0.00000000000E+00 0. -1.
         -2   -1    0    0    0  501 -0.00000000000E+00 -0.00000000000E+00 -0.65539801015E+02  0.65539801015E+02  0.00000000000E+00 0.  1.
         25    2    1    2    0    0  0.66568186796E+02  0.15425439713E+02  0.70359856849E+02  0.15895670032E+03  0.12508978950E+03 0.  0.
          5    1    3    3  502    0  0.85986633908E+02  0.45271426609E+02  0.74976158382E+02  0.12280920162E+03  0.41800000000E+01 0.  1.
         -5    1    3    3    0  502 -0.19418447112E+02 -0.29845986896E+02 -0.46163015333E+01  0.36147498694E+02  0.41800000000E+01 0.  1.
        -11    1    1    2    0    0 -0.15398072085E+02 -0.33807763556E+02  0.67394741664E+01  0.37755609022E+02  0.00000000000E+00 0. -1.
         11    1    1    2    0    0 -0.51170114712E+02  0.18382323843E+02  0.12317518578E+03  0.13464180948E+03  0.00000000000E+00 0.  1.
</event>
<event>
 7    1  0.2490079E-009  0.1019868E+03  0.7561462E-02  0.1276173E+00
         -1   -1    0    0    0  501 -0.00000000000E+00  0.00000000000E+00  0.51021668059E+02  0.51021668059E+02  0.00000000000E+00 0.  1.
          1   -1    0    0  501    0  0.00000000000E+00 -0.00000000000E+00 -0.42553744116E+03  0.42553744116E+03  0.00000000000E+00 0. -1.
         25    2    1    2    0    0 -0.65741307872E+00  0.81032253061E+02 -0.26782761615E+03  0.30650617428E+03  0.12509094559E+03 0.  0.
          5    1    3    3  502    0 -0.45310271702E+02  0.28758847238E+02 -0.20933288884E+03  0.21614306088E+03  0.41800000000E+01 0. -1.
         -5    1    3    3    0  502  0.44652858623E+02  0.52273405823E+02 -0.58494727307E+02  0.90363113395E+02  0.41800000000E+01 0. -1.
        -11    1    1    2    0    0 -0.27018405939E+01 -0.44762616830E+02  0.11569692539E+02  0.46312520915E+02  0.00000000000E+00 0.  1.
         11    1    1    2    0    0  0.33592536726E+01 -0.36269636231E+02 -0.11825784949E+03  0.12374041403E+03  0.00000000000E+00 0. -1.
</event>
<event>
 7    1  0.2490079E-009  0.9409898E+02  0.7561462E-02  0.1293218E+00
          2   -1    0    0  501    0  0.00000000000E+00  0.00000000000E+00  0.47110900746E+02  0.47110900746E+02  0.00000000000E+00 0. -1.
         -2   -1    0    0    0  501 -0.00000000000E+00 -0.00000000000E+00 -0.33296431096E+03  0.33296431096E+03  0.00000000000E+00 0.  1.
         25    2    1    2    0    0 -0.18841270910E+02  0.30724135243E+02 -0.64727977263E+02  0.14538433707E+03  0.12509168017E+03 0.  0.
          5    1    3    3  502    0 -0.70879378794E+02  0.26731677365E+02 -0.50462663172E+02  0.91117625559E+02  0.41800000000E+01 0. -1.
         -5    1    3    3    0  502  0.52038107884E+02  0.39924578781E+01 -0.14265314091E+02  0.54266711511E+02  0.41800000000E+01 0. -1.
        -11    1    1    2    0    0  0.16333228632E+02  0.10012645984E+02 -0.14377353400E+02  0.23952781215E+02  0.00000000000E+00 0. -1.
         11    1    1    2    0    0  0.25080422786E+01 -0.40736781228E+02 -0.20674807955E+03  0.21073809342E+03  0.00000000000E+00 0.  1.
</event>
<event>
 7    1  0.2490079E-009  0.1085311E+03  0.7561462E-02  0.1263315E+00
          2   -1    0    0  501    0  0.00000000000E+00  0.00000000000E+00  0.25877802581E+04  0.25877802581E+04  0.00000000000E+00 0. -1.
         -2   -1    0    0    0  501 -0.00000000000E+00 -0.00000000000E+00 -0.60150557501E+01  0.60150557501E+01  0.00000000000E+00 0.  1.
         25    2    1    2    0    0 -0.56224884235E+02  0.36719127071E+02  0.22070016259E+04  0.22115635974E+04  0.12509131318E+03 0.  0.
          5    1    3    3  502    0 -0.62626500407E+02  0.77910851303E+02  0.15771853911E+04  0.15803554694E+04  0.41800000000E+01 0. -1.
         -5    1    3    3    0  502  0.64016161722E+01 -0.41191724233E+02  0.62981623482E+03  0.63120812802E+03  0.41800000000E+01 0. -1.
        -11    1    1    2    0    0  0.27890121588E+02 -0.37546501899E+02  0.24125755570E+03  0.24574947989E+03  0.00000000000E+00 0.  1.
         11    1    1    2    0    0  0.28334762647E+02  0.82737482804E+00  0.13350602072E+03  0.13648223655E+03  0.00000000000E+00 0. -1.
</event>
<event>
 7    1  0.2490079E-009  0.9073046E+02  0.7561462E-02  0.1301092E+00
         -3   -1    0    0    0  501 -0.00000000000E+00  0.00000000000E+00  0.49625975744E+02  0.49625975744E+02  0.00000000000E+00 0.  1.
          3   -1    0    0  501    0  0.00000000000E+00 -0.00000000000E+00 -0.27106943784E+03  0.27106943784E+03  0.00000000000E+00 0. -1.
         25    2    1    2    0    0  0.34833334536E+02  0.14569704109E+02 -0.10496385936E+03  0.16760241753E+03  0.12509005204E+03 0.  0.
          5    1    3    3  502    0 -0.11453647010E+02 -0.23560329264E+02 -0.10415639343E+03  0.10748163488E+03  0.41800000000E+01 0.  1.
         -5    1    3    3    0  502  0.46286981547E+02  0.38130033372E+02 -0.80746593512E+00  0.60120782654E+02  0.41800000000E+01 0.  1.
        -11    1    1    2    0    0  0.19001504560E+02  0.22503009053E+02 -0.16840563573E+02  0.33927086132E+02  0.00000000000E+00 0. -1.
         11    1    1    2    0    0 -0.53834839096E+02 -0.37072713162E+02 -0.99639039165E+02  0.11916590992E+03  0.00000000000E+00 0.  1.
</event>
<event>
 7    1  0.2490079E-009  0.1285006E+03  0.7561462E-02  0.1229698E+00
         -1   -1    0    0    0  501 -0.00000000000E+00  0.00000000000E+00  0.25236669728E+02  0.25236669728E+02  0.00000000000E+00 0.  1.
          1   -1    0    0  501    0  0.00000000000E+00 -0.00000000000E+00 -0.14405430078E+04  0.14405430078E+04  0.00000000000E+00 0. -1.
         25    2    1    2    0    0 -0.10660536176E+03 -0.22499041947E+02 -0.11310269469E+04  0.11431274628E+04  0.12509009355E+03 0.  0.
          5    1    3    3  502    0 -0.91396950114E+02 -0.39490922250E+02 -0.10994326283E+04  0.11039395419E+04  0.41800000000E+01 0.  1.
         -5    1    3    3    0  502 -0.15208411642E+02  0.16991880303E+02 -0.31594318589E+02  0.39187920945E+02  0.41800000000E+01 0.  1.
        -11    1    1    2    0    0 -0.44001938296E+01  0.22738299161E+02 -0.73425203053E+01  0.24296184040E+02  0.00000000000E+00 0.  1.
         11    1    1    2    0    0  0.11100555559E+03 -0.23925721391E+00 -0.27693687086E+03  0.29835603071E+03  0.00000000000E+00 0. -1.
</event>
<event>
 7    1  0.2490079E-009  0.1424656E+03  0.7561462E-02  0.1210049E+00
          2   -1    0    0  501    0  0.00000000000E+00  0.00000000000E+00  0.27030046937E+03  0.27030046937E+03  0.00000000000E+00 0. -1.
         -2   -1    0    0    0  501 -0.00000000000E+00 -0.00000000000E+00 -0.11978506540E+03  0.11978506540E+03  0.00000000000E+00 0.  1.
         25    2    1    2    0    0  0.24503739335E+02  0.92887280092E+02  0.19678386075E+03  0.25219062379E+03  0.12509093824E+03 0.  0.
          5    1    3    3  502    0 -0.39476954352E+02  0.84082614533E+02  0.11402428663E+03  0.14713030392E+03  0.41800000000E+01 0.  1.
         -5    1    3    3    0  502  0.63980693688E+02  0.88046655592E+01  0.82759574127E+02  0.10506031986E+03  0.41800000000E+01 0.  1.
        -11    1    1    2    0    0  0.17402560800E+02 -0.82145294576E+02 -0.43444572335E+02  0.94541680801E+02  0.00000000000E+00 0.  1.
         11    1    1    2    0    0 -0.41906300135E+02 -0.10741985516E+02 -0.28238844522E+01  0.43353230183E+02  0.00000000000E+00 0. -1.
</event>
<event>
 7    1  0.2490079E-009  0.4772757E+02  0.7561462E-02  0.1457999E+00
         -3   -1    0    0    0  501 -0.00000000000E+00  0.00000000000E+00  0.80854516493E+02  0.80854516493E+02  0.00000000000E+00 0.  1.
          3   -1    0    0  501    0  0.00000000000E+00 -0.00000000000E+00 -0.15937768919E+03  0.15937768919E+03  0.00000000000E+00 0. -1.
         25    2    1    2    0    0 -0.32752965936E+02  0.15168443908E+02 -0.45861225608E+02  0.13801781411E+03  0.12507128579E+03 0.  0.
          5    1    3    3  502    0 -0.10923414790E+02  0.69696350288E+01 -0.88338202356E+02  0.89381246347E+02  0.41800000000E+01 0.  1.
         -5    1    3    3    0  502 -0.21829551146E+02  0.81988088793E+01  0.42476976748E+02  0.48636567765E+02  0.41800000000E+01 0.  1.
        -11    1    1    2    0    0  0.40796618906E+02  0.20751125507E+00  0.20951557809E+02  0.45862565887E+02  0.00000000000E+00 0.  1.
         11    1    1    2    0    0 -0.80436529704E+01 -0.15375955163E+02 -0.53613504894E+02  0.56351825679E+02  0.00000000000E+00 0. -1.
</event>
<event>
 7    1  0.2490079E-009  0.1184244E+03  0.7561462E-02  0.1245719E+00
         -1   -1    0    0    0  501 -0.00000000000E+00  0.00000000000E+00  0.36207466141E+02  0.36207466141E+02  0.00000000000E+00 0.  1.
          1   -1    0    0  501    0  0.00000000000E+00 -0.00000000000E+00 -0.44326795225E+03  0.44326795225E+03  0.00000000000E+00 0. -1.
         25    2    1    2    0    0 -0.14290495784E+02  0.61000235891E+02 -0.17809093313E+03  0.22647186146E+03  0.12509147262E+03 0.  0.
          5    1    3    3  502    0 -0.56996381477E+02  0.69110615084E+02 -0.84607174904E+02  0.12329116377E+03  0.41800000000E+01 0.  1.
         -5    1    3    3    0  502  0.42705885693E+02 -0.81103791931E+01 -0.93483758223E+02  0.10318069769E+03  0.41800000000E+01 0.  1.
        -11    1    1    2    0    0 -0.32793928302E+02 -0.40589944292E+02 -0.15006543247E+03  0.15887926024E+03  0.00000000000E+00 0. -1.
         11    1    1    2    0    0  0.47084424086E+02 -0.20410291599E+02 -0.78904120507E+02  0.94124296691E+02  0.00000000000E+00 0.  1.
</event>
<event>
 7    1  0.2490079E-009  0.1557958E+03  0.7561462E-02  0.1193527E+00
          1   -1    0    0  501    0  0.00000000000E+00  0.00000000000E+00  0.27491044805E+04  0.27491044805E+04  0.00000000000E+00 0. -1.
         -1   -1    0    0    0  501 -0.00000000000E+00 -0.00000000000E+00 -0.33549428820E+02  0.33549428820E+02  0.00000000000E+00 0.  1.
         25    2    1    2    0    0 -0.87902657178E+02 -0.10115639346E+03  0.25272721436E+04  0.25339124000E+04  0.12509224455E+03 0.  0.
          5    1    3    3  502    0  0.96290458065E+01 -0.25733180382E+02  0.13322101863E+04  0.13325000443E+04  0.41800000000E+01 0.  1.
         -5    1    3    3    0  502 -0.97531702985E+02 -0.75423213081E+02  0.11950619573E+04  0.12014123557E+04  0.41800000000E+01 0.  1.
        -11    1    1    2    0    0  0.80266407406E+02  0.25246564256E+02  0.78669105825E+02  0.11519076949E+03  0.00000000000E+00 0.  1.
         11    1    1    2    0    0  0.76362497722E+01  0.75909829207E+02  0.10961380224E+03  0.13355073988E+03  0.00000000000E+00 0. -1.
</event>
<event>
 7    1  0.2490079E-009  0.1044484E+03  0.7561462E-02  0.1271210E+00
          2   -1    0    0  501    0  0.00000000000E+00  0.00000000000E+00  0.11089458834E+03  0.11089458834E+03  0.00000000000E+00 0. -1.
         -2   -1    0    0    0  501 -0.00000000000E+00 -0.00000000000E+00 -0.11420815231E+03  0.11420815231E+03  0.00000000000E+00 0.  1.
         25    2    1    2    0    0  0.21187732686E+02  0.33287298339E+01  0.10408943258E+02  0.12734295111E+03  0.12509148908E+03 0.  0.
          5    1    3    3  502    0  0.42595300041E+01  0.59231583074E+02 -0.18087167799E+02  0.62218502620E+02  0.41800000000E+01 0. -1.
         -5    1    3    3    0  502  0.16928202682E+02 -0.55902853240E+02  0.28496111057E+02  0.65124448495E+02  0.41800000000E+01 0. -1.
        -11    1    1    2    0    0 -0.45736455259E+02 -0.29890517013E+02  0.85220041141E+01  0.55298199800E+02  0.00000000000E+00 0. -1.
         11    1    1    2    0    0  0.24548722573E+02  0.26561787179E+02 -0.22244511335E+02  0.42461589733E+02  0.00000000000E+00 0.  1.
</event>
<event>
 7    1  0.2490079E-009  0.1127360E+03  0.7561462E-02  0.1255586E+00
          2   -1    0    0  501    0  0.00000000000E+00  0.00000000000E+00  0.18282058887E+03  0.18282058887E+03  0.00000000000E+00 0. -1.
         -2   -1    0    0    0  501 -0.00000000000E+00 -0.00000000000E+00 -0.87734326020E+02  0.87734326020E+02  0.00000000000E+00 0.  1.
         25    2    1    2    0    0 -0.60754754345E+02 -0.17430087780E+02  0.75508548597E+02  0.15919892158E+03  0.12509119707E+03 0.  0.
          5    1    3    3  502    0 -0.76207637794E+02 -0.52359391862E+02  0.77509291562E+02  0.12072395227E+03  0.41800000000E+01 0. -1.
         -5    1    3    3    0  502  0.15452883449E+02  0.34929304083E+02 -0.20007429652E+01  0.38474969305E+02  0.41800000000E+01 0. -1.
        -11    1    1    2    0    0 -0.92345786854E+01  0.22499200762E+02 -0.19376990283E+02  0.31095968080E+02  0.00000000000E+00 0.  1.
         11    1    1    2    0    0  0.69989333031E+02 -0.50691129820E+01  0.38954704537E+02  0.80260025231E+02  0.00000000000E+00 0. -1.
</event>
<event>
 7    1  0.2607082E-009  0.1106436E+03  0.7561462E-02  0.1259383E+00
         -4   -1    0    0    0  501 -0.00000000000E+00  0.00000000000E+00  0.12599384214E+03  0.12599384214E+03  0.00000000000E+00 0. -1.
          4   -1    0    0  501    0  0.00000000000E+00 -0.00000000000E+00 -0.14251295787E+03  0.14251295787E+03  0.00000000000E+00 0.  1.
         25    2    1    2    0    0  0.72527272428E+02 -0.28191331400E+02 -0.17758965785E+02  0.14838486554E+03  0.12509089114E+03 0.  0.
          5    1    3    3  502    0 -0.26899207672E+02  0.19057015238E+02  0.10146310960E+02  0.34744168278E+02  0.41800000000E+01 0. -1.
         -5    1    3    3    0  502  0.99426480100E+02 -0.47248346638E+02 -0.27905276745E+02  0.11364069727E+03  0.41800000000E+01 0. -1.
        -11    1    1    2    0    0 -0.55048383831E+02  0.23025730974E+02 -0.42152543801E+02  0.73057140638E+02  0.00000000000E+00 0.  1.
         11    1    1    2    0    0 -0.17478888597E+02  0.51656004254E+01  0.43392393846E+02  0.47064793828E+02  0.00000000000E+00 0. -1.
</event>
<event>
 7    1  0.2490079E-009  0.1512687E+03  0.7561462E-02  0.1198923E+00
          1   -1    0    0  501    0  0.00000000000E+00  0.00000000000E+00  0.86232984927E+03  0.86232984927E+03  0.00000000000E+00 0. -1.
         -1   -1    0    0    0  501 -0.00000000000E+00 -0.00000000000E+00 -0.13524086597E+03  0.13524086597E+03  0.00000000000E+00 0.  1.
         25    2    1    2    0    0 -0.10290317597E+03  0.32661649404E+02 -0.76119598387E+02  0.18192628631E+03  0.12508850236E+03 0.  0.
          5    1    3    3  502    0 -0.50062883715E+02  0.76991848700E+02 -0.22991137275E+02  0.94763399503E+02  0.41800000000E+01 0. -1.
         -5    1    3    3    0  502 -0.52840292258E+02 -0.44330199297E+02 -0.53128461112E+02  0.87162886803E+02  0.41800000000E+01 0. -1.
        -11    1    1    2    0    0  0.26214681348E+02  0.31878819764E+02  0.20801089646E+03  0.21206603149E+03  0.00000000000E+00 0.  1.
         11    1    1    2    0    0  0.76688494626E+02 -0.64540469167E+02  0.59519768523E+03  0.60357839745E+03  0.00000000000E+00 0. -1.
</event>
<event>
 7    1  0.2490079E-009  0.9723357E+02  0.7561462E-02  0.1286223E+00
          1   -1    0    0  501    0  0.00000000000E+00  0.00000000000E+00  0.43465615962E+03  0.43465615962E+03  0.00000000000E+00 0. -1.
         -1   -1    0    0    0  501 -0.00000000000E+00 -0.00000000000E+00 -0.33531433763E+02  0.33531433763E+02  0.00000000000E+00 0.  1.
         25    2    1    2    0    0  0.50194236242E+02 -0.21911686601E+02  0.23645958660E+03  0.27305695490E+03  0.12508949262E+03 0.  0.
          5    1    3    3  502    0  0.73021299754E+02  0.22879713291E+02  0.90298060105E+02  0.11843480720E+03  0.41800000000E+01 0. -1.
         -5    1    3    3    0  502 -0.22827063512E+02 -0.44791399892E+02  0.14616152649E+03  0.15462214770E+03  0.41800000000E+01 0. -1.
        -11    1    1    2    0    0 -0.33266572260E+02 -0.68943509242E+01  0.15728681574E+03  0.16091407431E+03  0.00000000000E+00 0. -1.
         11    1    1    2    0    0 -0.16927663982E+02  0.28806037525E+02  0.73783235167E+01  0.34216564171E+02  0.00000000000E+00 0.  1.
</event>
<event>
 7    1  0.2490079E-009  0.1126652E+03  0.7561462E-02  0.1255712E+00
         -1   -1    0    0    0  501 -0.00000000000E+00  0.00000000000E+00  0.16948995746E+02  0.16948995746E+02  0.00000000000E+00 0.  1.
          1   -1    0    0  501    0  0.00000000000E+00 -0.00000000000E+00 -0.10671180418E+04  0.10671180418E+04  0.00000000000E+00 0. -1.
         25    2    1    2    0    0  0.38916226942E+02  0.36679423921E+01 -0.85314980315E+03  0.86315702010E+03  0.12509008039E+03 0.  0.
          5    1    3    3  502    0 -0.11913777623E+02 -0.52900450913E+02 -0.39323210940E+03  0.39697526379E+03  0.41800000000E+01 0.  1.
         -5    1    3    3    0  502  0.50830004565E+02  0.56568393305E+02 -0.45991769375E+03  0.46618175630E+03  0.41800000000E+01 0.  1.
        -11    1    1    2    0    0 -0.66613262768E+02 -0.65389958154E+01 -0.10286444405E+03  0.12272399559E+03  0.00000000000E+00 0.  1.
         11    1    1    2    0    0  0.27697035826E+02  0.28710534233E+01 -0.94154798847E+02  0.98186021853E+02  0.00000000000E+00 0. -1.
</event>
<event>
 7    1  0.2490079E-009  0.2552001E+03  0.7561462E-02  0.1110062E+00
         -1   -1    0    0    0  501 -0.00000000000E+00  0.00000000000E+00  0.15938584316E+03  0.15938584316E+03  0.00000000000E+00 0.  1.
          1   -1    0    0  501    0  0.00000000000E+00 -0.00000000000E+00 -0.42766250992E+03  0.42766250992E+03  0.00000000000E+00 0. -1.
         25    2    1    2    0    0  0.30262423333E+02  0.23636555498E+03 -0.83916727971E+02  0.28191434403E+03  0.12509672373E+03 0.  0.
          5    1    3    3  502    0  0.73992221124E+02  0.18938716268E+03 -0.51024949227E+02  0.20967442385E+03  0.41800000000E+01 0. -1.
         -5    1    3    3    0  502 -0.43729797791E+02  0.46978392302E+02 -0.32891778744E+02  0.72239920177E+02  0.41800000000E+01 0. -1.
        -11    1    1    2    0    0 -0.13159580647E+02 -0.12359618980E+02 -0.92051996940E+01  0.20265005441E+02  0.00000000000E+00 0.  1.
         11    1    1    2    0    0 -0.17102842685E+02 -0.22400593600E+03 -0.17515473909E+03  0.28486900361E+03  0.00000000000E+00 0. -1.
</event>
<event>
 7    1  0.2490079E-009  0.2980143E+03  0.7561462E-02  0.1086237E+00
         -1   -1    0    0    0  501 -0.00000000000E+00  0.00000000000E+00  0.13891602254E+03  0.13891602254E+03  0.00000000000E+00 0.  1.
          1   -1    0    0  501    0  0.00000000000E+00 -0.00000000000E+00 -0.69471025604E+03  0.69471025604E+03  0.00000000000E+00 0. -1.
         25    2    1    2    0    0  0.97508396735E+02 -0.26238121867E+03 -0.39067634125E+03  0.49661553391E+03  0.12508874277E+03 0.  0.
          5    1    3    3  502    0  0.17795214800E+02 -0.20896008871E+03 -0.28409126594E+03  0.35313780331E+03  0.41800000000E+01 0. -1.
         -5    1    3    3    0  502  0.79713181935E+02 -0.53421129964E+02 -0.10658507531E+03  0.14347773060E+03  0.41800000000E+01 0. -1.
        -11    1    1    2    0    0 -0.79831504240E+02  0.10526031783E+03 -0.49259968302E+02  0.14099414192E+03  0.00000000000E+00 0.  1.
         11    1    1    2    0    0 -0.17676892495E+02  0.15712090085E+03 -0.11585792395E+03  0.19601660275E+03  0.00000000000E+00 0. -1.
</event>
<event>
 7    1  0.3024871E-009  0.1260756E+03  0.7561462E-02  0.1233398E+00
          1   -1    0    0  501    0  0.00000000000E+00  0.00000000000E+00  0.16177922840E+03  0.16177922840E+03  0.00000000000E+00 0. -1.
         -1   -1    0    0    0  501 -0.00000000000E+00 -0.00000000000E+00 -0.20741202454E+03  0.20741202454E+03  0.00000000000E+00 0.  1.
         25    2    1    2    0    0 -0.63627103940E+01  0.11521124716E+03 -0.11575852028E+03  0.20581438201E+03  0.12508161043E+03 0.  0.
          5    1    3    3  502    0 -0.31681113360E+02  0.29924673188E+02  0.16141657333E+02  0.46660524114E+02  0.41800000000E+01 0.  1.
         -5    1    3    3    0  502  0.25318402966E+02  0.85286573971E+02 -0.13190017761E+03  0.15915385789E+03  0.41800000000E+01 0.  1.
        -11    1    1    2    0    0 -0.64208515569E+01 -0.96107905066E+02  0.74392743357E+01  0.96609003480E+02  0.00000000000E+00 0.  1.
         11    1    1    2    0    0  0.12783561951E+02 -0.19103342094E+02  0.62686449798E+02  0.66767867448E+02  0.00000000000E+00 0. -1.
</event>
<event>
 7    1  0.2490079E-009  0.1400492E+03  0.7561462E-02  0.1213263E+00
          2   -1    0    0  501    0  0.00000000000E+00  0.00000000000E+00  0.28493378954E+03  0.28493378954E+03  0.00000000000E+00 0. -1.
         -2   -1    0    0    0  501 -0.00000000000E+00 -0.00000000000E+00 -0.29759008541E+03  0.29759008541E+03  0.00000000000E+00 0.  1.
         25    2    1    2    0    0  0.21457888236E+02 -0.10832593214E+03  0.24008578139E+03  0.29237195064E+03  0.12508088005E+03 0.  0.
          5    1    3    3  502    0 -0.27862144377E+02 -0.11363120698E+03  0.16788306222E+03  0.20467179891E+03  0.41800000000E+01 0. -1.
         -5    1    3    3    0  502  0.49320032612E+02  0.53052748375E+01  0.72202719169E+02  0.87700151729E+02  0.41800000000E+01 0. -1.
        -11    1    1    2    0    0 -0.10948854042E+02  0.11600243058E+02  0.32630981682E+01  0.16281610900E+02  0.00000000000E+00 0. -1.
         11    1    1    2    0    0 -0.10509034193E+02  0.96725689082E+02 -0.25600517543E+03  0.27387031342E+03  0.00000000000E+00 0.  1.
</event>
<event>
 7    1  0.2490079E-009  0.9311288E+02  0.7561462E-02  0.1295484E+00
         -1   -1    0    0    0  501 -0.00000000000E+00  0.00000000000E+00  0.32298692867E+02  0.32298692867E+02  0.00000000000E+00 0.  1.
          1   -1    0    0  501    0  0.00000000000E+00 -0.00000000000E+00 -0.44415327655E+03  0.44415327655E+03  0.00000000000E+00 0. -1.
         25    2    1    2    0    0  0.14259849238E+02  0.23212778795E+02 -0.31999361450E+03  0.34465350507E+03  0.12509176166E+03 0.  0.
          5    1    3    3  502    0  0.45930957045E+02 -0.37391554272E+02 -0.14051237252E+03  0.15254173323E+03  0.41800000000E+01 0. -1.
         -5    1    3    3    0  502 -0.31671107808E+02  0.60604333067E+02 -0.17948124198E+03  0.19211177184E+03  0.41800000000E+01 0. -1.
        -11    1    1    2    0    0 -0.56661416571E+01  0.16638100799E+02  0.11285712907E+02  0.20887768558E+02  0.00000000000E+00 0.  1.
         11    1    1    2    0    0 -0.85937075806E+01 -0.39850879595E+02 -0.10314668209E+03  0.11091069579E+03  0.00000000000E+00 0. -1.
</event>
<event>
 7    1  0.2490079E-009  0.7703257E+02  0.7561462E-02  0.1337690E+00
         -2   -1    0    0    0  501 -0.00000000000E+00  0.00000000000E+00  0.35288229153E+02  0.35288229153E+02  0.00000000000E+00 0. -1.
          2   -1    0    0  501    0  0.00000000000E+00 -0.00000000000E+00 -0.36388175692E+03  0.36388175692E+03  0.00000000000E+00 0.  1.
         25    2    1    2    0    0  0.42840465446E+01 -0.19938451814E+02 -0.22968661091E+03  0.26233754256E+03  0.12509657107E+03 0.  0.
          5    1    3    3  502    0  0.49750026710E+01  0.35275469427E+02 -0.12161773732E+02  0.37874668780E+02  0.41800000000E+01 0. -1.
         -5    1    3    3    0  502 -0.69095612636E+00 -0.55213921241E+02 -0.21752483718E+03  0.22446287378E+03  0.41800000000E+01 0. -1.
        -11    1    1    2    0    0  0.20985531595E+02  0.29154853789E+02 -0.16886184767E+01  0.35961777878E+02  0.00000000000E+00 0. -1.
         11    1    1    2    0    0 -0.25269578140E+02 -0.92164019745E+01 -0.97218298377E+02  0.10087066563E+03  0.00000000000E+00 0.  1.
</event>
<event>
 7    1  0.2490079E-009  0.8510195E+02  0.7561462E-02  0.1315166E+00
         -2   -1    0    0    0  501 -0.00000000000E+00  0.00000000000E+00  0.13030307649E+03  0.13030307649E+03  0.00000000000E+00 0. -1.
          2   -1    0    0  501    0  0.00000000000E+00 -0.00000000000E+00 -0.13889503165E+03  0.13889503165E+03  0.00000000000E+00 0.  1.
         25    2    1    2    0    0  0.23690677318E+01 -0.23418129033E+02  0.73911564907E+02  0.14718412595E+03  0.12508487620E+03 0.  0.
          5    1    3    3  502    0  0.42649881117E+02  0.12527226061E+02 -0.11453778897E+02  0.46093439914E+02  0.41800000000E+01 0.  1.
         -5    1    3    3    0  502 -0.40280813385E+02 -0.35945355094E+02  0.85365343804E+02  0.10109068603E+03  0.41800000000E+01 0.  1.
        -11    1    1    2    0    0  0.26220456475E+02  0.32175917284E+02 -0.82230166476E+02  0.92111900802E+02  0.00000000000E+00 0.  1.
         11    1    1    2    0    0 -0.28589524206E+02 -0.87577882512E+01 -0.27335358589E+00  0.29902081392E+02  0.00000000000E+00 0. -1.
</event>
<event>
 7    1  0.2490079E-009  0.8629659E+02  0.7561462E-02  0.1312076E+00
          4   -1    0    0  501    0  0.00000000000E+00  0.00000000000E+00  0.18983551379E+03  0.18983551379E+03  0.00000000000E+00 0.  1.
         -4   -1    0    0    0  501 -0.00000000000E+00 -0.00000000000E+00 -0.65021290736E+02  0.65021290736E+02  0.00000000000E+00 0. -1.
         25    2    1    2    0    0 -0.11278925459E+02  0.89348937009E+01  0.50999812276E+02  0.13585025457E+03  0.12508902562E+03 0.  0.
          5    1    3    3  502    0  0.56851085601E+02  0.69859897197E+01  0.19521556290E+02  0.60658169659E+02  0.41800000000E+01 0. -1.
         -5    1    3    3    0  502 -0.68130011060E+02  0.19489039812E+01  0.31478255986E+02  0.75192084914E+02  0.41800000000E+01 0. -1.
        -11    1    1    2    0    0 -0.83386232592E+01 -0.21851314579E+02  0.88344253244E+02  0.91387743533E+02  0.00000000000E+00 0.  1.
         11    1    1    2    0    0  0.19617548718E+02  0.12916420878E+02 -0.14529842466E+02  0.27618806421E+02  0.00000000000E+00 0. -1.
</event>
<event>
 7    1  0.2490079E-009  0.1178888E+03  0.7561462E-02  0.1246621E+00
          1   -1    0    0  501    0  0.00000000000E+00  0.00000000000E+00  0.22003452479E+02  0.22003452479E+02  0.00000000000E+00 0. -1.
         -1   -1    0    0    0  501 -0.00000000000E+00 -0.00000000000E+00 -0.83895445048E+03  0.83895445048E+03  0.00000000000E+00 0.  1.
         25    2    1    2    0    0  0.26420428036E+02  0.75643232958E+02 -0.48663821562E+03  0.50880626658E+03  0.12508847390E+03 0.  0.
          5    1    3    3  502    0  0.49864257670E+02  0.88559484658E+02 -0.45888216350E+03  0.47002078560E+03  0.41800000000E+01 0. -1.
         -5    1    3    3    0  502 -0.23443829634E+02 -0.12916251699E+02 -0.27756052118E+02  0.38785480982E+02  0.41800000000E+01 0. -1.
        -11    1    1    2    0    0 -0.50166804822E+02 -0.61357499210E+02 -0.30318012256E+03  0.31336821430E+03  0.00000000000E+00 0.  1.
         11    1    1    2    0    0  0.23746376786E+02 -0.14285733749E+02 -0.27132659816E+02  0.38783422075E+02  0.00000000000E+00 0. -1.
</event>
<event>
 7    1  0.2490079E-009  0.1030728E+03  0.7561462E-02  0.1273964E+00
          2   -1    0    0  501    0  0.00000000000E+00  0.00000000000E+00  0.38835542668E+03  0.38835542668E+03  0.00000000000E+00 0.  1.
         -2   -1    0    0    0  501 -0.00000000000E+00 -0.00000000000E+00 -0.54682119446E+02  0.54682119446E+02  0.00000000000E+00 0. -1.
         25    2    1    2    0    0 -0.84712284723E+02  0.47979586667E+02  0.18425087234E+03  0.24305494970E+03  0.12509641360E+03 0.  0.
          5    1    3    3  502    0 -0.18913554148E+02  0.23315805971E+02 -0.13474973003E+02  0.33172226878E+02  0.41800000000E+01 0.  1.
         -5    1    3    3    0  502 -0.65798730574E+02  0.24663780696E+02  0.19772584534E+03  0.20988272282E+03  0.41800000000E+01 0.  1.
        -11    1    1    2    0    0  0.40051718706E+02 -0.45634798905E+02  0.14227951828E+03  0.15469368560E+03  0.00000000000E+00 0.  1.
         11    1    1    2    0    0  0.44660566016E+02 -0.23447877623E+01  0.71429166215E+01  0.45288910833E+02  0.00000000000E+00 0. -1.
</event>
<event>
 7    1  0.2490079E-009  0.9332876E+02  0.7561462E-02  0.1294985E+00
          2   -1    0    0  501    0  0.00000000000E+00  0.00000000000E+00  0.11784062746E+04  0.11784062746E+04  0.00000000000E+00 0. -1.
         -2   -1    0    0    0  501 -0.00000000000E+00 -0.00000000000E+00 -0.95647022082E+01  0.95647022082E+01  0.00000000000E+00 0.  1.
         25    2    1    2    0    0  0.46763203398E+01 -0.54951911965E+01  0.78608765109E+03  0.79601103622E+03  0.12509080497E+03 0.  0.
          5    1    3    3  502    0  0.26755444618E+02  0.43170324887E+02  0.60537223785E+03  0.60751341510E+03  0.41800000000E+01 0. -1.
         -5    1    3    3    0  502 -0.22079124278E+02 -0.48665516083E+02  0.18071541323E+03  0.18849762111E+03  0.41800000000E+01 0. -1.
        -11    1    1    2    0    0 -0.18022659554E+02 -0.35047896444E+02  0.13821634261E+03  0.14372518453E+03  0.00000000000E+00 0.  1.
         11    1    1    2    0    0  0.13346339214E+02  0.40543087641E+02  0.24453757870E+03  0.24823475607E+03  0.00000000000E+00 0. -1.
</event>
<event>
 7    1  0.2490079E-009  0.9015443E+02  0.7561462E-02  0.1302478E+00
          2   -1    0    0  501    0  0.00000000000E+00  0.00000000000E+00  0.16817965893E+03  0.16817965893E+03  0.00000000000E+00 0. -1.
         -2   -1    0    0    0  501 -0.00000000000E+00 -0.00000000000E+00 -0.74844367285E+02  0.74844367285E+02  0.00000000000E+00 0.  1.
         25    2    1    2    0    0 -0.13361862034E+02 -0.26686402863E+02  0.42425504641E+02  0.13541591083E+03  0.12508733752E+03 0.  0.
          5    1    3    3  502    0 -0.42183575324E+02 -0.42495534622E+02 -0.21217238084E+02  0.63662925489E+02  0.41800000000E+01 0. -1.
         -5    1    3    3    0  502  0.28821713291E+02  0.15809131759E+02  0.63642742725E+02  0.71752985343E+02  0.41800000000E+01 0. -1.
        -11    1    1    2    0    0 -0.26559967154E+02  0.37346164407E+02  0.47724686910E+02  0.66165048113E+02  0.00000000000E+00 0.  1.
         11    1    1    2    0    0  0.39921829188E+02 -0.10659761545E+02  0.31851000892E+01  0.41443067267E+02  0.00000000000E+00 0. -1.
</event>
<event>
 7    1  0.2490079E-009  0.1635337E+03  0.7561462E-02  0.1184764E+00
         -1   -1    0    0    0  501 -0.00000000000E+00  0.00000000000E+00  0.98225914443E+02  0.98225914443E+02  0.00000000000E+00 0.  1.
          1   -1    0    0  501    0  0.00000000000E+00 -0.00000000000E+00 -0.36945133372E+03  0.36945133372E+03  0.00000000000E+00 0. -1.
         25    2    1    2    0    0 -0.18900418048E+02 -0.15347519001E+03 -0.17202165198E+03  0.26296512917E+03  0.12508937069E+03 0.  0.
          5    1    3    3  502    0  0.15188662660E+02 -0.82618090049E+02 -0.16337070280E+03  0.18374956656E+03  0.41800000000E+01 0.  1.
         -5    1    3    3    0  502 -0.34089080709E+02 -0.70857099963E+02 -0.86509491766E+01  0.79215562615E+02  0.41800000000E+01 0.  1.
        -11    1    1    2    0    0  0.18866618921E+02  0.11193393975E+02 -0.49251975589E+02  0.53916588149E+02  0.00000000000E+00 0. -1.
         11    1    1    2    0    0  0.33799127355E-01  0.14228179604E+03 -0.49951791706E+02  0.15079553084E+03  0.00000000000E+00 0.  1.
</event>
<event>
 7    1  0.2490079E-009  0.1710180E+03  0.7561462E-02  0.1176790E+00
          1   -1    0    0  501    0  0.00000000000E+00  0.00000000000E+00  0.35324953507E+03  0.35324953507E+03  0.00000000000E+00 0. -1.
         -1   -1    0    0    0  501 -0.00000000000E+00 -0.00000000000E+00 -0.10016804010E+03  0.10016804010E+03  0.00000000000E+00 0.  1.
         25    2    1    2    0    0 -0.56975318418E+02  0.13507787634E+03  0.18738191944E+03  0.26879765470E+03  0.12509186965E+03 0.  0.
          5    1    3    3  502    0 -0.28261393998E+02 -0.42677847169E+01 -0.51747218649E+01  0.29345707071E+02  0.41800000000E+01 0.  1.
         -5    1    3    3    0  502 -0.28713924419E+02  0.13934566106E+03  0.19255664131E+03  0.23945194763E+03  0.41800000000E+01 0.  1.
        -11    1    1    2    0    0  0.56178241023E+02 -0.14777503696E+03  0.53251428693E+02  0.16682077499E+03  0.00000000000E+00 0.  1.
         11    1    1    2    0    0  0.79707739439E+00  0.12697160616E+02  0.12448146838E+02  0.17799145479E+02  0.00000000000E+00 0. -1.
</event>
<event>
 7    1  0.2490079E-009  0.9029461E+02  0.7561462E-02  0.1302140E+00
         -2   -1    0    0    0  501 -0.00000000000E+00  0.00000000000E+00  0.50787763493E+03  0.50787763493E+03  0.00000000000E+00 0.  1.
          2   -1    0    0  501    0  0.00000000000E+00 -0.00000000000E+00 -0.23214570684E+02  0.23214570684E+02  0.00000000000E+00 0. -1.
         25    2    1    2    0    0 -0.27418815903E+01 -0.63615218897E+01  0.27663009194E+03  0.30368112918E+03  0.12510009424E+03 0.  0.
          5    1    3    3  502    0  0.39370262100E+02  0.31877600112E+02  0.20956914816E+03  0.21564530876E+03  0.41800000000E+01 0.  1.
         -5    1    3    3    0  502 -0.42112143690E+02 -0.38239122002E+02  0.67060943774E+02  0.88035820423E+02  0.41800000000E+01 0.  1.
        -11    1    1    2    0    0 -0.32770338932E+02 -0.90709334256E+01  0.16916191443E+03  0.17254544399E+03  0.00000000000E+00 0.  1.
         11    1    1    2    0    0  0.35512220522E+02  0.15432455315E+02  0.38871057881E+02  0.54865632451E+02  0.00000000000E+00 0. -1.
</event>
<event>
 7    1  0.2490079E-009  0.1129808E+03  0.7561462E-02  0.1255147E+00
         -1   -1    0    0    0  501 -0.00000000000E+00  0.00000000000E+00  0.74861729045E+02  0.74861729045E+02  0.00000000000E+00 0.  1.
          1   -1    0    0  501    0  0.00000000000E+00 -0.00000000000E+00 -0.30599598467E+03  0.30599598467E+03  0.00000000000E+00 0. -1.
         25    2    1    2    0    0  0.89804165991E+02  0.26871607840E+02 -0.65923962697E+02  0.16964580740E+03  0.12508740773E+03 0.  0.
          5    1    3    3  502    0  0.61697296912E+02  0.24788494381E+02 -0.10313358175E+03  0.12278042997E+03  0.41800000000E+01 0. -1.
         -5    1    3    3    0  502  0.28106869079E+02  0.20831134583E+01  0.37209619053E+02  0.46865377425E+02  0.41800000000E+01 0. -1.
        -11    1    1    2    0    0 -0.25408138347E+02  0.33858570341E+02 -0.43282923819E+02  0.60542446054E+02  0.00000000000E+00 0. -1.
         11    1    1    2    0    0 -0.64396027644E+02 -0.60730178181E+02 -0.12192736911E+03  0.15066946027E+03  0.00000000000E+00 0.  1.
</event>
<event>
 7    1  0.2490079E-009  0.1855935E+03  0.7561462E-02  0.1162497E+00
         -2   -1    0    0    0  501 -0.00000000000E+00  0.00000000000E+00  0.55100575704E+02  0.55100575704E+02  0.00000000000E+00 0. -1.
          2   -1    0    0  501    0  0.00000000000E+00 -0.00000000000E+00 -0.86818645533E+03  0.86818645533E+03  0.00000000000E+00 0.  1.
         25    2    1    2    0    0 -0.14940401743E+03 -0.10602180116E+03 -0.52379869334E+03  0.56883644823E+03  0.12509057099E+03 0.  0.
          5    1    3    3  502    0 -0.54182660757E+02 -0.30088734931E+02 -0.35643609493E+03  0.36180831232E+03  0.41800000000E+01 0.  1.
         -5    1    3    3    0  502 -0.95221356668E+02 -0.75933066225E+02 -0.16736259841E+03  0.20702813591E+03  0.41800000000E+01 0.  1.
        -11    1    1    2    0    0  0.13224989490E+03  0.75735731660E+02 -0.27940898332E+03  0.31826925034E+03  0.00000000000E+00 0.  1.
         11    1    1    2    0    0  0.17154122529E+02  0.30286069496E+02 -0.98782029716E+01  0.36181332469E+02  0.00000000000E+00 0. -1.
</event>
<event>
 7    1  0.2490079E-009  0.1097220E+03  0.7561462E-02  0.1261086E+00
         -2   -1    0    0    0  501 -0.00000000000E+00  0.00000000000E+00  0.71641939338E+02  0.71641939338E+02  0.00000000000E+00 0. -1.
          2   -1    0    0  501    0  0.00000000000E+00 -0.00000000000E+00 -0.31336116120E+03  0.31336116120E+03  0.00000000000E+00 0.  1.
         25    2    1    2    0    0  0.72770051636E+02  0.58708928367E+02 -0.17849156804E+03  0.23716928331E+03  0.12509120832E+03 0.  0.
          5    1    3    3  502    0  0.73810674293E+01  0.21013325794E+02 -0.15693651752E+03  0.15856412882E+03  0.41800000000E+01 0. -1.
         -5    1    3    3    0  502  0.65388984207E+02  0.37695602573E+02 -0.21555050520E+02  0.78605154486E+02  0.41800000000E+01 0. -1.
        -11    1    1    2    0    0 -0.63084446988E+02 -0.14316459618E+01 -0.15680727464E+01  0.63120170422E+02  0.00000000000E+00 0. -1.
         11    1    1    2    0    0 -0.96856046480E+01 -0.57277282405E+02 -0.61659581069E+02  0.84713646803E+02  0.00000000000E+00 0.  1.
</event>
<event>
 7    1  0.2490079E-009  0.1166440E+03  0.7561462E-02  0.1248738E+00
          3   -1    0    0  501    0  0.00000000000E+00  0.00000000000E+00  0.72473557513E+02  0.72473557513E+02  0.00000000000E+00 0. -1.
         -3   -1    0    0    0  501 -0.00000000000E+00 -0.00000000000E+00 -0.29505960909E+03  0.29505960909E+03  0.00000000000E+00 0.  1.
         25    2    1    2    0    0  0.24830609299E+02 -0.94000119226E+02 -0.13472360674E+03  0.20796943369E+03  0.12509297967E+03 0.  0.
          5    1    3    3  502    0  0.28673643884E+02 -0.35660612757E+02 -0.14167823489E+03  0.14894311597E+03  0.41800000000E+01 0.  1.
         -5    1    3    3    0  502 -0.38430345853E+01 -0.58339506469E+02  0.69546281477E+01  0.59026317711E+02  0.41800000000E+01 0.  1.
        -11    1    1    2    0    0 -0.55009914188E+02  0.75182170180E+02 -0.80771212490E+02  0.12329816762E+03  0.00000000000E+00 0.  1.
         11    1    1    2    0    0  0.30179304890E+02  0.18817949046E+02 -0.70912323494E+01  0.36265565295E+02  0.00000000000E+00 0. -1.
</event>
<event>
 7    1  0.2490079E-009  0.1025625E+03  0.7561462E-02  0.1274998E+00
         -2   -1    0    0    0  501 -0.00000000000E+00  0.00000000000E+00  0.42979798912E+02  0.42979798912E+02  0.00000000000E+00 0.  1.
          2   -1    0    0  501    0  0.00000000000E+00 -0.00000000000E+00 -0.33266937924E+03  0.33266937924E+03  0.00000000000E+00 0. -1.
         25    2    1    2    0    0  0.39359777294E+02  0.24580714958E+00 -0.11759113918E+03  0.17613839711E+03  0.12509119247E+03 0.  0.
          5    1    3    3  502    0 -0.55985025070E+01 -0.56732739845E+02 -0.64067649511E+02  0.85860835743E+02  0.41800000000E+01 0. -1.
         -5    1    3    3    0  502  0.44958279801E+02  0.56978546994E+02 -0.53523489674E+02  0.90277561371E+02  0.41800000000E+01 0. -1.
        -11    1    1    2    0    0 -0.17994888791E+00 -0.27523161285E+02 -0.13831344135E+03  0.14102540497E+03  0.00000000000E+00 0. -1.
         11    1    1    2    0    0 -0.39179828406E+02  0.27277354136E+02 -0.33784999788E+02  0.58485376063E+02  0.00000000000E+00 0.  1.
</event>
<event>
 7    1  0.2490079E-009  0.1676103E+03  0.7561462E-02  0.1180363E+00
         -3   -1    0    0    0  501 -0.00000000000E+00  0.00000000000E+00  0.88655613296E+02  0.88655613296E+02  0.00000000000E+00 0.  1.
          3   -1    0    0  501    0  0.00000000000E+00 -0.00000000000E+00 -0.43192115289E+03  0.43192115289E+03  0.00000000000E+00 0. -1.
         25    2    1    2    0    0  0.26496721036E+02 -0.13639513860E+03 -0.67710929922E+02  0.19884183603E+03  0.12509035001E+03 0.  0.
          5    1    3    3  502    0  0.75049286047E+02 -0.59456742850E+02 -0.32501534660E+02  0.10119941582E+03  0.41800000000E+01 0. -1.
         -5    1    3    3    0  502 -0.48552565012E+02 -0.76938395751E+02 -0.35209395262E+02  0.97642420211E+02  0.41800000000E+01 0. -1.
        -11    1    1    2    0    0  0.73824505062E+01  0.92819824123E+02 -0.95375777508E+02  0.13329125726E+03  0.00000000000E+00 0.  1.
         11    1    1    2    0    0 -0.33879171542E+02  0.43575314477E+02 -0.18017883217E+03  0.18844367290E+03  0.00000000000E+00 0. -1.
</event>
<event>
 7    1  0.2490079E-009  0.9153746E+02  0.7561462E-02  0.1299171E+00
          2   -1    0    0  501    0  0.00000000000E+00  0.00000000000E+00  0.12007260738E+03  0.12007260738E+03  0.00000000000E+00 0. -1.
         -2   -1    0    0    0  501 -0.00000000000E+00 -0.00000000000E+00 -0.11606491814E+03  0.11606491814E+03  0.00000000000E+00 0.  1.
         25    2    1    2    0    0  0.90278979749E+01  0.40937445625E+02  0.23416779879E+02  0.13399027133E+03  0.12509064647E+03 0.  0.
          5    1    3    3  502    0  0.38327264705E+02  0.45666643512E+02 -0.34333933113E+02  0.68925415576E+02  0.41800000000E+01 0. -1.
         -5    1    3    3    0  502 -0.29299366730E+02 -0.47291978867E+01  0.57750712991E+02  0.65064855755E+02  0.41800000000E+01 0. -1.
        -11    1    1    2    0    0  0.34814571187E+02 -0.34521897522E+02  0.85295101184E+01  0.49765131551E+02  0.00000000000E+00 0.  1.
         11    1    1    2    0    0 -0.43842469162E+02 -0.64155481029E+01 -0.27938600754E+02  0.52382122635E+02  0.00000000000E+00 0. -1.
</event>
<event>
 7    1  0.2490079E-009  0.1098033E+03  0.7561462E-02  0.1260935E+00
         -3   -1    0    0    0  501 -0.00000000000E+00  0.00000000000E+00  0.18632163879E+02  0.18632163879E+02  0.00000000000E+00 0.  1.
          3   -1    0    0  501    0  0.00000000000E+00 -0.00000000000E+00 -0.70678612206E+03  0.70678612206E+03  0.00000000000E+00 0. -1.
         25    2    1    2    0    0 -0.31077953220E+02  0.11147059257E+00 -0.46019839666E+03  0.47790895372E+03  0.12509417316E+03 0.  0.
          5    1    3    3  502    0  0.37581778025E+02 -0.30307910787E+02 -0.25014686114E+03  0.25479773161E+03  0.41800000000E+01 0. -1.
         -5    1    3    3    0  502 -0.68659731245E+02  0.30419381380E+02 -0.21005153552E+03  0.22311122211E+03  0.41800000000E+01 0. -1.
        -11    1    1    2    0    0 -0.17539889148E+02 -0.32905871064E+02 -0.76728334188E+02  0.85309327327E+02  0.00000000000E+00 0.  1.
         11    1    1    2    0    0  0.48617842369E+02  0.32794400471E+02 -0.15122722733E+03  0.16220000489E+03  0.00000000000E+00 0. -1.
</event>
<event>
 7    1  0.2490079E-009  0.1434527E+03  0.7561462E-02  0.1208757E+00
          1   -1    0    0  501    0  0.00000000000E+00  0.00000000000E+00  0.17194616210E+03  0.17194616210E+03  0.00000000000E+00 0. -1.
         -1   -1    0    0    0  501 -0.00000000000E+00 -0.00000000000E+00 -0.13067983893E+03  0.13067983893E+03  0.00000000000E+00 0.  1.
         25    2    1    2    0    0  0.23229855975E+02 -0.93276346401E+02 -0.16496506312E+02  0.15861840159E+03  0.12509020584E+03 0.  0.
          5    1    3    3  502    0  0.38905200692E+02  0.18612277462E+02  0.47192134048E+01  0.43586407151E+02  0.41800000000E+01 0. -1.
         -5    1    3    3    0  502 -0.15675344716E+02 -0.11188862386E+03 -0.21215719717E+02  0.11503199444E+03  0.41800000000E+01 0. -1.
        -11    1    1    2    0    0  0.26513967057E+02  0.20296552911E+01  0.36573773038E+01  0.26841876955E+02  0.00000000000E+00 0.  1.
         11    1    1    2    0    0 -0.49743823033E+02  0.91246691110E+02  0.54105452187E+02  0.11716572248E+03  0.00000000000E+00 0. -1.
</event>
<event>
 7    1  0.2490079E-009  0.1141235E+03  0.7561462E-02  0.1253119E+00
          2   -1    0    0  501    0  0.00000000000E+00  0.00000000000E+00  0.54017774583E+03  0.54017774583E+03  0.00000000000E+00 0. -1.
         -2   -1    0    0    0  501 -0.00000000000E+00 -0.00000000000E+00 -0.32950747167E+02  0.32950747167E+02  0.00000000000E+00 0.  1.
         25    2    1    2    0    0 -0.31420106664E+02 -0.65652995617E+02  0.24891377455E+03  0.28792904404E+03  0.12509008077E+03 0.  0.
          5    1    3    3  502    0  0.10164461653E+02 -0.92898782831E+02  0.14340260320E+03  0.17121705270E+03  0.41800000000E+01 0. -1.
         -5    1    3    3    0  502 -0.41584568317E+02  0.27245787214E+02  0.10551117135E+03  0.11671199134E+03  0.41800000000E+01 0. -1.
        -11    1    1    2    0    0  0.30416373606E+02  0.14585982962E+02  0.15591578756E+02  0.37161862311E+02  0.00000000000E+00 0.  1.
         11    1    1    2    0    0  0.10037330573E+01  0.51067012655E+02  0.24272164536E+03  0.24803758664E+03  0.00000000000E+00 0. -1.
</event>
<event>
 7    1  0.2490079E-009  0.1195236E+03  0.7561462E-02  0.1243885E+00
         -1   -1    0    0    0  501 -0.00000000000E+00  0.00000000000E+00  0.19616524027E+02  0.19616524027E+02  0.00000000000E+00 0.  1.
          1   -1    0    0  501    0  0.00000000000E+00 -0.00000000000E+00 -0.15039658607E+04  0.15039658607E+04  0.00000000000E+00 0. -1.
         25    2    1    2    0    0  0.11793505806E+03  0.12673148942E+02 -0.10561602785E+04  0.10701358801E+04  0.12508789421E+03 0.  0.
          5    1    3    3  502    0  0.64305378683E+02  0.49145156811E+01 -0.93631661193E+03  0.93854440724E+03  0.41800000000E+01 0.  1.
         -5    1    3    3    0  502  0.53629679378E+02  0.77586332609E+01 -0.11984366658E+03  0.13159147282E+03  0.41800000000E+01 0.  1.
        -11    1    1    2    0    0 -0.91679788248E+01 -0.62851153183E+01  0.50153196973E+00  0.11126816463E+02  0.00000000000E+00 0.  1.
         11    1    1    2    0    0 -0.10876707924E+03 -0.63880336237E+01 -0.42869059016E+03  0.44231968823E+03  0.00000000000E+00 0. -1.
</event>
<event>
 7    1  0.2490079E-009  0.1292197E+03  0.7561462E-02  0.1228618E+00
          1   -1    0    0  501    0  0.00000000000E+00  0.00000000000E+00  0.21375410562E+03  0.21375410562E+03  0.00000000000E+00 0. -1.
         -1   -1    0    0    0  501 -0.00000000000E+00 -0.00000000000E+00 -0.14963571841E+03  0.14963571841E+03  0.00000000000E+00 0.  1.
         25    2    1    2    0    0  0.18826134172E+02  0.10230270437E+03  0.13220679825E+03  0.20963349401E+03  0.12508915884E+03 0.  0.
          5    1    3    3  502    0 -0.31716580242E+02  0.97102840053E+02  0.11916292102E+03  0.15701011800E+03  0.41800000000E+01 0.  1.
         -5    1    3    3    0  502  0.50542714414E+02  0.51998643149E+01  0.13043877225E+02  0.52623376006E+02  0.41800000000E+01 0.  1.
        -11    1    1    2    0    0  0.28911414511E+01 -0.11532307531E+02 -0.58769476131E+02  0.59960021186E+02  0.00000000000E+00 0.  1.
         11    1    1    2    0    0 -0.21717275623E+02 -0.90770396836E+02 -0.93189349075E+01  0.93796308830E+02  0.00000000000E+00 0. -1.
</event>
<event>
 7    1  0.2490079E-009  0.1309535E+03  0.7561462E-02  0.1226048E+00
          2   -1    0    0  501    0  0.00000000000E+00  0.00000000000E+00  0.47299195635E+03  0.47299195635E+03  0.00000000000E+00 0. -1.
         -2   -1    0    0    0  501 -0.00000000000E+00 -0.00000000000E+00 -0.40472224557E+02  0.40472224557E+02  0.00000000000E+00 0.  1.
         25    2    1    2    0    0  0.28780588055E+02 -0.78366263901E+02  0.26416257082E+03  0.30397616554E+03  0.12510016718E+03 0.  0.
          5    1    3    3  502    0  0.68557357662E+02 -0.69259835766E+02  0.23258248181E+03  0.25220848397E+03  0.41800000000E+01 0.  1.
         -5    1    3    3    0  502 -0.39776769606E+02 -0.91064281351E+01  0.31580089008E+02  0.51767681573E+02  0.41800000000E+01 0.  1.
        -11    1    1    2    0    0 -0.61963171143E+02  0.48245702610E+02  0.12133324366E+03  0.14452971465E+03  0.00000000000E+00 0. -1.
         11    1    1    2    0    0  0.33182583087E+02  0.30120561292E+02  0.47023917311E+02  0.64958300718E+02  0.00000000000E+00 0.  1.
</event>
<event>
 7    1  0.2490079E-009  0.1736582E+03  0.7561462E-02  0.1174086E+00
         -1   -1    0    0    0  501 -0.00000000000E+00  0.00000000000E+00  0.67296884778E+03  0.67296884778E+03  0.00000000000E+00 0. -1.
          1   -1    0    0  501    0  0.00000000000E+00 -0.00000000000E+00 -0.62251040487E+02  0.62251040487E+02  0.00000000000E+00 0.  1.
         25    2    1    2    0    0  0.48361427467E+02 -0.16660399639E+03  0.32143585531E+03  0.38608882502E+03  0.12509137639E+03 0.  0.
          5    1    3    3  502    0  0.19217032888E+02 -0.59041990751E+02  0.24016914485E+03  0.24810066821E+03  0.41800000000E+01 0.  1.
         -5    1    3    3    0  502  0.29144394580E+02 -0.10756200564E+03  0.81266710457E+02  0.13798815682E+03  0.41800000000E+01 0.  1.
        -11    1    1    2    0    0 -0.10652250654E+02  0.29219803527E+02  0.54828037579E+01  0.31580508216E+02  0.00000000000E+00 0.  1.
         11    1    1    2    0    0 -0.37709176814E+02  0.13738419287E+03  0.28379914823E+03  0.31755055503E+03  0.00000000000E+00 0. -1.
</event>
<event>
 7    1  0.2490079E-009  0.9329026E+02  0.7561462E-02  0.1295074E+00
         -3   -1    0    0    0  501 -0.00000000000E+00  0.00000000000E+00  0.20734822677E+03  0.20734822677E+03  0.00000000000E+00 0.  1.
          3   -1    0    0  501    0  0.00000000000E+00 -0.00000000000E+00 -0.15356325134E+03  0.15356325134E+03  0.00000000000E+00 0. -1.
         25    2    1    2    0    0  0.50584705790E+02  0.16446453416E+02 -0.10469971311E+03  0.17158145431E+03  0.12509543256E+03 0.  0.
          5    1    3    3  502    0  0.34764694483E+02  0.45556711780E+02 -0.12135076512E+03  0.13426644617E+03  0.41800000000E+01 0.  1.
         -5    1    3    3    0  502  0.15820011307E+02 -0.29110258364E+02  0.16651052009E+02  0.37315008144E+02  0.41800000000E+01 0.  1.
        -11    1    1    2    0    0 -0.41976658428E+02 -0.47566350532E+02  0.66791134900E+02  0.92117605576E+02  0.00000000000E+00 0. -1.
         11    1    1    2    0    0 -0.86080473619E+01  0.31119897116E+02  0.91693553650E+02  0.97212418224E+02  0.00000000000E+00 0.  1.
</event>
<event>
 7    1  0.2490079E-009  0.7612628E+02  0.7561462E-02  0.1340418E+00
          1   -1    0    0  501    0  0.00000000000E+00  0.00000000000E+00  0.87396919914E+03  0.87396919914E+03  0.00000000000E+00 0. -1.
         -1   -1    0    0    0  501 -0.00000000000E+00 -0.00000000000E+00 -0.18438266560E+02  0.18438266560E+02  0.00000000000E+00 0.  1.
         25    2    1    2    0    0  0.41481918897E+02  0.69684780548E+01  0.60678077083E+03  0.62096654043E+03  0.12508889321E+03 0.  0.
          5    1    3    3  502    0  0.44671178032E+02  0.31975814639E+02  0.58441776611E+03  0.58700899875E+03  0.41800000000E+01 0.  1.
         -5    1    3    3    0  502 -0.31892591346E+01 -0.25007336584E+02  0.22363004716E+02  0.33957541678E+02  0.41800000000E+01 0.  1.
        -11    1    1    2    0    0 -0.56027135825E+02 -0.95380667931E+01  0.25022403844E+03  0.25659712406E+03  0.00000000000E+00 0. -1.
         11    1    1    2    0    0  0.14545216928E+02  0.25695887382E+01 -0.14738766845E+01  0.14843801206E+02  0.00000000000E+00 0.  1.
</event>
<event>
 7    1  0.2794915E-009  0.1463451E+03  0.7561462E-02  0.1205037E+00
         -1   -1    0    0    0  501 -0.00000000000E+00  0.00000000000E+00  0.45226947502E+02  0.45226947502E+02  0.00000000000E+00 0.  1.
          1   -1    0    0  501    0  0.00000000000E+00 -0.00000000000E+00 -0.58726438050E+03  0.58726438050E+03  0.00000000000E+00 0. -1.
         25    2    1    2    0    0 -0.51872711509E+02 -0.10912348232E+03 -0.27136191121E+03  0.32230971716E+03  0.12509018477E+03 0.  0.
          5    1    3    3  502    0  0.23652198227E+02 -0.80783283300E+02 -0.87501074344E+02  0.12148775968E+03  0.41800000000E+01 0.  1.
         -5    1    3    3    0  502 -0.75524909736E+02 -0.28340199019E+02 -0.18386083687E+03  0.20082195748E+03  0.41800000000E+01 0.  1.
        -11    1    1    2    0    0  0.27632046179E+02  0.17148244097E+02 -0.12154036982E+02  0.34717616085E+02  0.00000000000E+00 0.  1.
         11    1    1    2    0    0  0.24240665330E+02  0.91975238222E+02 -0.25852148480E+03  0.27546399475E+03  0.00000000000E+00 0. -1.
</event>
<event>
 7    1  0.2490079E-009  0.1763949E+03  0.7561462E-02  0.1171338E+00
          1   -1    0    0  501    0  0.00000000000E+00  0.00000000000E+00  0.61086071017E+02  0.61086071017E+02  0.00000000000E+00 0. -1.
         -1   -1    0    0    0  501 -0.00000000000E+00 -0.00000000000E+00 -0.59144373030E+03  0.59144373030E+03  0.00000000000E+00 0.  1.
         25    2    1    2    0    0  0.95449092593E+02 -0.11921158147E+03 -0.32841244205E+03  0.38317551903E+03  0.12508723299E+03 0.  0.
          5    1    3    3  502    0  0.70949040182E+02  0.44730622924E+01 -0.11503369054E+03  0.13529226492E+03  0.41800000000E+01 0.  1.
         -5    1    3    3    0  502  0.24500052411E+02 -0.12368464376E+03 -0.21337875151E+03  0.24788325411E+03  0.41800000000E+01 0.  1.
        -11    1    1    2    0    0 -0.54691704677E+01  0.23195912486E+02 -0.10026550807E+03  0.10305888748E+03  0.00000000000E+00 0.  1.
         11    1    1    2    0    0 -0.89979922125E+02  0.96015668984E+02 -0.10167970917E+03  0.16629539480E+03  0.00000000000E+00 0. -1.
</event>
<event>
 7    1  0.4673506E-009  0.1305134E+03  0.7561462E-02  0.1226696E+00
          2   -1    0    0  501    0  0.00000000000E+00  0.00000000000E+00  0.10190896600E+04  0.10190896600E+04  0.00000000000E+00 0. -1.
         -2   -1    0    0    0  501 -0.00000000000E+00 -0.00000000000E+00 -0.25659415643E+02  0.25659415643E+02  0.00000000000E+00 0.  1.
         25    2    1    2    0    0  0.88642062376E+02  0.71757295739E+02  0.41514639647E+03  0.44832896579E+03  0.12508319772E+03 0.  0.
          5    1    3    3  502    0  0.80867314716E+02  0.58677158772E+02  0.42006204801E+03  0.43180102840E+03  0.41800000000E+01 0. -1.
         -5    1    3    3    0  502  0.77747476599E+01  0.13080136966E+02 -0.49156515420E+01  0.16527937389E+02  0.41800000000E+01 0. -1.
        -11    1    1    2    0    0 -0.30015415569E+02 -0.80553531061E+02  0.31276010849E+03  0.32435887841E+03  0.00000000000E+00 0. -1.
         11    1    1    2    0    0 -0.58626646806E+02  0.87962353217E+01  0.26552373941E+03  0.27206123145E+03  0.00000000000E+00 0.  1.
</event>
<event>
 7    1  0.2490079E-009  0.1085534E+03  0.7561462E-02  0.1263272E+00
         -1   -1    0    0    0  501 -0.00000000000E+00  0.00000000000E+00  0.37371031558E+03  0.37371031558E+03  0.00000000000E+00 0.  1.
          1   -1    0    0  501    0  0.00000000000E+00 -0.00000000000E+00 -0.63529109367E+02  0.63529109367E+02  0.00000000000E+00 0. -1.
         25    2    1    2    0    0  0.76181200339E+01  0.29043426721E+02  0.31021209471E+03  0.33582577879E+03  0.12508338663E+03 0.  0.
          5    1    3    3  502    0  0.41527650919E+02  0.63988105154E+02  0.22471306476E+03  0.23734459603E+03  0.41800000000E+01 0.  1.
         -5    1    3    3    0  502 -0.33909530885E+02 -0.34944678434E+02  0.85499029950E+02  0.98481182761E+02  0.41800000000E+01 0.  1.
        -11    1    1    2    0    0 -0.32477621519E+02  0.19083784201E+02  0.21209136045E+02  0.43229783376E+02  0.00000000000E+00 0.  1.
         11    1    1    2    0    0  0.24859501485E+02 -0.48127210921E+02 -0.21240024542E+02  0.58183862777E+02  0.00000000000E+00 0. -1.
</event>
<event>
 7    1  0.2490079E-009  0.1555242E+03  0.7561462E-02  0.1193845E+00
          1   -1    0    0  501    0  0.00000000000E+00  0.00000000000E+00  0.35452304558E+03  0.35452304558E+03  0.00000000000E+00 0. -1.
         -1   -1    0    0    0  501 -0.00000000000E+00 -0.00000000000E+00 -0.79136566923E+02  0.79136566923E+02  0.00000000000E+00 0.  1.
         25    2    1    2    0    0  0.10171729970E+03  0.49274344399E+02  0.22192799416E+03  0.27870010661E+03  0.12508934711E+03 0.  0.
          5    1    3    3  502    0  0.12855706909E+03  0.52825651093E+02  0.16692812906E+03  0.21725547657E+03  0.41800000000E+01 0. -1.
         -5    1    3    3    0  502 -0.26839769393E+02 -0.35513066940E+01  0.54999865105E+02  0.61444630049E+02  0.41800000000E+01 0. -1.
        -11    1    1    2    0    0 -0.76197077254E+02 -0.76021621360E+02  0.46919070790E+02  0.11741669685E+03  0.00000000000E+00 0.  1.
         11    1    1    2    0    0 -0.25520222447E+02  0.26747276960E+02  0.65394137035E+01  0.37542809033E+02  0.00000000000E+00 0. -1.
</event>
<event>
 7    1  0.2490079E-009  0.9478681E+02  0.7561462E-02  0.1291657E+00
         -2   -1    0    0    0  501 -0.00000000000E+00  0.00000000000E+00  0.35765449871E+02  0.35765449871E+02  0.00000000000E+00 0.  1.
          2   -1    0    0  501    0  0.00000000000E+00 -0.00000000000E+00 -0.53416111333E+03  0.53416111333E+03  0.00000000000E+00 0. -1.
         25    2    1    2    0    0  0.49409643118E+02 -0.57215404655E+02 -0.19718777138E+03  0.24544747131E+03  0.12508608486E+03 0.  0.
          5    1    3    3  502    0 -0.10210773032E+02  0.13142424053E+01 -0.14797672095E+03  0.14839329318E+03  0.41800000000E+01 0. -1.
         -5    1    3    3    0  502  0.59620416150E+02 -0.58529647060E+02 -0.49211050436E+02  0.97054178126E+02  0.41800000000E+01 0. -1.
        -11    1    1    2    0    0 -0.47067431378E+02  0.10742578960E+02 -0.25266541487E+03  0.25723638540E+03  0.00000000000E+00 0. -1.
         11    1    1    2    0    0 -0.23422117398E+01  0.46472825695E+02 -0.48542477206E+02  0.67242706498E+02  0.00000000000E+00 0.  1.
</event>
<event>
 7    1  0.2490079E-009  0.1029007E+03  0.7561462E-02  0.1274312E+00
          2   -1    0    0  501    0  0.00000000000E+00  0.00000000000E+00  0.89625377103E+03  0.89625377103E+03  0.00000000000E+00 0. -1.
         -2   -1    0    0    0  501 -0.00000000000E+00 -0.00000000000E+00 -0.18306726189E+02  0.18306726189E+02  0.00000000000E+00 0.  1.
         25    2    1    2    0    0  0.35289783626E+02  0.57983749881E+02  0.50753940037E+03  0.52711656498E+03  0.12509255005E+03 0.  0.
          5    1    3    3  502    0  0.69777692049E+02  0.29189537409E+02  0.16428071005E+03  0.18090489074E+03  0.41800000000E+01 0. -1.
         -5    1    3    3    0  502 -0.34487908423E+02  0.28794212472E+02  0.34325869032E+03  0.34621167424E+03  0.41800000000E+01 0. -1.
        -11    1    1    2    0    0  0.13354333989E+02 -0.11064850256E+02  0.85624691378E+01  0.19341277756E+02  0.00000000000E+00 0.  1.
         11    1    1    2    0    0 -0.48644117615E+02 -0.46918899625E+02  0.36184517534E+03  0.36810265448E+03  0.00000000000E+00 0. -1.
</event>
<event>
 7    1  0.2490079E-009  0.1155247E+03  0.7561462E-02  0.1250668E+00
          1   -1    0    0  501    0  0.00000000000E+00  0.00000000000E+00  0.96964242772E+02  0.96964242772E+02  0.00000000000E+00 0. -1.
         -1   -1    0    0    0  501 -0.00000000000E+00 -0.00000000000E+00 -0.15554086074E+03  0.15554086074E+03  0.00000000000E+00 0.  1.
         25    2    1    2    0    0  0.19542980915E+02  0.35940311942E+02 -0.74842636888E+02  0.15140336653E+03  0.12509166629E+03 0.  0.
          5    1    3    3  502    0  0.24899225489E+02 -0.44350308665E+02 -0.29235959932E+02  0.58814412024E+02  0.41800000000E+01 0. -1.
         -5    1    3    3    0  502 -0.53562445738E+01  0.80290620607E+02 -0.45606676956E+02  0.92588954505E+02  0.41800000000E+01 0. -1.
        -11    1    1    2    0    0 -0.73743177308E+01 -0.66311531022E+02  0.14849327459E+02  0.68352777811E+02  0.00000000000E+00 0.  1.
         11    1    1    2    0    0 -0.12168663184E+02  0.30371219080E+02  0.14166914608E+01  0.32748959171E+02  0.00000000000E+00 0. -1.
</event>
<event>
 7    1  0.2490079E-009  0.7009587E+02  0.7561462E-02  0.1359767E+00
         -1   -1    0    0    0  501 -0.00000000000E+00  0.00000000000E+00  0.11783891602E+02  0.11783891602E+02  0.00000000000E+00 0.  1.
          1   -1    0    0  501    0  0.00000000000E+00 -0.00000000000E+00 -0.11819520295E+04  0.11819520295E+04  0.00000000000E+00 0. -1.
         25    2    1    2    0    0  0.40450359431E+01  0.26779781177E+02 -0.85775584810E+03  0.86725178873E+03  0.12508817339E+03 0.  0.
          5    1    3    3  502    0 -0.13084759386E+02  0.25001468554E+02 -0.84484306605E+03  0.84532453117E+03  0.41800000000E+01 0. -1.
         -5    1    3    3    0  502  0.17129795329E+02  0.17783126235E+01 -0.12912782051E+02  0.21927257560E+02  0.41800000000E+01 0. -1.
        -11    1    1    2    0    0 -0.39893529666E+02  0.11480786402E+02 -0.11641223786E+03  0.12359252117E+03  0.00000000000E+00 0. -1.
         11    1    1    2    0    0  0.35848493722E+02 -0.38260567579E+02 -0.19600005196E+03  0.20289161122E+03  0.00000000000E+00 0.  1.
</event>
<event>
 7    1  0.2720174E-009  0.1101268E+03  0.7561462E-02  0.1260335E+00
         -1   -1    0    0    0  501 -0.00000000000E+00  0.00000000000E+00  0.21809117792E+02  0.21809117792E+02  0.00000000000E+00 0.  1.
          1   -1    0    0  501    0  0.00000000000E+00 -0.00000000000E+00 -0.69273189757E+03  0.69273189757E+03  0.00000000000E+00 0. -1.
         25    2    1    2    0    0 -0.37505906185E+02  0.67491425930E+01 -0.24770805228E+03  0.28010630073E+03  0.12509203260E+03 0.  0.
          5    1    3    3  502    0  0.44222691453E+02 -0.13195672184E+02 -0.95407503199E+02  0.10606524535E+03  0.41800000000E+01 0. -1.
         -5    1    3    3    0  502 -0.81728597638E+02  0.19944814777E+02 -0.15230054908E+03  0.17404105538E+03  0.41800000000E+01 0. -1.
        -11    1    1    2    0    0 -0.18724388876E+02 -0.24392980479E+02 -0.71731717259E+02  0.78045240062E+02  0.00000000000E+00 0.  1.
         11    1    1    2    0    0  0.56230295061E+02  0.17643837886E+02 -0.35148301024E+03  0.35638947457E+03  0.00000000000E+00 0. -1.
</event>
<event>
 7    1  0.2490079E-009  0.9418205E+02  0.7561462E-02  0.1293029E+00
          1   -1    0    0  501    0  0.00000000000E+00  0.00000000000E+00  0.23397366273E+02  0.23397366273E+02  0.00000000000E+00 0. -1.
         -1   -1    0    0    0  501 -0.00000000000E+00 -0.00000000000E+00 -0.58745002230E+03  0.58745002230E+03  0.00000000000E+00 0.  1.
         25    2    1    2    0    0  0.14610856848E+02 -0.41207199576E+02 -0.31933418321E+03  0.34573624605E+03  0.12509085032E+03 0.  0.
          5    1    3    3  502    0 -0.14846210050E+02  0.22449043289E+02 -0.23223842718E+03  0.23383012842E+03  0.41800000000E+01 0.  1.
         -5    1    3    3    0  502  0.29457066898E+02 -0.63656242865E+02 -0.87095756032E+02  0.11190611764E+03  0.41800000000E+01 0.  1.
        -11    1    1    2    0    0 -0.12911804147E+02  0.65372995651E+02 -0.22241333879E+03  0.23218104254E+03  0.00000000000E+00 0.  1.
         11    1    1    2    0    0 -0.16990527017E+01 -0.24165796075E+02 -0.22305134026E+02  0.32930099969E+02  0.00000000000E+00 0. -1.
</event>
<event>
 7    1  0.2490079E-009  0.1124894E+03  0.7561462E-02  0.1256028E+00
         -1   -1    0    0    0  501 -0.00000000000E+00  0.00000000000E+00  0.11389099960E+02  0.11389099960E+02  0.00000000000E+00 0.  1.
          1   -1    0    0  501    0  0.00000000000E+00 -0.00000000000E+00 -0.11795693753E+04  0.11795693753E+04  0.00000000000E+00 0. -1.
         25    2    1    2    0    0 -0.35164984123E+02 -0.13226304271E+02 -0.78293481654E+03  0.79375314233E+03  0.12508242394E+03 0.  0.
          5    1    3    3  502    0 -0.30678865086E+02 -0.67970197918E+02 -0.40577986062E+03  0.41259654416E+03  0.41800000000E+01 0. -1.
         -5    1    3    3    0  502 -0.44861190371E+01  0.54743893647E+02 -0.37715495592E+03  0.38115659818E+03  0.41800000000E+01 0. -1.
        -11    1    1    2    0    0 -0.22467335386E+01  0.45644099930E+02 -0.14996330622E+03  0.15677188805E+03  0.00000000000E+00 0. -1.
         11    1    1    2    0    0  0.37411717661E+02 -0.32417795659E+02 -0.23528215259E+03  0.24043344489E+03  0.00000000000E+00 0.  1.
</event>
<event>
 7    1  0.2490079E-009  0.1087388E+03  0.7561462E-02  0.1262923E+00
          3   -1    0    0  501    0  0.00000000000E+00  0.00000000000E+00  0.55202240879E+02  0.55202240879E+02  0.00000000000E+00 0.  1.
         -3   -1    0    0    0  501 -0.00000000000E+00 -0.00000000000E+00 -0.32072491280E+03  0.32072491280E+03  0.00000000000E+00 0. -1.
         25    2    1    2    0    0 -0.70042348066E+02 -0.28008823272E+02 -0.19852043677E+03  0.24647510695E+03  0.12509672188E+03 0.  0.
          5    1    3    3  502    0  0.21575235030E+02  0.10030314661E+02 -0.11262978795E+03  0.11519131700E+03  0.41800000000E+01 0. -1.
         -5    1    3    3    0  502 -0.91617583096E+02 -0.38039137933E+02 -0.85890648823E+02  0.13128378994E+03  0.41800000000E+01 0. -1.
        -11    1    1    2    0    0  0.58828923293E+02  0.44727253387E+02 -0.77213294422E+02  0.10687966246E+03  0.00000000000E+00 0. -1.
         11    1    1    2    0    0  0.11213424773E+02 -0.16718430114E+02  0.10211059271E+02  0.22572384279E+02  0.00000000000E+00 0.  1.
</event>
<event>
 7    1  0.2490079E-009  0.1947070E+03  0.7561462E-02  0.1154283E+00
         -2   -1    0    0    0  501 -0.00000000000E+00  0.00000000000E+00  0.18460327406E+03  0.18460327406E+03  0.00000000000E+00 0.  1.
          2   -1    0    0  501    0  0.00000000000E+00 -0.00000000000E+00 -0.27857947472E+03  0.27857947472E+03  0.00000000000E+00 0. -1.
         25    2    1    2    0    0 -0.13037128884E+03 -0.94487191580E+02  0.69561941261E+02  0.21543198237E+03  0.12509025953E+03 0.  0.
          5    1    3    3  502    0 -0.25178556834E+02 -0.95205067085E+02  0.31320014453E+02  0.10342330602E+03  0.41800000000E+01 0. -1.
         -5    1    3    3    0  502 -0.10519273200E+03  0.71787550475E+00  0.38241926808E+02  0.11200867635E+03  0.41800000000E+01 0. -1.
        -11    1    1    2    0    0  0.10685366485E+03  0.21644255040E+02 -0.86732063209E+02  0.13931486014E+03  0.00000000000E+00 0.  1.
         11    1    1    2    0    0  0.23517623990E+02  0.72842936540E+02 -0.76806078712E+02  0.10843590627E+03  0.00000000000E+00 0. -1.
</event>
<event>
 7    1  0.2490079E-009  0.1147943E+03  0.7561462E-02  0.1251941E+00
          2   -1    0    0  501    0  0.00000000000E+00  0.00000000000E+00  0.72098697579E+03  0.72098697579E+03  0.00000000000E+00 0.  1.
         -2   -1    0    0    0  501 -0.00000000000E+00 -0.00000000000E+00 -0.27722079863E+02  0.27722079863E+02  0.00000000000E+00 0. -1.
         25    2    1    2    0    0 -0.66255732593E+02 -0.55457168899E+02  0.31409711297E+03  0.34895354892E+03  0.12508502405E+03 0.  0.
          5    1    3    3  502    0 -0.53798220457E+02  0.17299727615E+01  0.27054586512E+03  0.27588000809E+03  0.41800000000E+01 0. -1.
         -5    1    3    3    0  502 -0.12457512135E+02 -0.57187141660E+02  0.43551247855E+02  0.73073540831E+02  0.41800000000E+01 0. -1.
        -11    1    1    2    0    0  0.60270831567E+02 -0.87171149034E+00  0.27133466799E+03  0.27794933904E+03  0.00000000000E+00 0.  1.
         11    1    1    2    0    0  0.59849010259E+01  0.56328880389E+02  0.10783311497E+03  0.12180616770E+03  0.00000000000E+00 0. -1.
</event>
<event>
 7    1  0.2490079E-009  0.1238334E+03  0.7561462E-02  0.1236904E+00
          2   -1    0    0  501    0  0.00000000000E+00  0.00000000000E+00  0.38413121876E+03  0.38413121876E+03  0.00000000000E+00 0.  1.
         -2   -1    0    0    0  501 -0.00000000000E+00 -0.00000000000E+00 -0.64807909152E+02  0.64807909152E+02  0.00000000000E+00 0. -1.
         25    2    1    2    0    0 -0.52169771090E+02  0.99792944046E+02  0.14850388932E+03  0.22445637637E+03  0.12508774142E+03 0.  0.
          5    1    3    3  502    0 -0.46612764357E+02  0.10566164694E+03  0.16744020971E+03  0.20344736337E+03  0.41800000000E+01 0.  1.
         -5    1    3    3    0  502 -0.55570067328E+01 -0.58687028901E+01 -0.18936320389E+02  0.21009013002E+02  0.41800000000E+01 0.  1.
        -11    1    1    2    0    0  0.59696921802E+02 -0.68694191442E+02  0.16958506445E+03  0.19246222615E+03  0.00000000000E+00 0.  1.
         11    1    1    2    0    0 -0.75271507128E+01 -0.31098752604E+02  0.12343558276E+01  0.32020525381E+02  0.00000000000E+00 0. -1.
</event>
<event>
 7    1  0.2490079E-009  0.1047651E+03  0.7561462E-02  0.1270583E+00
          1   -1    0    0  501    0  0.00000000000E+00  0.00000000000E+00  0.79278630480E+02  0.79278630480E+02  0.00000000000E+00 0.  1.
         -1   -1    0    0    0  501 -0.00000000000E+00 -0.00000000000E+00 -0.24309105685E+03  0.24309105685E+03  0.00000000000E+00 0. -1.
         25    2    1    2    0    0  0.19889282727E+02  0.47721532133E+02 -0.17047220248E+03  0.21767243704E+03  0.12509032670E+03 0.  0.
          5    1    3    3  502    0 -0.31524330917E+02  0.67716461619E+02 -0.12665389037E+03  0.14709854846E+03  0.41800000000E+01 0. -1.
         -5    1    3    3    0  502  0.51413613643E+02 -0.19994929485E+02 -0.43818312106E+02  0.70573888577E+02  0.41800000000E+01 0. -1.
        -11    1    1    2    0    0 -0.20971716423E+02  0.88867782903E+01 -0.29685544316E+02  0.37416831232E+02  0.00000000000E+00 0. -1.
         11    1    1    2    0    0  0.10824336963E+01 -0.56608310424E+02  0.36345320424E+02  0.67280419057E+02  0.00000000000E+00 0.  1.
</event>
<event>
 7    1  0.2490079E-009  0.1932942E+03  0.7561462E-02  0.1155523E+00
         -1   -1    0    0    0  501 -0.00000000000E+00  0.00000000000E+00  0.14873546736E+03  0.14873546736E+03  0.00000000000E+00 0.  1.
          1   -1    0    0  501    0  0.00000000000E+00 -0.00000000000E+00 -0.27360132325E+03  0.27360132325E+03  0.00000000000E+00 0. -1.
         25    2    1    2    0    0 -0.10412952678E+03  0.12555350401E+03 -0.15385356630E+02  0.20613171440E+03  0.12508770430E+03 0.  0.
          5    1    3    3  502    0 -0.23363034435E+02  0.11659994428E+03 -0.31705342591E+02  0.12314251716E+03  0.41800000000E+01 0. -1.
         -5    1    3    3    0  502 -0.80766492342E+02  0.89535597344E+01  0.16319985961E+02  0.82989197243E+02  0.41800000000E+01 0. -1.
        -11    1    1    2    0    0  0.73487612695E+02 -0.19775356553E+02 -0.39742829163E+02  0.85854449018E+02  0.00000000000E+00 0.  1.
         11    1    1    2    0    0  0.30641914083E+02 -0.10577814746E+03 -0.69737670093E+02  0.13035062719E+03  0.00000000000E+00 0. -1.
</event>
<event>
 7    1  0.2490079E-009  0.1115932E+03  0.7561462E-02  0.1257648E+00
         -2   -1    0    0    0  501 -0.00000000000E+00  0.00000000000E+00  0.97283348382E+02  0.97283348382E+02  0.00000000000E+00 0.  1.
          2   -1    0    0  501    0  0.00000000000E+00 -0.00000000000E+00 -0.16987011809E+03  0.16987011809E+03  0.00000000000E+00 0. -1.
         25    2    1    2    0    0 -0.56728862964E+02 -0.13659798578E+02 -0.77859786290E+02  0.15847767441E+03  0.12509305726E+03 0.  0.
          5    1    3    3  502    0 -0.35384067229E+02  0.49803939608E+02 -0.66561762869E+02  0.90445592984E+02  0.41800000000E+01 0. -1.
         -5    1    3    3    0  502 -0.21344795735E+02 -0.63463738186E+02 -0.11298023421E+02  0.68032081423E+02  0.41800000000E+01 0. -1.
        -11    1    1    2    0    0  0.84245394678E+01 -0.29134464495E+02  0.26976664213E+02  0.40589780718E+02  0.00000000000E+00 0.  1.
         11    1    1    2    0    0  0.48304323496E+02  0.42794263073E+02 -0.21703647630E+02  0.68086011345E+02  0.00000000000E+00 0. -1.
</event>
<event>
 7    1  0.2490079E-009  0.2779160E+03  0.7561462E-02  0.1096833E+00
         -2   -1    0    0    0  501 -0.00000000000E+00  0.00000000000E+00  0.18068225395E+04  0.18068225395E+04  0.00000000000E+00 0.  1.
          2   -1    0    0  501    0  0.00000000000E+00 -0.00000000000E+00 -0.45256968424E+02  0.45256968424E+02  0.00000000000E+00 0. -1.
         25    2    1    2    0    0 -0.11523191341E+03 -0.23284293240E+03  0.10611971360E+04  0.10996729164E+04  0.12508771608E+03 0.  0.
          5    1    3    3  502    0 -0.63546012212E+02 -0.22704423689E+03  0.88920011776E+03  0.91993559720E+03  0.41800000000E+01 0. -1.
         -5    1    3    3    0  502 -0.51685901199E+02 -0.57986955073E+01  0.17199701822E+03  0.17973731924E+03  0.41800000000E+01 0. -1.
        -11    1    1    2    0    0  0.67184449640E+02  0.65827873088E+02  0.33259033312E+03  0.34563476219E+03  0.00000000000E+00 0.  1.
         11    1    1    2    0    0  0.48047463772E+02  0.16701505931E+03  0.36777810196E+03  0.40677182928E+03  0.00000000000E+00 0. -1.
</event>
<event>
 7    1  0.2490079E-009  0.9552379E+02  0.7561462E-02  0.1290001E+00
         -1   -1    0    0    0  501 -0.00000000000E+00  0.00000000000E+00  0.20185013317E+02  0.20185013317E+02  0.00000000000E+00 0.  1.
          1   -1    0    0  501    0  0.00000000000E+00 -0.00000000000E+00 -0.80571708105E+03  0.80571708105E+03  0.00000000000E+00 0. -1.
         25    2    1    2    0    0 -0.23611449687E+02 -0.63994429013E+02 -0.45711072116E+03  0.47880092089E+03  0.12508925990E+03 0.  0.
          5    1    3    3  502    0  0.10026887361E+02 -0.41555370343E+01  0.42195124622E+01  0.12372697507E+02  0.41800000000E+01 0. -1.
         -5    1    3    3    0  502 -0.33638337048E+02 -0.59838891978E+02 -0.46133023362E+03  0.46642822338E+03  0.41800000000E+01 0. -1.
        -11    1    1    2    0    0 -0.33312458115E+02  0.24834856486E+02 -0.15362179909E+03  0.15914190874E+03  0.00000000000E+00 0. -1.
         11    1    1    2    0    0  0.56923907802E+02  0.39159572527E+02 -0.17479954749E+03  0.18795926474E+03  0.00000000000E+00 0.  1.
</event>
<event>
 7    1  0.2490079E-009  0.2550045E+02  0.7561462E-02  0.1653916E+00
          2   -1    0    0  501    0  0.00000000000E+00  0.00000000000E+00  0.75826792256E+02  0.75826792256E+02  0.00000000000E+00 0. -1.
         -2   -1    0    0    0  501 -0.00000000000E+00 -0.00000000000E+00 -0.18201746334E+03  0.18201746334E+03  0.00000000000E+00 0.  1.
         25    2    1    2    0    0 -0.89890453578E+01  0.10682322281E+02 -0.10811268696E+03  0.16592015714E+03  0.12508489324E+03 0.  0.
          5    1    3    3  502    0 -0.60357280321E+01  0.35484156641E+01  0.28184531449E+02  0.29340441026E+02  0.41800000000E+01 0.  1.
         -5    1    3    3    0  502 -0.29533173257E+01  0.71339066172E+01 -0.13629721841E+03  0.13657971611E+03  0.41800000000E+01 0.  1.
        -11    1    1    2    0    0 -0.74864488253E+01  0.67503329869E+01  0.43103442213E+02  0.44266473115E+02  0.00000000000E+00 0. -1.
         11    1    1    2    0    0  0.16475494183E+02 -0.17432655268E+02 -0.41181426333E+02  0.47657625341E+02  0.00000000000E+00 0.  1.
</event>
<event>
 7    1  0.2490079E-009  0.1494728E+03  0.7561462E-02  0.1201122E+00
         -2   -1    0    0    0  501 -0.00000000000E+00  0.00000000000E+00  0.47927726410E+02  0.47927726410E+02  0.00000000000E+00 0.  1.
          2   -1    0    0  501    0  0.00000000000E+00 -0.00000000000E+00 -0.55704624610E+03  0.55704624610E+03  0.00000000000E+00 0. -1.
         25    2    1    2    0    0  0.96755745002E+02 -0.58585943957E+02 -0.19151512674E+03  0.25518565661E+03  0.12509072127E+03 0.  0.
          5    1    3    3  502    0  0.51448424776E+02  0.33007856846E+02 -0.10340114596E+03  0.12019038402E+03  0.41800000000E+01 0.  1.
         -5    1    3    3    0  502  0.45307320226E+02 -0.91593800803E+02 -0.88113980783E+02  0.13499527259E+03  0.41800000000E+01 0.  1.
        -11    1    1    2    0    0 -0.19461601730E+02  0.54647388883E+02 -0.73054456878E+02  0.93284750755E+02  0.00000000000E+00 0.  1.
         11    1    1    2    0    0 -0.77294143272E+02  0.39385550743E+01 -0.24454893606E+03  0.25650356514E+03  0.00000000000E+00 0. -1.
</event>
<event>
 7    1  0.2490079E-009  0.8315089E+02  0.7561462E-02  0.1320340E+00
          2   -1    0    0  501    0  0.00000000000E+00  0.00000000000E+00  0.51152134838E+03  0.51152134838E+03  0.00000000000E+00 0.  1.
         -2   -1    0    0    0  501 -0.00000000000E+00 -0.00000000000E+00 -0.28455773358E+02  0.28455773358E+02  0.00000000000E+00 0. -1.
         25    2    1    2    0    0 -0.32952914192E+02 -0.16546340375E+02  0.34503411547E+03  0.36885719991E+03  0.12508963648E+03 0.  0.
          5    1    3    3  502    0  0.66422049052E+01 -0.33117235810E+02  0.17080097739E+02  0.38079815290E+02  0.41800000000E+01 0. -1.
         -5    1    3    3    0  502 -0.39595119097E+02  0.16570895436E+02  0.32795401773E+03  0.33077738462E+03  0.41800000000E+01 0. -1.
        -11    1    1    2    0    0  0.49795017141E+02 -0.16161532232E+02  0.11831562245E+03  0.12938054480E+03  0.00000000000E+00 0.  1.
         11    1    1    2    0    0 -0.16842102949E+02  0.32707872607E+02  0.19715837102E+02  0.41739377030E+02  0.00000000000E+00 0. -1.
</event>
<event>
 7    1  0.2490079E-009  0.1668489E+03  0.7561462E-02  0.1181174E+00
          2   -1    0    0  501    0  0.00000000000E+00  0.00000000000E+00  0.11965717014E+04  0.11965717014E+04  0.00000000000E+00 0. -1.
         -2   -1    0    0    0  501 -0.00000000000E+00 -0.00000000000E+00 -0.29436014776E+02  0.29436014776E+02  0.00000000000E+00 0.  1.
         25    2    1    2    0    0  0.14868216708E+03 -0.28477601221E+02  0.58570554296E+03  0.61774998589E+03  0.12508677558E+03 0.  0.
          5    1    3    3  502    0  0.12526817709E+03 -0.50797336888E+02  0.56034407571E+03  0.57643337968E+03  0.41800000000E+01 0. -1.
         -5    1    3    3    0  502  0.23413989982E+02  0.22319735667E+02  0.25361467258E+02  0.41316606208E+02  0.41800000000E+01 0. -1.
        -11    1    1    2    0    0 -0.73245104022E+02 -0.20301607463E+02  0.38258068957E+03  0.39005766825E+03  0.00000000000E+00 0. -1.
         11    1    1    2    0    0 -0.75437063054E+02  0.48779208684E+02  0.19884945408E+03  0.21820006203E+03  0.00000000000E+00 0.  1.
</event>
<event>
 7    1  0.2490079E-009  0.1296002E+03  0.7561462E-02  0.1228050E+00
          2   -1    0    0  501    0  0.00000000000E+00  0.00000000000E+00  0.11582534590E+04  0.11582534590E+04  0.00000000000E+00 0. -1.
         -2   -1    0    0    0  501 -0.00000000000E+00 -0.00000000000E+00 -0.20481297152E+02  0.20481297152E+02  0.00000000000E+00 0.  1.
         25    2    1    2    0    0  0.95669035627E+02 -0.45774347335E+02  0.70789608676E+03  0.72664442441E+03  0.12508954640E+03 0.  0.
          5    1    3    3  502    0  0.10273369741E+03 -0.69344113911E+02  0.66922193164E+03  0.68061610685E+03  0.41800000000E+01 0.  1.
         -5    1    3    3    0  502 -0.70646617867E+01  0.23569766577E+02  0.38674155118E+02  0.46028317553E+02  0.41800000000E+01 0.  1.
        -11    1    1    2    0    0 -0.70870297228E+02  0.47579439602E+02  0.41372901984E+03  0.42244301860E+03  0.00000000000E+00 0. -1.
         11    1    1    2    0    0 -0.24798738399E+02 -0.18050922679E+01  0.16147055264E+02  0.29647313166E+02  0.00000000000E+00 0.  1.
</event>
<event>
 7    1  0.2490079E-009  0.1104672E+03  0.7561462E-02  0.1259707E+00
         -4   -1    0    0    0  501 -0.00000000000E+00  0.00000000000E+00  0.53590410010E+02  0.53590410010E+02  0.00000000000E+00 0.  1.
          4   -1    0    0  501    0  0.00000000000E+00 -0.00000000000E+00 -0.26758966641E+03  0.26758966641E+03  0.00000000000E+00 0. -1.
         25    2    1    2    0    0 -0.22269704874E+02 -0.43792179980E+02 -0.88953726896E+02  0.16115835205E+03  0.12508218948E+03 0.  0.
          5    1    3    3  502    0  0.49480921989E+02 -0.26491507709E+02 -0.58582157490E+02  0.81237326383E+02  0.41800000000E+01 0.  1.
         -5    1    3    3    0  502 -0.71750626863E+02 -0.17300672271E+02 -0.30371569406E+02  0.79921025672E+02  0.41800000000E+01 0.  1.
        -11    1    1    2    0    0 -0.19280872169E+02 -0.10817198006E+02 -0.64919189013E+01  0.23041458620E+02  0.00000000000E+00 0.  1.
         11    1    1    2    0    0  0.41550577043E+02  0.54609377986E+02 -0.11855361060E+03  0.13698026574E+03  0.00000000000E+00 0. -1.
</event>
<event>
 7    1  0.2490079E-009  0.9145514E+02  0.7561462E-02  0.1299366E+00
          1   -1    0    0  501    0  0.00000000000E+00  0.00000000000E+00  0.40795227889E+03  0.40795227889E+03  0.00000000000E+00 0. -1.
         -1   -1    0    0    0  501 -0.00000000000E+00 -0.00000000000E+00 -0.31678034003E+02  0.31678034003E+02  0.00000000000E+00 0.  1.
         25    2    1    2    0    0 -0.37855811664E+02 -0.83348026999E+01  0.24047001300E+03  0.27381652014E+03  0.12508848123E+03 0.  0.
          5    1    3    3  502    0 -0.45966558514E+02 -0.37033209184E+02  0.40776138040E+02  0.71864796093E+02  0.41800000000E+01 0. -1.
         -5    1    3    3    0  502  0.81107468493E+01  0.28698406484E+02  0.19969387496E+03  0.20195172405E+03  0.41800000000E+01 0. -1.
        -11    1    1    2    0    0  0.64390196149E+02  0.15307123013E+02  0.10859399164E+03  0.12717334782E+03  0.00000000000E+00 0.  1.
         11    1    1    2    0    0 -0.26534384485E+02 -0.69723203130E+01  0.27210240253E+02  0.38640444940E+02  0.00000000000E+00 0. -1.
</event>
<event>
 7    1  0.2490079E-009  0.1326763E+03  0.7561462E-02  0.1223538E+00
         -1   -1    0    0    0  501 -0.00000000000E+00  0.00000000000E+00  0.30776620751E+02  0.30776620751E+02  0.00000000000E+00 0.  1.
          1   -1    0    0  501    0  0.00000000000E+00 -0.00000000000E+00 -0.10104197132E+04  0.10104197132E+04  0.00000000000E+00 0. -1.
         25    2    1    2    0    0  0.37744156762E+02 -0.92218697110E+02 -0.80532027496E+03  0.82104646147E+03  0.12509051588E+03 0.  0.
          5    1    3    3  502    0  0.36555124284E+02 -0.11977332365E+03 -0.54408063708E+03  0.55832171570E+03  0.41800000000E+01 0. -1.
         -5    1    3    3    0  502  0.11890324778E+01  0.27554626545E+02 -0.26123963788E+03  0.26272474578E+03  0.41800000000E+01 0. -1.
        -11    1    1    2    0    0 -0.10926911563E+02  0.83129404584E+02 -0.61906855618E+02  0.10422261787E+03  0.00000000000E+00 0.  1.
         11    1    1    2    0    0 -0.26817245199E+02  0.90892925254E+01 -0.11241596183E+03  0.11592725457E+03  0.00000000000E+00 0. -1.
</event>
<event>
 7    1  0.2490079E-009  0.1704987E+03  0.7561462E-02  0.1177329E+00
         -2   -1    0    0    0  501 -0.00000000000E+00  0.00000000000E+00  0.94742993156E+02  0.94742993156E+02  0.00000000000E+00 0.  1.
          2   -1    0    0  501    0  0.00000000000E+00 -0.00000000000E+00 -0.43950348448E+03  0.43950348448E+03  0.00000000000E+00 0. -1.
         25    2    1    2    0    0  0.16215558082E+03 -0.15010239193E+02 -0.23535815721E+03  0.31235139019E+03  0.12510071588E+03 0.  0.
          5    1    3    3  502    0  0.47732617579E+02 -0.83547754794E+01 -0.17720414515E+03  0.18375795633E+03  0.41800000000E+01 0.  1.
         -5    1    3    3    0  502  0.11442296324E+03 -0.66554637134E+01 -0.58154012062E+02  0.12859343386E+03  0.41800000000E+01 0.  1.
        -11    1    1    2    0    0 -0.18295171998E+02 -0.22497172383E+02 -0.57550128471E+02  0.64442636280E+02  0.00000000000E+00 0. -1.
         11    1    1    2    0    0 -0.14386040882E+03  0.37507411576E+02 -0.51852205638E+02  0.15745245117E+03  0.00000000000E+00 0.  1.
</event>
<event>
 7    1  0.2490079E-009  0.2240448E+03  0.7561462E-02  0.1130903E+00
          2   -1    0    0  501    0  0.00000000000E+00  0.00000000000E+00  0.68201080975E+03  0.68201080975E+03  0.00000000000E+00 0. -1.
         -2   -1    0    0    0  501 -0.00000000000E+00 -0.00000000000E+00 -0.78793636245E+02  0.78793636245E+02  0.00000000000E+00 0.  1.
         25    2    1    2    0    0  0.99724588686E+02  0.17049666506E+03  0.39461392549E+03  0.45867219359E+03  0.12508367038E+03 0.  0.
          5    1    3    3  502    0  0.20320996359E+02 -0.19099977960E+02  0.47423833972E+02  0.55174672448E+02  0.41800000000E+01 0. -1.
         -5    1    3    3    0  502  0.79403592327E+02  0.18959664302E+03  0.34719009152E+03  0.40349752114E+03  0.41800000000E+01 0. -1.
        -11    1    1    2    0    0 -0.73348765114E+02 -0.17289486463E+03  0.15975015125E+03  0.24656193215E+03  0.00000000000E+00 0.  1.
         11    1    1    2    0    0 -0.26375823572E+02  0.23981995721E+01  0.48853096756E+02  0.55570320252E+02  0.00000000000E+00 0. -1.
</event>
<event>
 7    1  0.2490079E-009  0.9034406E+02  0.7561462E-02  0.1302021E+00
          2   -1    0    0  501    0  0.00000000000E+00  0.00000000000E+00  0.76072974607E+03  0.76072974607E+03  0.00000000000E+00 0. -1.
         -2   -1    0    0    0  501 -0.00000000000E+00 -0.00000000000E+00 -0.29541820489E+02  0.29541820489E+02  0.00000000000E+00 0.  1.
         25    2    1    2    0    0 -0.22259291567E+02  0.26350410859E+02  0.64699014454E+03  0.65987325560E+03  0.12508655449E+03 0.  0.
          5    1    3    3  502    0 -0.40327359999E+01  0.56681258280E+02  0.13353177905E+03  0.14518001383E+03  0.41800000000E+01 0.  1.
         -5    1    3    3    0  502 -0.18226555567E+02 -0.30330847421E+02  0.51345836549E+03  0.51469324177E+03  0.41800000000E+01 0.  1.
        -11    1    1    2    0    0 -0.18887945701E+02  0.19035755630E+02  0.68478366202E+00  0.26825051983E+02  0.00000000000E+00 0.  1.
         11    1    1    2    0    0  0.41147237269E+02 -0.45386166489E+02  0.83512997387E+02  0.10357325898E+03  0.00000000000E+00 0. -1.
</event>
<event>
 7    1  0.2490079E-009  0.1126482E+03  0.7561462E-02  0.1255743E+00
         -2   -1    0    0    0  501 -0.00000000000E+00  0.00000000000E+00  0.39041320780E+02  0.39041320780E+02  0.00000000000E+00 0.  1.
          2   -1    0    0  501    0  0.00000000000E+00 -0.00000000000E+00 -0.40828662799E+03  0.40828662799E+03  0.00000000000E+00 0. -1.
         25    2    1    2    0    0  0.39647471753E+02  0.40915221145E+02 -0.26502768636E+03  0.29855174824E+03  0.12508994564E+03 0.  0.
          5    1    3    3  502    0 -0.20850006389E+02  0.67140924697E+02 -0.15425130932E+03  0.16956876293E+03  0.41800000000E+01 0.  1.
         -5    1    3    3    0  502  0.60497478142E+02 -0.26225703552E+02 -0.11077637704E+03  0.12898298530E+03  0.41800000000E+01 0.  1.
        -11    1    1    2    0    0 -0.54178970982E+02 -0.48224427595E+02 -0.40621494180E+02  0.83132797998E+02  0.00000000000E+00 0.  1.
         11    1    1    2    0    0  0.14531499229E+02  0.73092064503E+01 -0.63596126671E+02  0.65643402535E+02  0.00000000000E+00 0. -1.
</event>
<event>
 7    1  0.2490079E-009  0.1107342E+03  0.7561462E-02  0.1259216E+00
          1   -1    0    0  501    0  0.00000000000E+00  0.00000000000E+00  0.15789024471E+03  0.15789024471E+03  0.00000000000E+00 0. -1.
         -1   -1    0    0    0  501 -0.00000000000E+00 -0.00000000000E+00 -0.90483286210E+02  0.90483286210E+02  0.00000000000E+00 0.  1.
         25    2    1    2    0    0  0.41784328260E+02  0.55599722108E+02  0.15148593043E+02  0.14392765039E+03  0.12509368286E+03 0.  0.
          5    1    3    3  502    0  0.80573495590E+02  0.64283310057E+02  0.10818129817E+02  0.10372529333E+03  0.41800000000E+01 0. -1.
         -5    1    3    3    0  502 -0.38789167330E+02 -0.86835879488E+01  0.43304632257E+01  0.40202357065E+02  0.41800000000E+01 0. -1.
        -11    1    1    2    0    0 -0.37491084152E+02 -0.20018211992E+02  0.17794923557E+01  0.42537945358E+02  0.00000000000E+00 0.  1.
         11    1    1    2    0    0 -0.42932441081E+01 -0.35581510116E+02  0.50478873103E+02  0.61907935169E+02  0.00000000000E+00 0. -1.
</event>
<event>
 7    1  0.2490079E-009  0.1418699E+03  0.7561462E-02  0.1210835E+00
          1   -1    0    0  501    0  0.00000000000E+00  0.00000000000E+00  0.35557515361E+03  0.35557515361E+03  0.00000000000E+00 0. -1.
         -1   -1    0    0    0  501 -0.00000000000E+00 -0.00000000000E+00 -0.74615138980E+02  0.74615138980E+02  0.00000000000E+00 0.  1.
         25    2    1    2    0    0  0.93097174791E+02  0.66013702729E+02  0.95792617879E+02  0.19454601438E+03  0.12508810163E+03 0.  0.
          5    1    3    3  502    0  0.74849853920E+02  0.85257996771E+02  0.11495158470E+03  0.16156350414E+03  0.41800000000E+01 0.  1.
         -5    1    3    3    0  502  0.18247320871E+02 -0.19244294042E+02 -0.19158966821E+02  0.32982510241E+02  0.41800000000E+01 0.  1.
        -11    1    1    2    0    0 -0.83498614938E+02 -0.72411940229E+01  0.12865644103E+03  0.15354782124E+03  0.00000000000E+00 0. -1.
         11    1    1    2    0    0 -0.95985598528E+01 -0.58772508706E+02  0.56510955715E+02  0.82096456968E+02  0.00000000000E+00 0.  1.
</event>
<event>
 7    1  0.2490079E-009  0.8740234E+02  0.7561462E-02  0.1309267E+00
         -2   -1    0    0    0  501 -0.00000000000E+00  0.00000000000E+00  0.12386527146E+03  0.12386527146E+03  0.00000000000E+00 0.  1.
          2   -1    0    0  501    0  0.00000000000E+00 -0.00000000000E+00 -0.17416069273E+03  0.17416069273E+03  0.00000000000E+00 0. -1.
         25    2    1    2    0    0 -0.11313125371E+02  0.21934709063E+02  0.71283205266E+02  0.14607782296E+03  0.12509323220E+03 0.  0.
          5    1    3    3  502    0  0.78044605674E+01 -0.31376870643E+02  0.82037980821E+02  0.88278651515E+02  0.41800000000E+01 0. -1.
         -5    1    3    3    0  502 -0.19117585938E+02  0.53311579706E+02 -0.10754775555E+02  0.57799171448E+02  0.41800000000E+01 0. -1.
        -11    1    1    2    0    0 -0.31282949675E+02 -0.28494113707E+02 -0.33789265779E+02  0.54150271821E+02  0.00000000000E+00 0.  1.
         11    1    1    2    0    0  0.42596075046E+02  0.65594046446E+01 -0.87789360760E+02  0.97797869411E+02  0.00000000000E+00 0. -1.
</event>
<event>
 7    1  0.2490079E-009  0.1276182E+03  0.7561462E-02  0.1231033E+00
          1   -1    0    0  501    0  0.00000000000E+00  0.00000000000E+00  0.11101860211E+04  0.11101860211E+04  0.00000000000E+00 0. -1.
         -1   -1    0    0    0  501 -0.00000000000E+00 -0.00000000000E+00 -0.19410677044E+02  0.19410677044E+02  0.00000000000E+00 0.  1.
         25    2    1    2    0    0  0.82287281791E+02 -0.26621280655E+02  0.76950814440E+03  0.78439302520E+03  0.12509893826E+03 0.  0.
          5    1    3    3  502    0  0.11211859953E+03 -0.39184137040E+02  0.57318946417E+03  0.58537988622E+03  0.41800000000E+01 0. -1.
         -5    1    3    3    0  502 -0.29831317740E+02  0.12562856385E+02  0.19631868024E+03  0.19901313898E+03  0.41800000000E+01 0. -1.
        -11    1    1    2    0    0 -0.65674823205E+02  0.44515698031E+02  0.30664616036E+03  0.31674389882E+03  0.00000000000E+00 0. -1.
         11    1    1    2    0    0 -0.16612458586E+02 -0.17894417376E+02  0.14621039302E+02  0.28459774134E+02  0.00000000000E+00 0.  1.
</event>
<event>
 7    1  0.2915753E-009  0.2311824E+03  0.7561462E-02  0.1125810E+00
          2   -1    0    0  501    0  0.00000000000E+00  0.00000000000E+00  0.24701602525E+03  0.24701602525E+03  0.00000000000E+00 0. -1.
         -2   -1    0    0    0  501 -0.00000000000E+00 -0.00000000000E+00 -0.26043080281E+03  0.26043080281E+03  0.00000000000E+00 0.  1.
         25    2    1    2    0    0  0.11944549339E+02  0.22227629530E+03  0.45884134212E+02  0.25942644308E+03  0.12508917573E+03 0.  0.
          5    1    3    3  502    0 -0.30675699501E+02  0.38031640354E+02  0.50258643977E+02  0.70219711637E+02  0.41800000000E+01 0.  1.
         -5    1    3    3    0  502  0.42620248840E+02  0.18424465495E+03 -0.43745097652E+01  0.18920673144E+03  0.41800000000E+01 0.  1.
        -11    1    1    2    0    0 -0.17901480919E+02 -0.90236513587E+02  0.19639743753E+02  0.94068118607E+02  0.00000000000E+00 0. -1.
         11    1    1    2    0    0  0.59569315802E+01 -0.13203978171E+03 -0.78938655525E+02  0.15395226638E+03  0.00000000000E+00 0.  1.
</event>
<event>
 7    1  0.3189303E-009  0.8072269E+02  0.7561462E-02  0.1327013E+00
         -2   -1    0    0    0  501 -0.00000000000E+00  0.00000000000E+00  0.29516357672E+02  0.29516357672E+02  0.00000000000E+00 0.  1.
          2   -1    0    0  501    0  0.00000000000E+00 -0.00000000000E+00 -0.51674361860E+03  0.51674361860E+03  0.00000000000E+00 0. -1.
         25    2    1    2    0    0 -0.30072930287E+02  0.27818892099E+01 -0.38504196740E+03  0.40597590054E+03  0.12508794952E+03 0.  0.
          5    1    3    3  502    0 -0.99457563092E+01 -0.39684166223E+02 -0.38815622522E+02  0.56549766305E+02  0.41800000000E+01 0. -1.
         -5    1    3    3    0  502 -0.20127173977E+02  0.42466055433E+02 -0.34622634488E+03  0.34942613424E+03  0.41800000000E+01 0. -1.
        -11    1    1    2    0    0  0.22392599031E+01  0.30030297523E+02 -0.77539974188E+00  0.30123650160E+02  0.00000000000E+00 0.  1.
         11    1    1    2    0    0  0.27833670383E+02 -0.32812186733E+02 -0.10140989378E+03  0.11016042557E+03  0.00000000000E+00 0. -1.
</event>
<event>
 7    1  0.2490079E-009  0.6429520E+02  0.7561462E-02  0.1380642E+00
         -2   -1    0    0    0  501 -0.00000000000E+00  0.00000000000E+00  0.32340625945E+02  0.32340625945E+02  0.00000000000E+00 0.  1.
          2   -1    0    0  501    0  0.00000000000E+00 -0.00000000000E+00 -0.39374346399E+03  0.39374346399E+03  0.00000000000E+00 0. -1.
         25    2    1    2    0    0  0.15300923814E+02  0.16236920802E+02 -0.22915066465E+03  0.26202178980E+03  0.12509050866E+03 0.  0.
          5    1    3    3  502    0 -0.13676946294E+01  0.37370746063E+02 -0.23163356552E+03  0.23467003286E+03  0.41800000000E+01 0.  1.
         -5    1    3    3    0  502  0.16668618443E+02 -0.21133825261E+02  0.24829008703E+01  0.27351756940E+02  0.41800000000E+01 0.  1.
        -11    1    1    2    0    0  0.19788059957E+02 -0.20360820528E+02 -0.12938802267E+01  0.28421900983E+02  0.00000000000E+00 0.  1.
         11    1    1    2    0    0 -0.35088983771E+02  0.41238997264E+01 -0.13095829317E+03  0.13564039915E+03  0.00000000000E+00 0. -1.
</event>
<event>
 7    1  0.2490079E-009  0.1120731E+03  0.7561462E-02  0.1256778E+00
          1   -1    0    0  501    0  0.00000000000E+00  0.00000000000E+00  0.41084609304E+02  0.41084609304E+02  0.00000000000E+00 0. -1.
         -1   -1    0    0    0  501 -0.00000000000E+00 -0.00000000000E+00 -0.30788406293E+03  0.30788406293E+03  0.00000000000E+00 0.  1.
         25    2    1    2    0    0 -0.21597374360E+02  0.19137541827E+02 -0.15429571740E+03  0.20071564848E+03  0.12508761350E+03 0.  0.
          5    1    3    3  502    0  0.30026772247E+02 -0.39221943945E+02 -0.70869238887E+02  0.86486353599E+02  0.41800000000E+01 0.  1.
         -5    1    3    3    0  502 -0.51624146607E+02  0.58359485772E+02 -0.83426478513E+02  0.11422929488E+03  0.41800000000E+01 0.  1.
        -11    1    1    2    0    0  0.48482470359E+02 -0.39728829441E+02 -0.72390587884E+02  0.95756603089E+02  0.00000000000E+00 0. -1.
         11    1    1    2    0    0 -0.26885095999E+02  0.20591287614E+02 -0.40113148342E+02  0.52496420663E+02  0.00000000000E+00 0.  1.
</event>
<event>
 7    1  0.2490079E-009  0.9316623E+02  0.7561462E-02  0.1295360E+00
          1   -1    0    0  501    0  0.00000000000E+00  0.00000000000E+00  0.42155761327E+02  0.42155761327E+02  0.00000000000E+00 0. -1.
         -1   -1    0    0    0  501 -0.00000000000E+00 -0.00000000000E+00 -0.34622691498E+03  0.34622691498E+03  0.00000000000E+00 0.  1.
         25    2    1    2    0    0 -0.17623643592E+02  0.44042767942E+02 -0.13238766702E+03  0.18821286070E+03  0.12508888172E+03 0.  0.
          5    1    3    3  502    0  0.50038123903E+01 -0.38565295280E+02 -0.76316140730E+02  0.85755150717E+02  0.41800000000E+01 0.  1.
         -5    1    3    3    0  502 -0.22627455983E+02  0.82608063223E+02 -0.56071526294E+02  0.10245770998E+03  0.41800000000E+01 0.  1.
        -11    1    1    2    0    0  0.25355262571E+02 -0.11186583675E+02 -0.26958255086E+01  0.27844146055E+02  0.00000000000E+00 0. -1.
         11    1    1    2    0    0 -0.77316189784E+01 -0.32856184268E+02 -0.16898766112E+03  0.17232566956E+03  0.00000000000E+00 0.  1.
</event>
<event>
 7    1  0.2490079E-009  0.6943381E+02  0.7561462E-02  0.1362029E+00
         -4   -1    0    0    0  501 -0.00000000000E+00  0.00000000000E+00  0.27877134254E+03  0.27877134254E+03  0.00000000000E+00 0.  1.
          4   -1    0    0  501    0  0.00000000000E+00 -0.00000000000E+00 -0.54617794789E+02  0.54617794789E+02  0.00000000000E+00 0. -1.
         25    2    1    2    0    0 -0.42815737524E+02 -0.36072049098E+02  0.12731467115E+03  0.18706025195E+03  0.12509249483E+03 0.  0.
          5    1    3    3  502    0  0.91917746179E+01 -0.71716163832E+00 -0.22421386649E+02  0.24600691468E+02  0.41800000000E+01 0. -1.
         -5    1    3    3    0  502 -0.52007512142E+02 -0.35354887459E+02  0.14973605780E+03  0.16245956048E+03  0.41800000000E+01 0. -1.
        -11    1    1    2    0    0  0.84798121103E+01  0.29584229220E+02  0.10585745614E+03  0.11024035038E+03  0.00000000000E+00 0.  1.
         11    1    1    2    0    0  0.34335925413E+02  0.64878198777E+01 -0.90185795466E+01  0.36088534991E+02  0.00000000000E+00 0. -1.
</event>
<event>
 7    1  0.2490079E-009  0.1146333E+03  0.7561462E-02  0.1252223E+00
         -1   -1    0    0    0  501 -0.00000000000E+00  0.00000000000E+00  0.49804632332E+03  0.49804632332E+03  0.00000000000E+00 0.  1.
          1   -1    0    0  501    0  0.00000000000E+00 -0.00000000000E+00 -0.79428839578E+02  0.79428839578E+02  0.00000000000E+00 0. -1.
         25    2    1    2    0    0  0.90997915296E+02  0.31436149186E+02  0.41441017857E+03  0.44345412156E+03  0.12508760836E+03 0.  0.
          5    1    3    3  502    0  0.63722626192E+02 -0.15189534853E+02  0.36258674692E+03  0.36848055105E+03  0.41800000000E+01 0. -1.
         -5    1    3    3    0  502  0.27275289104E+02  0.46625684039E+02  0.51823431643E+02  0.74973570510E+02  0.41800000000E+01 0. -1.
        -11    1    1    2    0    0 -0.44929784255E+02  0.11600590913E+02 -0.36447763545E+02  0.59005920806E+02  0.00000000000E+00 0. -1.
         11    1    1    2    0    0 -0.46068131041E+02 -0.43036740099E+02  0.40655068727E+02  0.75015120537E+02  0.00000000000E+00 0.  1.
</event>
<event>
 7    1  0.2490079E-009  0.1265193E+03  0.7561462E-02  0.1232714E+00
         -1   -1    0    0    0  501 -0.00000000000E+00  0.00000000000E+00  0.16408780066E+02  0.16408780066E+02  0.00000000000E+00 0.  1.
          1   -1    0    0  501    0  0.00000000000E+00 -0.00000000000E+00 -0.10438466265E+04  0.10438466265E+04  0.00000000000E+00 0. -1.
         25    2    1    2    0    0 -0.17622773079E+02  0.71626459105E+02 -0.58133078196E+03  0.59919422913E+03  0.12508930567E+03 0.  0.
          5    1    3    3  502    0 -0.66239719101E+02  0.31869834163E+02 -0.20920025699E+03  0.22177828262E+03  0.41800000000E+01 0.  1.
         -5    1    3    3    0  502  0.48616946022E+02  0.39756624943E+02 -0.37213052497E+03  0.37741594652E+03  0.41800000000E+01 0.  1.
        -11    1    1    2    0    0  0.54560014482E+02 -0.37709719954E+02 -0.25546939578E+03  0.26393830783E+03  0.00000000000E+00 0.  1.
         11    1    1    2    0    0 -0.36937241403E+02 -0.33916739152E+02 -0.19063766871E+03  0.19712286963E+03  0.00000000000E+00 0. -1.
</event>
<event>
 7    1  0.2490079E-009  0.1157597E+03  0.7561462E-02  0.1250261E+00
         -2   -1    0    0    0  501 -0.00000000000E+00  0.00000000000E+00  0.26209372108E+02  0.26209372108E+02  0.00000000000E+00 0.  1.
          2   -1    0    0  501    0  0.00000000000E+00 -0.00000000000E+00 -0.69983809386E+03  0.69983809386E+03  0.00000000000E+00 0. -1.
         25    2    1    2    0    0 -0.47829719411E+02 -0.40626189576E+02 -0.43156636670E+03  0.45369108037E+03  0.12509155928E+03 0.  0.
          5    1    3    3  502    0 -0.20998612476E+02  0.44739081361E+02 -0.13167952683E+03  0.14071068657E+03  0.41800000000E+01 0. -1.
         -5    1    3    3    0  502 -0.26831106936E+02 -0.85365270937E+02 -0.29988683987E+03  0.31298039380E+03  0.41800000000E+01 0. -1.
        -11    1    1    2    0    0  0.21161462663E+02 -0.18097956254E+02 -0.71461201771E+01  0.28747357377E+02  0.00000000000E+00 0.  1.
         11    1    1    2    0    0  0.26668256748E+02  0.58724145830E+02 -0.23491623488E+03  0.24360902822E+03  0.00000000000E+00 0. -1.
</event>
<event>
 7    1  0.2490079E-009  0.8553659E+02  0.7561462E-02  0.1314035E+00
          2   -1    0    0  501    0  0.00000000000E+00  0.00000000000E+00  0.17389462468E+03  0.17389462468E+03  0.00000000000E+00 0. -1.
         -2   -1    0    0    0  501 -0.00000000000E+00 -0.00000000000E+00 -0.20002353140E+03  0.20002353140E+03  0.00000000000E+00 0.  1.
         25    2    1    2    0    0 -0.13160776704E+02  0.53020078454E+02  0.12731120065E+03  0.18665401278E+03  0.12508894401E+03 0.  0.
          5    1    3    3  502    0  0.17804623581E+02 -0.17114064639E+02  0.10317227840E+03  0.10616914458E+03  0.41800000000E+01 0.  1.
         -5    1    3    3    0  502 -0.30965400285E+02  0.70134143094E+02  0.24138922248E+02  0.80484868202E+02  0.41800000000E+01 0.  1.
        -11    1    1    2    0    0 -0.12788462496E+02 -0.36023249685E+02 -0.86552635445E+01  0.39193531072E+02  0.00000000000E+00 0. -1.
         11    1    1    2    0    0  0.25949239200E+02 -0.16996828769E+02 -0.14478484383E+03  0.14807061223E+03  0.00000000000E+00 0.  1.
</event>
<event>
 7    1  0.2490079E-009  0.2628151E+03  0.7561462E-02  0.1105464E+00
         -1   -1    0    0    0  501 -0.00000000000E+00  0.00000000000E+00  0.46619514507E+03  0.46619514507E+03  0.00000000000E+00 0. -1.
          1   -1    0    0  501    0  0.00000000000E+00 -0.00000000000E+00 -0.17823790303E+03  0.17823790303E+03  0.00000000000E+00 0.  1.
         25    2    1    2    0    0 -0.23245832744E+03 -0.11218485035E+03  0.74144916169E+02  0.29625542637E+03  0.12508994530E+03 0.  0.
          5    1    3    3  502    0 -0.12473820664E+03 -0.66718378979E+02  0.10386105844E+03  0.17554359615E+03  0.41800000000E+01 0. -1.
         -5    1    3    3    0  502 -0.10772012080E+03 -0.45466471375E+02 -0.29716142268E+02  0.12071183022E+03  0.41800000000E+01 0. -1.
        -11    1    1    2    0    0  0.18641697923E+03  0.11811996906E+03  0.20441421387E+03  0.30081354370E+03  0.00000000000E+00 0. -1.
         11    1    1    2    0    0  0.46041348210E+02 -0.59351187081E+01  0.93981119982E+01  0.47364078036E+02  0.00000000000E+00 0.  1.
</event>
<event>
 7    1  0.2490079E-009  0.9548175E+02  0.7561462E-02  0.1290095E+00
         -2   -1    0    0    0  501 -0.00000000000E+00  0.00000000000E+00  0.11010026880E+03  0.11010026880E+03  0.00000000000E+00 0.  1.
          2   -1    0    0  501    0  0.00000000000E+00 -0.00000000000E+00 -0.16329345229E+03  0.16329345229E+03  0.00000000000E+00 0. -1.
         25    2    1    2    0    0  0.69078577625E+02  0.49168825331E+01  0.13082037022E+02  0.14357821673E+03  0.12509012354E+03 0.  0.
          5    1    3    3  502    0  0.35052576588E+02 -0.21608485736E+02  0.64306848984E+02  0.76475179029E+02  0.41800000000E+01 0.  1.
         -5    1    3    3    0  502  0.34026001037E+02  0.26525368269E+02 -0.51224811962E+02  0.67103037703E+02  0.41800000000E+01 0.  1.
        -11    1    1    2    0    0 -0.58384643594E+02 -0.39195165300E+02 -0.23897352126E+02  0.74270525979E+02  0.00000000000E+00 0.  1.
         11    1    1    2    0    0 -0.10693934031E+02  0.34278282766E+02 -0.42377868390E+02  0.55544978385E+02  0.00000000000E+00 0. -1.
</event>
<event>
 7    1  0.2490079E-009  0.1282447E+03  0.7561462E-02  0.1230084E+00
          1   -1    0    0  501    0  0.00000000000E+00  0.00000000000E+00  0.40756647573E+03  0.40756647573E+03  0.00000000000E+00 0. -1.
         -1   -1    0    0    0  501 -0.00000000000E+00 -0.00000000000E+00 -0.50285642525E+02  0.50285642525E+02  0.00000000000E+00 0.  1.
         25    2    1    2    0    0  0.43407196779E+02 -0.81066346081E+02  0.18300438111E+03  0.23998676821E+03  0.12508840157E+03 0.  0.
          5    1    3    3  502    0  0.53542688706E+02 -0.94806381633E+02  0.79198670813E+02  0.13470327157E+03  0.41800000000E+01 0.  1.
         -5    1    3    3    0  502 -0.10135491927E+02  0.13740035552E+02  0.10380571030E+03  0.10528349664E+03  0.41800000000E+01 0.  1.
        -11    1    1    2    0    0 -0.28414220361E+01 -0.20440773160E+02  0.37181126568E+02  0.42524523036E+02  0.00000000000E+00 0. -1.
         11    1    1    2    0    0 -0.40565774743E+02  0.10150711924E+03  0.13709532552E+03  0.17534082701E+03  0.00000000000E+00 0.  1.
</event>
<event>
 7    1  0.2490079E-009  0.9042175E+02  0.7561462E-02  0.1301834E+00
         -3   -1    0    0    0  501 -0.00000000000E+00  0.00000000000E+00  0.86641536197E+02  0.86641536197E+02  0.00000000000E+00 0.  1.
          3   -1    0    0  501    0  0.00000000000E+00 -0.00000000000E+00 -0.19590967597E+03  0.19590967597E+03  0.00000000000E+00 0. -1.
         25    2    1    2    0    0 -0.50594630768E+02 -0.30733949103E+02 -0.10165437841E+03  0.17170735260E+03  0.12508161334E+03 0.  0.
          5    1    3    3  502    0 -0.67890543214E+02 -0.44288879229E+01 -0.11778579993E+03  0.13608713375E+03  0.41800000000E+01 0. -1.
         -5    1    3    3    0  502  0.17295912445E+02 -0.26305061180E+02  0.16131421518E+02  0.35620218854E+02  0.41800000000E+01 0. -1.
        -11    1    1    2    0    0 -0.10236907793E+02 -0.38619763512E+01  0.29618485156E+02  0.31574733656E+02  0.00000000000E+00 0.  1.
         11    1    1    2    0    0  0.60831538561E+02  0.34595925454E+02 -0.37232246513E+02  0.79269125908E+02  0.00000000000E+00 0. -1.
</event>
<event>
 7    1  0.2490079E-009  0.1240658E+03  0.7561462E-02  0.1236537E+00
         -1   -1    0    0    0  501 -0.00000000000E+00  0.00000000000E+00  0.27322532720E+02  0.27322532720E+02  0.00000000000E+00 0.  1.
          1   -1    0    0  501    0  0.00000000000E+00 -0.00000000000E+00 -0.59572579918E+03  0.59572579918E+03  0.00000000000E+00 0. -1.
         25    2    1    2    0    0 -0.53429451446E+02 -0.42669486042E+02 -0.29862222714E+03  0.33090481490E+03  0.12508945063E+03 0.  0.
          5    1    3    3  502    0 -0.50739207015E+02  0.32783907597E+02 -0.18293762040E+03  0.19269898049E+03  0.41800000000E+01 0.  1.
         -5    1    3    3    0  502 -0.26902444304E+01 -0.75453393639E+02 -0.11568460674E+03  0.13820583440E+03  0.41800000000E+01 0.  1.
        -11    1    1    2    0    0 -0.21161728129E+02  0.29360479796E+02 -0.80566676215E+02  0.88322397089E+02  0.00000000000E+00 0.  1.
         11    1    1    2    0    0  0.74591179575E+02  0.13309006246E+02 -0.18921436311E+03  0.20382111991E+03  0.00000000000E+00 0. -1.
</event>
<event>
 7    1  0.2490079E-009  0.1062215E+03  0.7561462E-02  0.1267732E+00
          3   -1    0    0  501    0  0.00000000000E+00  0.00000000000E+00  0.10460864312E+03  0.10460864312E+03  0.00000000000E+00 0. -1.
         -3   -1    0    0    0  501 -0.00000000000E+00 -0.00000000000E+00 -0.17874125380E+03  0.17874125380E+03  0.00000000000E+00 0.  1.
         25    2    1    2    0    0 -0.66940276718E+02  0.54595092306E+01  0.85042250686E+01  0.14223577711E+03  0.12509151673E+03 0.  0.
          5    1    3    3  502    0 -0.53008685416E+02 -0.56600695201E+02 -0.17218307959E+01  0.77678803596E+02  0.41800000000E+01 0. -1.
         -5    1    3    3    0  502 -0.13931591302E+02  0.62060204432E+02  0.10226055864E+02  0.64556973511E+02  0.41800000000E+01 0. -1.
        -11    1    1    2    0    0  0.36346777076E+02  0.86331243338E+01  0.13128587831E+02  0.39597712787E+02  0.00000000000E+00 0. -1.
         11    1    1    2    0    0  0.30593499643E+02 -0.14092633564E+02 -0.95765423586E+02  0.10151640703E+03  0.00000000000E+00 0.  1.
</event>
<event>
 7    1  0.2490079E-009  0.1070964E+03  0.7561462E-02  0.1266043E+00
         -2   -1    0    0    0  501 -0.00000000000E+00  0.00000000000E+00  0.39750793096E+02  0.39750793096E+02  0.00000000000E+00 0.  1.
          2   -1    0    0  501    0  0.00000000000E+00 -0.00000000000E+00 -0.70457888221E+03  0.70457888221E+03  0.00000000000E+00 0. -1.
         25    2    1    2    0    0 -0.13040083459E+02  0.90848208619E+02 -0.54961865659E+03  0.57109601245E+03  0.12508615824E+03 0.  0.
          5    1    3    3  502    0 -0.11465749236E+02  0.90230755844E+02 -0.18253053775E+03  0.20398020080E+03  0.41800000000E+01 0.  1.
         -5    1    3    3    0  502 -0.15743342226E+01  0.61745277517E+00 -0.36708811883E+03  0.36711581165E+03  0.41800000000E+01 0.  1.
        -11    1    1    2    0    0 -0.21728816309E+02 -0.78945928445E+02 -0.10841403139E+03  0.13586097040E+03  0.00000000000E+00 0.  1.
         11    1    1    2    0    0  0.34768899768E+02 -0.11902280174E+02 -0.67954011348E+01  0.37372692450E+02  0.00000000000E+00 0. -1.
</event>
<event>
 7    1  0.2716653E-009  0.1104120E+03  0.7561462E-02  0.1259809E+00
          2   -1    0    0  501    0  0.00000000000E+00  0.00000000000E+00  0.12325792546E+04  0.12325792546E+04  0.00000000000E+00 0. -1.
         -2   -1    0    0    0  501 -0.00000000000E+00 -0.00000000000E+00 -0.11159696335E+02  0.11159696335E+02  0.00000000000E+00 0.  1.
         25    2    1    2    0    0  0.10744689454E+02 -0.35537874831E+02  0.82003372619E+03  0.83035006662E+03  0.12509009612E+03 0.  0.
          5    1    3    3  502    0  0.29380861388E+02  0.40429138989E+02  0.39353583049E+03  0.39671863149E+03  0.41800000000E+01 0. -1.
         -5    1    3    3    0  502 -0.18636171934E+02 -0.75967013819E+02  0.42649789571E+03  0.43363143513E+03  0.41800000000E+01 0. -1.
        -11    1    1    2    0    0 -0.47894798197E+02  0.23008223300E+02  0.30033229426E+03  0.30499635574E+03  0.00000000000E+00 0.  1.
         11    1    1    2    0    0  0.37150108743E+02  0.12529651530E+02  0.10105353777E+03  0.10839252854E+03  0.00000000000E+00 0. -1.
</event>
<event>
 7    1  0.2490079E-009  0.1341691E+03  0.7561462E-02  0.1221397E+00
         -1   -1    0    0    0  501 -0.00000000000E+00  0.00000000000E+00  0.75968609644E+03  0.75968609644E+03  0.00000000000E+00 0.  1.
          1   -1    0    0  501    0  0.00000000000E+00 -0.00000000000E+00 -0.37563425005E+02  0.37563425005E+02  0.00000000000E+00 0. -1.
         25    2    1    2    0    0  0.10892717704E+03 -0.38584307621E+02  0.52875316925E+03  0.55550066822E+03  0.12508876731E+03 0.  0.
          5    1    3    3  502    0 -0.11176558224E+02 -0.12240655225E+02  0.25264309882E+03  0.25322076707E+03  0.41800000000E+01 0.  1.
         -5    1    3    3    0  502  0.12010373527E+03 -0.26343652396E+02  0.27611007043E+03  0.30227990115E+03  0.41800000000E+01 0.  1.
        -11    1    1    2    0    0 -0.79649361821E+02  0.52907457087E+02  0.18476020674E+03  0.20803738570E+03  0.00000000000E+00 0.  1.
         11    1    1    2    0    0 -0.29277815221E+02 -0.14323149466E+02  0.86092954466E+01  0.33711467527E+02  0.00000000000E+00 0. -1.
</event>
<event>
 7    1  0.2490079E-009  0.1438492E+03  0.7561462E-02  0.1208241E+00
          2   -1    0    0  501    0  0.00000000000E+00  0.00000000000E+00  0.19184653067E+04  0.19184653067E+04  0.00000000000E+00 0.  1.
         -2   -1    0    0    0  501 -0.00000000000E+00 -0.00000000000E+00 -0.15655585745E+02  0.15655585745E+02  0.00000000000E+00 0. -1.
         25    2    1    2    0    0 -0.11897561690E+03  0.44475134785E+02  0.13561414445E+04  0.13678092696E+04  0.12509734438E+03 0.  0.
          5    1    3    3  502    0 -0.12589103430E+03  0.57315236601E+02  0.83064878457E+03  0.84209765738E+03  0.41800000000E+01 0. -1.
         -5    1    3    3    0  502  0.69154174020E+01 -0.12840101816E+02  0.52549265994E+03  0.52571161226E+03  0.41800000000E+01 0. -1.
        -11    1    1    2    0    0  0.10988224324E+03 -0.25064261511E+02  0.52011575361E+03  0.53218673578E+03  0.00000000000E+00 0.  1.
         11    1    1    2    0    0  0.90933736573E+01 -0.19410873274E+02  0.26552522855E+02  0.34124887043E+02  0.00000000000E+00 0. -1.
</event>
<event>
 7    1  0.2490079E-009  0.8069541E+02  0.7561462E-02  0.1327089E+00
          2   -1    0    0  501    0  0.00000000000E+00  0.00000000000E+00  0.18375454496E+03  0.18375454496E+03  0.00000000000E+00 0. -1.
         -2   -1    0    0    0  501 -0.00000000000E+00 -0.00000000000E+00 -0.74550992490E+02  0.74550992490E+02  0.00000000000E+00 0.  1.
         25    2    1    2    0    0 -0.12730635494E+01 -0.44755332984E+02  0.54108724116E+02  0.14345265484E+03  0.12508496966E+03 0.  0.
          5    1    3    3  502    0 -0.12632905079E+02  0.10274063616E+02  0.79782317718E+02  0.81534270674E+02  0.41800000000E+01 0. -1.
         -5    1    3    3    0  502  0.11359841529E+02 -0.55029396600E+02 -0.25673593602E+02  0.61918384169E+02  0.41800000000E+01 0. -1.
        -11    1    1    2    0    0 -0.29245857987E+02  0.49356697403E+02  0.60658405985E+02  0.83491592418E+02  0.00000000000E+00 0. -1.
         11    1    1    2    0    0  0.30518921536E+02 -0.46013644194E+01 -0.55635776309E+01  0.31361290189E+02  0.00000000000E+00 0.  1.
</event>
<event>
 7    1  0.2490079E-009  0.1394567E+03  0.7561462E-02  0.1214062E+00
          2   -1    0    0  501    0  0.00000000000E+00  0.00000000000E+00  0.16060788100E+03  0.16060788100E+03  0.00000000000E+00 0. -1.
         -2   -1    0    0    0  501 -0.00000000000E+00 -0.00000000000E+00 -0.18532058914E+03  0.18532058914E+03  0.00000000000E+00 0.  1.
         25    2    1    2    0    0  0.11334877846E+03  0.69963114029E+02 -0.90205738088E+01  0.18295255392E+03  0.12508990099E+03 0.  0.
          5    1    3    3  502    0  0.10403010507E+03  0.37839765227E+02 -0.56791588130E+02  0.12448641482E+03  0.41800000000E+01 0.  1.
         -5    1    3    3    0  502  0.93186733980E+01  0.32123348802E+02  0.47771014321E+02  0.58466139101E+02  0.41800000000E+01 0.  1.
        -11    1    1    2    0    0 -0.61961608377E+02 -0.27601074588E+02 -0.53504193879E+02  0.86393049453E+02  0.00000000000E+00 0.  1.
         11    1    1    2    0    0 -0.51387170087E+02 -0.42362039441E+02  0.37812059553E+02  0.76582866770E+02  0.00000000000E+00 0. -1.
</event>
<event>
 7    1  0.2490079E-009  0.2263700E+03  0.7561462E-02  0.1129221E+00
          1   -1    0    0  501    0  0.00000000000E+00  0.00000000000E+00  0.43812742204E+02  0.43812742204E+02  0.00000000000E+00 0. -1.
         -1   -1    0    0    0  501 -0.00000000000E+00 -0.00000000000E+00 -0.11786506359E+04  0.11786506359E+04  0.00000000000E+00 0.  1.
         25    2    1    2    0    0  0.76972358253E+02 -0.18294911159E+03 -0.54000712315E+03  0.58877168183E+03  0.12509707793E+03 0.  0.
          5    1    3    3  502    0 -0.32607490093E+02 -0.21079293196E+02 -0.94318938678E+02  0.10208388514E+03  0.41800000000E+01 0.  1.
         -5    1    3    3    0  502  0.10957984835E+03 -0.16186981839E+03 -0.44568818447E+03  0.48668779669E+03  0.41800000000E+01 0.  1.
        -11    1    1    2    0    0 -0.72902730262E+02  0.58012680372E+02 -0.23698826325E+03  0.25464429324E+03  0.00000000000E+00 0. -1.
         11    1    1    2    0    0 -0.40696279915E+01  0.12493643121E+03 -0.35784250729E+03  0.37904740302E+03  0.00000000000E+00 0.  1.
</event>
<event>
 7    1  0.2490079E-009  0.1928701E+03  0.7561462E-02  0.1155898E+00
          1   -1    0    0  501    0  0.00000000000E+00  0.00000000000E+00  0.37420651620E+03  0.37420651620E+03  0.00000000000E+00 0. -1.
         -1   -1    0    0    0  501 -0.00000000000E+00 -0.00000000000E+00 -0.11953296987E+03  0.11953296987E+03  0.00000000000E+00 0.  1.
         25    2    1    2    0    0 -0.12977551856E+03  0.11439124748E+03  0.71522981622E+02  0.22514793923E+03  0.12509602281E+03 0.  0.
          5    1    3    3  502    0 -0.77823902362E+02  0.11356068537E+03  0.13569492644E+01  0.13773853038E+03  0.41800000000E+01 0. -1.
         -5    1    3    3    0  502 -0.51951616199E+02  0.83056211041E+00  0.70166032357E+02  0.87409408852E+02  0.41800000000E+01 0. -1.
        -11    1    1    2    0    0 -0.12934724653E+02 -0.23087053851E+02  0.32209277492E+02  0.41686409223E+02  0.00000000000E+00 0. -1.
         11    1    1    2    0    0  0.14271024321E+03 -0.91304193627E+02  0.15094128721E+03  0.22690513762E+03  0.00000000000E+00 0.  1.
</event>
<event>
 7    1  0.2490079E-009  0.1110013E+03  0.7561462E-02  0.1258727E+00
         -2   -1    0    0    0  501 -0.00000000000E+00  0.00000000000E+00  0.65321059388E+02  0.65321059388E+02  0.00000000000E+00 0. -1.
          2   -1    0    0  501    0  0.00000000000E+00 -0.00000000000E+00 -0.34512289653E+03  0.34512289653E+03  0.00000000000E+00 0.  1.
         25    2    1    2    0    0 -0.11197022998E+02  0.10225750176E+03 -0.15358258976E+03  0.22318970274E+03  0.12507622293E+03 0.  0.
          5    1    3    3  502    0 -0.93678170560E+01  0.33080986661E+01  0.20350441494E+02  0.23028512375E+02  0.41800000000E+01 0. -1.
         -5    1    3    3    0  502 -0.18292059420E+01  0.98949403091E+02 -0.17393303126E+03  0.20016119037E+03  0.41800000000E+01 0. -1.
        -11    1    1    2    0    0  0.28424116154E+02 -0.55827640913E+02 -0.12250293128E+03  0.13759223830E+03  0.00000000000E+00 0.  1.
         11    1    1    2    0    0 -0.17227093156E+02 -0.46429860844E+02 -0.37163161071E+01  0.49662014881E+02  0.00000000000E+00 0. -1.
</event>
<event>
 7    1  0.2490079E-009  0.1726280E+03  0.7561462E-02  0.1175135E+00
         -1   -1    0    0    0  501 -0.00000000000E+00  0.00000000000E+00  0.88687000916E+02  0.88687000916E+02  0.00000000000E+00 0.  1.
          1   -1    0    0  501    0  0.00000000000E+00 -0.00000000000E+00 -0.54138366216E+03  0.54138366216E+03  0.00000000000E+00 0. -1.
         25    2    1    2    0    0  0.16199095713E+03 -0.27873622259E+02 -0.97624455231E+02  0.22846607843E+03  0.12509278846E+03 0.  0.
          5    1    3    3  502    0  0.11327849347E+03 -0.32507230781E+02  0.13994685985E+01  0.11793289638E+03  0.41800000000E+01 0.  1.
         -5    1    3    3    0  502  0.48712463662E+02  0.46336085219E+01 -0.99023923829E+02  0.11053318205E+03  0.41800000000E+01 0.  1.
        -11    1    1    2    0    0 -0.12738504778E+03  0.50329859526E+02 -0.20950436864E+03  0.25030406636E+03  0.00000000000E+00 0.  1.
         11    1    1    2    0    0 -0.34605909350E+02 -0.22456237267E+02 -0.14556783737E+03  0.15130051828E+03  0.00000000000E+00 0. -1.
</event>
<event>
 7    1  0.2911329E-009  0.1550741E+03  0.7561462E-02  0.1194373E+00
         -1   -1    0    0    0  501 -0.00000000000E+00  0.00000000000E+00  0.51568325260E+02  0.51568325260E+02  0.00000000000E+00 0.  1.
          1   -1    0    0  501    0  0.00000000000E+00 -0.00000000000E+00 -0.53269197902E+03  0.53269197902E+03  0.00000000000E+00 0. -1.
         25    2    1    2    0    0 -0.69133915040E+02 -0.98988243394E+02 -0.31394287389E+03  0.35886719877E+03  0.12508943899E+03 0.  0.
          5    1    3    3  502    0  0.14823708800E+02 -0.86056131059E+02 -0.18166516720E+03  0.20160631292E+03  0.41800000000E+01 0. -1.
         -5    1    3    3    0  502 -0.83957623840E+02 -0.12932112335E+02 -0.13227770670E+03  0.15726088585E+03  0.41800000000E+01 0. -1.
        -11    1    1    2    0    0  0.69540107740E+02  0.43161308968E+02 -0.50840109799E+02  0.96350619825E+02  0.00000000000E+00 0.  1.
         11    1    1    2    0    0 -0.40619269962E+00  0.55826934426E+02 -0.11634067007E+03  0.12904248568E+03  0.00000000000E+00 0. -1.
</event>
<event>
 7    1  0.2490079E-009  0.1415570E+03  0.7561462E-02  0.1211249E+00
          1   -1    0    0  501    0  0.00000000000E+00  0.00000000000E+00  0.96231842696E+03  0.96231842696E+03  0.00000000000E+00 0. -1.
         -1   -1    0    0    0  501 -0.00000000000E+00 -0.00000000000E+00 -0.44210522995E+02  0.44210522995E+02  0.00000000000E+00 0.  1.
         25    2    1    2    0    0  0.38624792879E+01 -0.12004808592E+03  0.78913995835E+03  0.80796949399E+03  0.12508544150E+03 0.  0.
          5    1    3    3  502    0  0.28368942378E+02  0.68553843009E+01  0.53832856146E+02  0.61377862348E+02  0.41800000000E+01 0.  1.
         -5    1    3    3    0  502 -0.24506463090E+02 -0.12690347022E+03  0.73530710220E+03  0.74659163164E+03  0.41800000000E+01 0.  1.
        -11    1    1    2    0    0 -0.17972632690E+02  0.74154601766E+02  0.19096163723E+02  0.78654840651E+02  0.00000000000E+00 0.  1.
         11    1    1    2    0    0  0.14110153402E+02  0.45893484157E+02  0.10987178189E+03  0.11990461531E+03  0.00000000000E+00 0. -1.
</event>
<event>
 7    1  0.2650914E-009  0.1214767E+03  0.7561462E-02  0.1240681E+00
         -2   -1    0    0    0  501 -0.00000000000E+00  0.00000000000E+00  0.16669687840E+02  0.16669687840E+02  0.00000000000E+00 0.  1.
          2   -1    0    0  501    0  0.00000000000E+00 -0.00000000000E+00 -0.16496835798E+04  0.16496835798E+04  0.00000000000E+00 0. -1.
         25    2    1    2    0    0  0.97770914734E+02 -0.44890131566E+02 -0.11950369517E+04  0.12063726131E+04  0.12508912801E+03 0.  0.
          5    1    3    3  502    0  0.23128185603E+02  0.71820270296E+01 -0.35016568407E+02  0.42779982989E+02  0.41800000000E+01 0. -1.
         -5    1    3    3    0  502  0.74642729131E+02 -0.52072158596E+02 -0.11600203833E+04  0.11635926301E+04  0.41800000000E+01 0. -1.
        -11    1    1    2    0    0 -0.28584393925E+01  0.31252802702E+02 -0.41254335284E+02  0.51834626768E+02  0.00000000000E+00 0.  1.
         11    1    1    2    0    0 -0.94912475341E+02  0.13637328865E+02 -0.39672260491E+03  0.40814602774E+03  0.00000000000E+00 0. -1.
</event>
<event>
 7    1  0.2490079E-009  0.2118741E+03  0.7561462E-02  0.1140090E+00
         -1   -1    0    0    0  501 -0.00000000000E+00  0.00000000000E+00  0.11032175183E+03  0.11032175183E+03  0.00000000000E+00 0.  1.
          1   -1    0    0  501    0  0.00000000000E+00 -0.00000000000E+00 -0.43865600501E+03  0.43865600501E+03  0.00000000000E+00 0. -1.
         25    2    1    2    0    0 -0.26835435340E+01 -0.19120051315E+03 -0.17731939263E+03  0.28922911906E+03  0.12508588521E+03 0.  0.
          5    1    3    3  502    0  0.60026647008E+02 -0.90172871818E+02 -0.70350880626E+02  0.12923259638E+03  0.41800000000E+01 0. -1.
         -5    1    3    3    0  502 -0.62710190542E+02 -0.10102764133E+03 -0.10696851200E+03  0.15999652268E+03  0.41800000000E+01 0. -1.
        -11    1    1    2    0    0 -0.16823462494E+02  0.33793436098E+02  0.40075948285E+01  0.37961638925E+02  0.00000000000E+00 0.  1.
         11    1    1    2    0    0  0.19507006028E+02  0.15740707705E+03 -0.15502245537E+03  0.22178699885E+03  0.00000000000E+00 0. -1.
</event>
<event>
 7    1  0.2490079E-009  0.1180111E+03  0.7561462E-02  0.1246415E+00
         -4   -1    0    0    0  501 -0.00000000000E+00  0.00000000000E+00  0.20852877340E+03  0.20852877340E+03  0.00000000000E+00 0. -1.
          4   -1    0    0  501    0  0.00000000000E+00 -0.00000000000E+00 -0.90419702630E+02  0.90419702630E+02  0.00000000000E+00 0.  1.
         25    2    1    2    0    0 -0.83981237577E+02 -0.29877320391E+02  0.96319869622E+02  0.18130867676E+03  0.12509922640E+03 0.  0.
          5    1    3    3  502    0 -0.73693219373E+02  0.18120787937E+02  0.33323344747E+01  0.76076477245E+02  0.41800000000E+01 0. -1.
         -5    1    3    3    0  502 -0.10288018204E+02 -0.47998108327E+02  0.92987535147E+02  0.10523219951E+03  0.41800000000E+01 0. -1.
        -11    1    1    2    0    0  0.91859896898E+02  0.13856028648E+02  0.48445802281E+01  0.93025266168E+02  0.00000000000E+00 0.  1.
         11    1    1    2    0    0 -0.78786593205E+01  0.16021291743E+02  0.16944620921E+02  0.24614533104E+02  0.00000000000E+00 0. -1.
</event>
<event>
 7    1  0.2545426E-009  0.9154523E+02  0.7561462E-02  0.1299152E+00
         -1   -1    0    0    0  501 -0.00000000000E+00  0.00000000000E+00  0.54911192489E+02  0.54911192489E+02  0.00000000000E+00 0.  1.
          1   -1    0    0  501    0  0.00000000000E+00 -0.00000000000E+00 -0.26105664093E+03  0.26105664093E+03  0.00000000000E+00 0. -1.
         25    2    1    2    0    0 -0.34763255783E+02 -0.25002044438E+02 -0.15294326583E+03  0.20216778653E+03  0.12508631089E+03 0.  0.
          5    1    3    3  502    0 -0.70691569951E+02 -0.23890892902E+02 -0.14779359758E+03  0.16561549660E+03  0.41800000000E+01 0. -1.
         -5    1    3    3    0  502  0.35928314168E+02 -0.11111515365E+01 -0.51496682414E+01  0.36552289938E+02  0.41800000000E+01 0. -1.
        -11    1    1    2    0    0  0.20697224478E+01  0.37210205007E+02  0.12580199838E+02  0.39333758219E+02  0.00000000000E+00 0.  1.
         11    1    1    2    0    0  0.32693533335E+02 -0.12208160569E+02 -0.65782382453E+02  0.74466288666E+02  0.00000000000E+00 0. -1.
</event>
<event>
 7    1  0.2490079E-009  0.1769375E+03  0.7561462E-02  0.1170800E+00
         -2   -1    0    0    0  501 -0.00000000000E+00  0.00000000000E+00  0.27162790001E+02  0.27162790001E+02  0.00000000000E+00 0.  1.
          2   -1    0    0  501    0  0.00000000000E+00 -0.00000000000E+00 -0.13803723469E+04  0.13803723469E+04  0.00000000000E+00 0. -1.
         25    2    1    2    0    0 -0.12544942958E+03 -0.67798631718E+02 -0.97531169168E+03  0.99358676875E+03  0.12509019651E+03 0.  0.
          5    1    3    3  502    0 -0.42503891423E+02  0.35511258624E+02 -0.35003008056E+03  0.35440959351E+03  0.41800000000E+01 0. -1.
         -5    1    3    3    0  502 -0.82945538158E+02 -0.10330989034E+03 -0.62528161112E+03  0.63917717524E+03  0.41800000000E+01 0. -1.
        -11    1    1    2    0    0  0.11061605591E+03  0.15841185668E+02 -0.21471707176E+03  0.24205428295E+03  0.00000000000E+00 0.  1.
         11    1    1    2    0    0  0.14833373676E+02  0.51957446050E+02 -0.16318079347E+03  0.17189408522E+03  0.00000000000E+00 0. -1.
</event>
<event>
 7    1  0.2490079E-009  0.1000456E+03  0.7561462E-02  0.1280200E+00
         -1   -1    0    0    0  501 -0.00000000000E+00  0.00000000000E+00  0.26784507827E+03  0.26784507827E+03  0.00000000000E+00 0.  1.
          1   -1    0    0  501    0  0.00000000000E+00 -0.00000000000E+00 -0.47224266539E+02  0.47224266539E+02  0.00000000000E+00 0. -1.
         25    2    1    2    0    0  0.25899207317E+02  0.13421037147E+02  0.12501443528E+03  0.17924045248E+03  0.12509051763E+03 0.  0.
          5    1    3    3  502    0 -0.39838516963E+02 -0.50634357503E+01  0.44541457449E+01  0.40620901390E+02  0.41800000000E+01 0.  1.
         -5    1    3    3    0  502  0.65737724280E+02  0.18484472898E+02  0.12056028954E+03  0.13861955109E+03  0.41800000000E+01 0.  1.
        -11    1    1    2    0    0 -0.23487082270E+02 -0.49684779349E+02  0.78075639747E+02  0.95477881494E+02  0.00000000000E+00 0.  1.
         11    1    1    2    0    0 -0.24121250466E+01  0.36263742202E+02  0.17530736699E+02  0.40351010829E+02  0.00000000000E+00 0. -1.
</event>
<event>
 7    1  0.2490079E-009  0.3031028E+03  0.7561462E-02  0.1083700E+00
         -2   -1    0    0    0  501 -0.00000000000E+00  0.00000000000E+00  0.12873385757E+03  0.12873385757E+03  0.00000000000E+00 0.  1.
          2   -1    0    0  501    0  0.00000000000E+00 -0.00000000000E+00 -0.18031896704E+04  0.18031896704E+04  0.00000000000E+00 0. -1.
         25    2    1    2    0    0 -0.72791754463E+02  0.28127264697E+03 -0.15834125502E+04  0.16147006055E+04  0.12509916052E+03 0.  0.
          5    1    3    3  502    0  0.85375853910E+01  0.20129470281E+03 -0.95961353801E+03  0.98054477841E+03  0.41800000000E+01 0. -1.
         -5    1    3    3    0  502 -0.81329339854E+02  0.79977944155E+02 -0.62379901215E+03  0.63415582709E+03  0.41800000000E+01 0. -1.
        -11    1    1    2    0    0  0.60384331507E+02 -0.23594798547E+03 -0.38237821285E+02  0.24653569786E+03  0.00000000000E+00 0.  1.
         11    1    1    2    0    0  0.12407422956E+02 -0.45324661495E+02 -0.52805441415E+02  0.70687224638E+02  0.00000000000E+00 0. -1.
</event>
<event>
 7    1  0.2490079E-009  0.1223466E+03  0.7561462E-02  0.1239275E+00
          1   -1    0    0  501    0  0.00000000000E+00  0.00000000000E+00  0.11843130316E+03  0.11843130316E+03  0.00000000000E+00 0. -1.
         -1   -1    0    0    0  501 -0.00000000000E+00 -0.00000000000E+00 -0.17092997236E+03  0.17092997236E+03  0.00000000000E+00 0.  1.
         25    2    1    2    0    0 -0.88583909914E+02  0.23050952798E+02 -0.45727735522E+02  0.16160965599E+03  0.12509276395E+03 0.  0.
          5    1    3    3  502    0 -0.30577556865E+02  0.67347978870E+02  0.23360849938E+01  0.74119275056E+02  0.41800000000E+01 0.  1.
         -5    1    3    3    0  502 -0.58006353049E+02 -0.44297026072E+02 -0.48063820516E+02  0.87490380931E+02  0.41800000000E+01 0.  1.
        -11    1    1    2    0    0  0.38606530820E+01 -0.11336414676E+02 -0.35547909435E+02  0.37510969131E+02  0.00000000000E+00 0.  1.
         11    1    1    2    0    0  0.84723256832E+02 -0.11714538121E+02  0.28776975758E+02  0.90240650404E+02  0.00000000000E+00 0. -1.
</event>
<event>
 7    1  0.2490079E-009  0.1077884E+03  0.7561462E-02  0.1264721E+00
          2   -1    0    0  501    0  0.00000000000E+00  0.00000000000E+00  0.41863037615E+03  0.41863037615E+03  0.00000000000E+00 0. -1.
         -2   -1    0    0    0  501 -0.00000000000E+00 -0.00000000000E+00 -0.39384601256E+02  0.39384601256E+02  0.00000000000E+00 0.  1.
         25    2    1    2    0    0 -0.64381568408E+01  0.58270056091E+02  0.26791314651E+03  0.30143437932E+03  0.12509349169E+03 0.  0.
          5    1    3    3  502    0  0.18364381981E+02  0.83458764143E+02  0.24396365447E+03  0.25853114501E+03  0.41800000000E+01 0.  1.
         -5    1    3    3    0  502 -0.24802538822E+02 -0.25188708052E+02  0.23949492044E+02  0.42903234313E+02  0.41800000000E+01 0.  1.
        -11    1    1    2    0    0  0.96151695799E+01  0.16761720550E+02  0.66201157002E+02  0.68963758237E+02  0.00000000000E+00 0. -1.
         11    1    1    2    0    0 -0.31770127391E+01 -0.75031776641E+02  0.45131471378E+02  0.87616839847E+02  0.00000000000E+00 0.  1.
</event>
<event>
 7    1  0.2490079E-009  0.2061702E+03  0.7561462E-02  0.1144635E+00
          2   -1    0    0  501    0  0.00000000000E+00  0.00000000000E+00  0.34237809319E+03  0.34237809319E+03  0.00000000000E+00 0. -1.
         -2   -1    0    0    0  501 -0.00000000000E+00 -0.00000000000E+00 -0.12883545662E+03  0.12883545662E+03  0.00000000000E+00 0.  1.
         25    2    1    2    0    0 -0.17923784817E+03  0.93173211810E+01  0.10609107682E+03  0.24313265482E+03  0.12508058430E+03 0.  0.
          5    1    3    3  502    0 -0.11144598340E+03 -0.54515398621E+02  0.46800647290E+02  0.13266464823E+03  0.41800000000E+01 0. -1.
         -5    1    3    3    0  502 -0.67791864771E+02  0.63832719802E+02  0.59290429534E+02  0.11046800659E+03  0.41800000000E+01 0. -1.
        -11    1    1    2    0    0  0.13363766444E+03 -0.40633252138E+02  0.50081907716E+02  0.14838559235E+03  0.00000000000E+00 0. -1.
         11    1    1    2    0    0  0.45600183726E+02  0.31315930957E+02  0.57369652030E+02  0.79695302632E+02  0.00000000000E+00 0.  1.
</event>
<event>
 7    1  0.2490079E-009  0.1163651E+03  0.7561462E-02  0.1249217E+00
          3   -1    0    0  501    0  0.00000000000E+00  0.00000000000E+00  0.25177325639E+03  0.25177325639E+03  0.00000000000E+00 0. -1.
         -3   -1    0    0    0  501 -0.00000000000E+00 -0.00000000000E+00 -0.72742463154E+02  0.72742463154E+02  0.00000000000E+00 0.  1.
         25    2    1    2    0    0  0.76676759934E+02 -0.13174493937E+02  0.12720164260E+03  0.19462970172E+03  0.12509024786E+03 0.  0.
          5    1    3    3  502    0  0.65648434144E+02 -0.58969046460E+02  0.43450930927E+02  0.98450602560E+02  0.41800000000E+01 0. -1.
         -5    1    3    3    0  502  0.11028325790E+02  0.45794552523E+02  0.83750711670E+02  0.96179099163E+02  0.41800000000E+01 0. -1.
        -11    1    1    2    0    0 -0.74531220177E+02  0.29848960233E+02  0.53550411463E+01  0.80464524318E+02  0.00000000000E+00 0.  1.
         11    1    1    2    0    0 -0.21455397570E+01 -0.16674466295E+02  0.46474109489E+02  0.49421493501E+02  0.00000000000E+00 0. -1.
</event>
<event>
 7    1  0.2490079E-009  0.9500686E+02  0.7561462E-02  0.1291161E+00
         -3   -1    0    0    0  501 -0.00000000000E+00  0.00000000000E+00  0.50598825278E+03  0.50598825278E+03  0.00000000000E+00 0.  1.
          3   -1    0    0  501    0  0.00000000000E+00 -0.00000000000E+00 -0.37229201934E+02  0.37229201934E+02  0.00000000000E+00 0. -1.
         25    2    1    2    0    0 -0.73300943963E+02  0.32421240474E+01  0.32013865631E+03  0.35145446203E+03  0.12509172580E+03 0.  0.
          5    1    3    3  502    0 -0.29887844921E+02  0.76786681734E+01  0.29824653729E+01  0.31282786300E+02  0.41800000000E+01 0. -1.
         -5    1    3    3    0  502 -0.43413099041E+02 -0.44365441261E+01  0.31715619094E+03  0.32017167573E+03  0.41800000000E+01 0. -1.
        -11    1    1    2    0    0  0.68080950528E+02 -0.39293897621E+02  0.70597708596E+02  0.10565539586E+03  0.00000000000E+00 0.  1.
         11    1    1    2    0    0  0.52199934347E+01  0.36051773574E+02  0.78022685934E+02  0.86107596818E+02  0.00000000000E+00 0. -1.
</event>
<event>
 7    1  0.2490079E-009  0.1502017E+03  0.7561462E-02  0.1200225E+00
          1   -1    0    0  501    0  0.00000000000E+00  0.00000000000E+00  0.14469592186E+03  0.14469592186E+03  0.00000000000E+00 0. -1.
         -1   -1    0    0    0  501 -0.00000000000E+00 -0.00000000000E+00 -0.15927209341E+03  0.15927209341E+03  0.00000000000E+00 0.  1.
         25    2    1    2    0    0 -0.69619168243E+02  0.79877861689E+02 -0.93987616255E+01  0.16420470280E+03  0.12509015279E+03 0.  0.
          5    1    3    3  502    0 -0.10537939535E+03  0.56666228711E+02  0.24908472235E+01  0.11974788165E+03  0.41800000000E+01 0. -1.
         -5    1    3    3    0  502  0.35760227103E+02  0.23211632978E+02 -0.11889608849E+02  0.44456821147E+02  0.41800000000E+01 0. -1.
        -11    1    1    2    0    0  0.33505072660E+02  0.14713239972E+02 -0.11382319376E+02  0.38322663253E+02  0.00000000000E+00 0.  1.
         11    1    1    2    0    0  0.36114095583E+02 -0.94591101661E+02  0.62049094557E+01  0.10144064922E+03  0.00000000000E+00 0. -1.
</event>
<event>
 7    1  0.2490079E-009  0.1141801E+03  0.7561462E-02  0.1253019E+00
          3   -1    0    0  501    0  0.00000000000E+00  0.00000000000E+00  0.90024677355E+03  0.90024677355E+03  0.00000000000E+00 0. -1.
         -3   -1    0    0    0  501 -0.00000000000E+00 -0.00000000000E+00 -0.16085080581E+02  0.16085080581E+02  0.00000000000E+00 0.  1.
         25    2    1    2    0    0 -0.47409894432E+02  0.19355301192E+01  0.40405353755E+03  0.42562705675E+03  0.12509071054E+03 0.  0.
          5    1    3    3  502    0 -0.83523433186E+02 -0.18907876167E+02  0.32540477476E+03  0.33651064100E+03  0.41800000000E+01 0. -1.
         -5    1    3    3    0  502  0.36113538754E+02  0.20843406286E+02  0.78648762794E+02  0.89116415749E+02  0.41800000000E+01 0. -1.
        -11    1    1    2    0    0  0.47332195618E+02 -0.40413103687E+02  0.26770049770E+03  0.27484015748E+03  0.00000000000E+00 0.  1.
         11    1    1    2    0    0  0.77698814456E-01  0.38477573568E+02  0.21240765771E+03  0.21586463990E+03  0.00000000000E+00 0. -1.
</event>
<event>
 7    1  0.2490079E-009  0.1026843E+03  0.7561462E-02  0.1274750E+00
          2   -1    0    0  501    0  0.00000000000E+00  0.00000000000E+00  0.14109984858E+03  0.14109984858E+03  0.00000000000E+00 0.  1.
         -2   -1    0    0    0  501 -0.00000000000E+00 -0.00000000000E+00 -0.10157966426E+03  0.10157966426E+03  0.00000000000E+00 0. -1.
         25    2    1    2    0    0 -0.28133277191E+02  0.34135622407E+02  0.32540987807E+02  0.13661293678E+03  0.12508979417E+03 0.  0.
          5    1    3    3  502    0  0.30190467638E+02 -0.22970943800E+02  0.39072609958E+02  0.54619317500E+02  0.41800000000E+01 0. -1.
         -5    1    3    3    0  502 -0.58323744829E+02  0.57106566208E+02 -0.65316221514E+01  0.81993619281E+02  0.41800000000E+01 0. -1.
        -11    1    1    2    0    0  0.36937686853E+00 -0.52294045529E+02 -0.26764476805E+02  0.58746411428E+02  0.00000000000E+00 0. -1.
         11    1    1    2    0    0  0.27763900322E+02  0.18158423121E+02  0.33743673320E+02  0.47320164628E+02  0.00000000000E+00 0.  1.
</event>
<event>
 7    1  0.2490079E-009  0.2137364E+03  0.7561462E-02  0.1138641E+00
         -1   -1    0    0    0  501 -0.00000000000E+00  0.00000000000E+00  0.63435349868E+02  0.63435349868E+02  0.00000000000E+00 0.  1.
          1   -1    0    0  501    0  0.00000000000E+00 -0.00000000000E+00 -0.10276933159E+04  0.10276933159E+04  0.00000000000E+00 0. -1.
         25    2    1    2    0    0 -0.69866871728E+02  0.19330841772E+03 -0.71249363743E+03  0.75202673776E+03  0.12508999484E+03 0.  0.
          5    1    3    3  502    0 -0.49640747133E+02  0.18722564642E+03 -0.46702877267E+03  0.50561941553E+03  0.41800000000E+01 0. -1.
         -5    1    3    3    0  502 -0.20226124595E+02  0.60827712996E+01 -0.24546486475E+03  0.24640732224E+03  0.41800000000E+01 0. -1.
        -11    1    1    2    0    0  0.36647985033E+02 -0.16354272451E+03 -0.24043114588E+03  0.29308093329E+03  0.00000000000E+00 0. -1.
         11    1    1    2    0    0  0.33218886695E+02 -0.29765693209E+02 -0.11333182744E+02  0.46020994736E+02  0.00000000000E+00 0.  1.
</event>
<event>
 7    1  0.2490079E-009  0.8554043E+02  0.7561462E-02  0.1314025E+00
          4   -1    0    0  501    0  0.00000000000E+00  0.00000000000E+00  0.22818731567E+02  0.22818731567E+02  0.00000000000E+00 0. -1.
         -4   -1    0    0    0  501 -0.00000000000E+00 -0.00000000000E+00 -0.63735495329E+03  0.63735495329E+03  0.00000000000E+00 0.  1.
         25    2    1    2    0    0 -0.33196337834E+02 -0.18523218582E+02 -0.44254401338E+03  0.46145167328E+03  0.12508931420E+03 0.  0.
          5    1    3    3  502    0 -0.31573311956E+02  0.32922575056E+02 -0.36757398747E+03  0.37041716839E+03  0.41800000000E+01 0. -1.
         -5    1    3    3    0  502 -0.16230258780E+01 -0.51445793638E+02 -0.74970025910E+02  0.91034504892E+02  0.41800000000E+01 0. -1.
        -11    1    1    2    0    0  0.40122314153E+02 -0.12360121852E+02 -0.15910103151E+03  0.16454698700E+03  0.00000000000E+00 0.  1.
         11    1    1    2    0    0 -0.69259763191E+01  0.30883340434E+02 -0.12891176844E+02  0.34175024575E+02  0.00000000000E+00 0. -1.
</event>
<event>
 7    1  0.2490079E-009  0.1482595E+03  0.7561462E-02  0.1202628E+00
          2   -1    0    0  501    0  0.00000000000E+00  0.00000000000E+00  0.51034685634E+03  0.51034685634E+03  0.00000000000E+00 0. -1.
         -2   -1    0    0    0  501 -0.00000000000E+00 -0.00000000000E+00 -0.63154558236E+02  0.63154558236E+02  0.00000000000E+00 0.  1.
         25    2    1    2    0    0  0.10656762866E+03  0.78465406821E+02  0.31203573280E+03  0.36128520880E+03  0.12508886443E+03 0.  0.
          5    1    3    3  502    0  0.29873267068E+02  0.33023262443E+02  0.93177735795E+01  0.45686335508E+02  0.41800000000E+01 0. -1.
         -5    1    3    3    0  502  0.76694361596E+02  0.45442144378E+02  0.30271795923E+03  0.31559887329E+03  0.41800000000E+01 0. -1.
        -11    1    1    2    0    0  0.17597765704E+02 -0.50714625707E+01  0.81995130980E+01  0.20065719659E+02  0.00000000000E+00 0.  1.
         11    1    1    2    0    0 -0.12416539437E+03 -0.73393944251E+02  0.12695705220E+03  0.19215048612E+03  0.00000000000E+00 0. -1.
</event>
<event>
 7    1  0.2490079E-009  0.1284409E+03  0.7561462E-02  0.1229788E+00
          1   -1    0    0  501    0  0.00000000000E+00  0.00000000000E+00  0.72235596846E+03  0.72235596846E+03  0.00000000000E+00 0. -1.
         -1   -1    0    0    0  501 -0.00000000000E+00 -0.00000000000E+00 -0.29725427256E+02  0.29725427256E+02  0.00000000000E+00 0.  1.
         25    2    1    2    0    0  0.93851696281E+02 -0.42792245990E+02  0.39666140601E+03  0.42851914043E+03  0.12509622488E+03 0.  0.
          5    1    3    3  502    0  0.11628869536E+03 -0.14864167101E+02  0.23221572091E+03  0.26016459708E+03  0.41800000000E+01 0.  1.
         -5    1    3    3    0  502 -0.22436999082E+02 -0.27928078889E+02  0.16444568510E+03  0.16835454335E+03  0.41800000000E+01 0.  1.
        -11    1    1    2    0    0 -0.67280832997E+02  0.26341458150E+02  0.27858280650E+03  0.28780021366E+03  0.00000000000E+00 0. -1.
         11    1    1    2    0    0 -0.26570863284E+02  0.16450787840E+02  0.17386328693E+02  0.35762041631E+02  0.00000000000E+00 0.  1.
</event>
<event>
 7    1  0.2490079E-009  0.1066037E+03  0.7561462E-02  0.1266992E+00
         -2   -1    0    0    0  501 -0.00000000000E+00  0.00000000000E+00  0.58102713037E+03  0.58102713037E+03  0.00000000000E+00 0.  1.
          2   -1    0    0  501    0  0.00000000000E+00 -0.00000000000E+00 -0.31815901500E+02  0.31815901500E+02  0.00000000000E+00 0. -1.
         25    2    1    2    0    0 -0.51724186469E+02 -0.60403122109E+02  0.25838653393E+03  0.29788406558E+03  0.12508951589E+03 0.  0.
          5    1    3    3  502    0 -0.26059969896E+02 -0.62073114680E+02  0.26292204309E+03  0.27143630328E+03  0.41800000000E+01 0.  1.
         -5    1    3    3    0  502 -0.25664216573E+02  0.16699925702E+01 -0.45355091568E+01  0.26447762302E+02  0.41800000000E+01 0.  1.
        -11    1    1    2    0    0  0.76712156755E+02  0.35877668986E+02  0.22484277300E+03  0.24026284502E+03  0.00000000000E+00 0.  1.
         11    1    1    2    0    0 -0.24987970286E+02  0.24525453123E+02  0.65981921937E+02  0.74696121267E+02  0.00000000000E+00 0. -1.
</event>
<event>
 7    1  0.2490079E-009  0.1076723E+03  0.7561462E-02  0.1264942E+00
          3   -1    0    0  501    0  0.00000000000E+00  0.00000000000E+00  0.11621971516E+03  0.11621971516E+03  0.00000000000E+00 0. -1.
         -3   -1    0    0    0  501 -0.00000000000E+00 -0.00000000000E+00 -0.12238720538E+03  0.12238720538E+03  0.00000000000E+00 0.  1.
         25    2    1    2    0    0 -0.44706050062E+02  0.23960791949E+02 -0.15796462778E+02  0.13590340960E+03  0.12508979991E+03 0.  0.
          5    1    3    3  502    0 -0.85152631125E+02  0.17761563806E+02 -0.30425305229E+02  0.92247576307E+02  0.41800000000E+01 0.  1.
         -5    1    3    3    0  502  0.40446581063E+02  0.61992281430E+01  0.14628842450E+02  0.43655833295E+02  0.41800000000E+01 0.  1.
        -11    1    1    2    0    0  0.27000077692E+01  0.23553072696E+02  0.27988565555E+02  0.36679654813E+02  0.00000000000E+00 0. -1.
         11    1    1    2    0    0  0.42006042293E+02 -0.47513864645E+02 -0.18359592996E+02  0.66023856125E+02  0.00000000000E+00 0.  1.
</event>
<event>
 7    1  0.2490079E-009  0.1096271E+03  0.7561462E-02  0.1261262E+00
         -2   -1    0    0    0  501 -0.00000000000E+00  0.00000000000E+00  0.50160757717E+02  0.50160757717E+02  0.00000000000E+00 0.  1.
          2   -1    0    0  501    0  0.00000000000E+00 -0.00000000000E+00 -0.28937670012E+03  0.28937670012E+03  0.00000000000E+00 0. -1.
         25    2    1    2    0    0 -0.20790718293E+02  0.10085653373E+02 -0.19543372575E+03  0.23318565995E+03  0.12508891427E+03 0.  0.
          5    1    3    3  502    0 -0.72650764823E+02  0.39089119212E+00 -0.95092907682E+02  0.11974314142E+03  0.41800000000E+01 0.  1.
         -5    1    3    3    0  502  0.51860046530E+02  0.96947621805E+01 -0.10034081807E+03  0.11344251853E+03  0.41800000000E+01 0.  1.
        -11    1    1    2    0    0 -0.35393512224E+02  0.40468556108E+01 -0.30540557256E+02  0.46923377813E+02  0.00000000000E+00 0. -1.
         11    1    1    2    0    0  0.56184230517E+02 -0.14132508983E+02 -0.13241659393E+02  0.59428420073E+02  0.00000000000E+00 0.  1.
</event>
<event>
 7    1  0.2490079E-009  0.8632577E+02  0.7561462E-02  0.1312001E+00
          1   -1    0    0  501    0  0.00000000000E+00  0.00000000000E+00  0.19345777569E+03  0.19345777569E+03  0.00000000000E+00 0. -1.
         -1   -1    0    0    0  501 -0.00000000000E+00 -0.00000000000E+00 -0.74270727129E+02  0.74270727129E+02  0.00000000000E+00 0.  1.
         25    2    1    2    0    0  0.27962599875E+02  0.27611109160E+02  0.30437006127E+02  0.13460471583E+03  0.12509091830E+03 0.  0.
          5    1    3    3  502    0 -0.25516633542E+02  0.20498892344E+02 -0.36056388463E+02  0.48875747806E+02  0.41800000000E+01 0.  1.
         -5    1    3    3    0  502  0.53479233417E+02  0.71122168158E+01  0.66493394589E+02  0.85728968027E+02  0.41800000000E+01 0.  1.
        -11    1    1    2    0    0 -0.12585525653E+02  0.26474697078E+02  0.66459862280E+02  0.72637582116E+02  0.00000000000E+00 0.  1.
         11    1    1    2    0    0 -0.15377074222E+02 -0.54085806239E+02  0.22290180151E+02  0.60486204867E+02  0.00000000000E+00 0. -1.
</event>
<event>
 7    1  0.2490079E-009  0.1079723E+03  0.7561462E-02  0.1264372E+00
          1   -1    0    0  501    0  0.00000000000E+00  0.00000000000E+00  0.27211182827E+03  0.27211182827E+03  0.00000000000E+00 0. -1.
         -1   -1    0    0    0  501 -0.00000000000E+00 -0.00000000000E+00 -0.69373323559E+02  0.69373323559E+02  0.00000000000E+00 0.  1.
         25    2    1    2    0    0 -0.24136381226E+02 -0.59415965543E+02  0.19066143580E+03  0.23688573700E+03  0.12510094896E+03 0.  0.
          5    1    3    3  502    0 -0.14998919204E+02 -0.84075862118E+02  0.19204632264E+03  0.21022126583E+03  0.41800000000E+01 0. -1.
         -5    1    3    3    0  502 -0.91374620220E+01  0.24659896575E+02 -0.13848868338E+01  0.26664471171E+02  0.41800000000E+01 0. -1.
        -11    1    1    2    0    0  0.51075432184E+02  0.17511510912E+02  0.41157316569E+01  0.54150642048E+02  0.00000000000E+00 0. -1.
         11    1    1    2    0    0 -0.26939050957E+02  0.41904454631E+02  0.79613372532E+01  0.50448772782E+02  0.00000000000E+00 0.  1.
</event>
<event>
 7    1  0.2490079E-009  0.3753236E+03  0.7561462E-02  0.1052676E+00
         -2   -1    0    0    0  501 -0.00000000000E+00  0.00000000000E+00  0.86352733556E+02  0.86352733556E+02  0.00000000000E+00 0. -1.
          2   -1    0    0  501    0  0.00000000000E+00 -0.00000000000E+00 -0.17233454041E+04  0.17233454041E+04  0.00000000000E+00 0.  1.
         25    2    1    2    0    0 -0.13583630427E+03  0.34279224533E+03 -0.75990229089E+03  0.85384783561E+03  0.12508640880E+03 0.  0.
          5    1    3    3  502    0 -0.10273302833E+03  0.33034913275E+03 -0.72802462469E+03  0.80605331782E+03  0.41800000000E+01 0.  1.
         -5    1    3    3    0  502 -0.33103275936E+02  0.12443112585E+02 -0.31877666195E+02  0.47794517788E+02  0.41800000000E+01 0.  1.
        -11    1    1    2    0    0  0.75238824419E+02 -0.16863988288E+03 -0.32522352293E+03  0.37399282167E+03  0.00000000000E+00 0.  1.
         11    1    1    2    0    0  0.60597479848E+02 -0.17415236245E+03 -0.55186685677E+03  0.58185748042E+03  0.00000000000E+00 0. -1.
</event>
<event>
 7    1  0.2490079E-009  0.1172067E+03  0.7561462E-02  0.1247777E+00
          2   -1    0    0  501    0  0.00000000000E+00  0.00000000000E+00  0.55915478830E+03  0.55915478830E+03  0.00000000000E+00 0. -1.
         -2   -1    0    0    0  501 -0.00000000000E+00 -0.00000000000E+00 -0.42619004289E+02  0.42619004289E+02  0.00000000000E+00 0.  1.
         25    2    1    2    0    0 -0.18446155953E+02  0.94208816542E+02  0.38953173186E+03  0.42023720663E+03  0.12509507554E+03 0.  0.
          5    1    3    3  502    0 -0.24260064999E+02  0.21548553883E+02  0.10681973889E+02  0.34416099349E+02  0.41800000000E+01 0. -1.
         -5    1    3    3    0  502  0.58139090460E+01  0.72660262659E+02  0.37884975797E+03  0.38582110728E+03  0.41800000000E+01 0. -1.
        -11    1    1    2    0    0 -0.34095669496E+02 -0.27723210134E+02  0.32860349394E+02  0.54871610336E+02  0.00000000000E+00 0.  1.
         11    1    1    2    0    0  0.52541825449E+02 -0.66485606408E+02  0.94143702749E+02  0.12666497562E+03  0.00000000000E+00 0. -1.
</event>
<event>
 7    1  0.2490079E-009  0.9756625E+02  0.7561462E-02  0.1285499E+00
          1   -1    0    0  501    0  0.00000000000E+00  0.00000000000E+00  0.10089165592E+03  0.10089165592E+03  0.00000000000E+00 0. -1.
         -1   -1    0    0    0  501 -0.00000000000E+00 -0.00000000000E+00 -0.16144986039E+03  0.16144986039E+03  0.00000000000E+00 0.  1.
         25    2    1    2    0    0 -0.20482917814E+02 -0.44535410781E+01 -0.93057504109E+02  0.15730823787E+03  0.12508716433E+03 0.  0.
          5    1    3    3  502    0 -0.51140003247E+02  0.32740897002E+02 -0.10712711555E+02  0.61802110461E+02  0.41800000000E+01 0. -1.
         -5    1    3    3    0  502  0.30657085433E+02 -0.37194438080E+02 -0.82344792555E+02  0.95506127407E+02  0.41800000000E+01 0. -1.
        -11    1    1    2    0    0 -0.76627474562E+01 -0.35886896975E+02  0.41100259551E+02  0.55098261390E+02  0.00000000000E+00 0. -1.
         11    1    1    2    0    0  0.28145665270E+02  0.40340438053E+02 -0.86009599122E+01  0.49935017044E+02  0.00000000000E+00 0.  1.
</event>
<event>
 7    1  0.2490079E-009  0.9511789E+02  0.7561462E-02  0.1290911E+00
          1   -1    0    0  501    0  0.00000000000E+00  0.00000000000E+00  0.43263711979E+03  0.43263711979E+03  0.00000000000E+00 0. -1.
         -1   -1    0    0    0  501 -0.00000000000E+00 -0.00000000000E+00 -0.34055042281E+02  0.34055042281E+02  0.00000000000E+00 0.  1.
         25    2    1    2    0    0 -0.19713841367E+02 -0.16039306652E+02  0.13629130254E+03  0.18673644993E+03  0.12509711301E+03 0.  0.
          5    1    3    3  502    0 -0.16790534503E+02 -0.67730449455E+02  0.49740970263E+02  0.85796109207E+02  0.41800000000E+01 0. -1.
         -5    1    3    3    0  502 -0.29233068638E+01  0.51691142803E+02  0.86550332276E+02  0.10094034072E+03  0.41800000000E+01 0. -1.
        -11    1    1    2    0    0  0.34548990998E+02  0.31648432613E+02  0.25157820377E+03  0.25590398332E+03  0.00000000000E+00 0. -1.
         11    1    1    2    0    0 -0.14835149631E+02 -0.15609125960E+02  0.10712571198E+02  0.24051728825E+02  0.00000000000E+00 0.  1.
</event>
<event>
 7    1  0.2490079E-009  0.9282501E+02  0.7561462E-02  0.1296151E+00
          1   -1    0    0  501    0  0.00000000000E+00  0.00000000000E+00  0.13823716648E+03  0.13823716648E+03  0.00000000000E+00 0.  1.
         -1   -1    0    0    0  501 -0.00000000000E+00 -0.00000000000E+00 -0.11342167932E+03  0.11342167932E+03  0.00000000000E+00 0. -1.
         25    2    1    2    0    0  0.55455115733E+02 -0.14594723085E+02 -0.99088119677E+01  0.13796288807E+03  0.12508916071E+03 0.  0.
          5    1    3    3  502    0  0.30218864488E+02  0.28266566024E+02  0.46671134185E+02  0.62512764231E+02  0.41800000000E+01 0.  1.
         -5    1    3    3    0  502  0.25236251245E+02 -0.42861289109E+02 -0.56579946153E+02  0.75450123841E+02  0.41800000000E+01 0.  1.
        -11    1    1    2    0    0 -0.60359080410E+02  0.37275794053E+02  0.49211961287E+02  0.86339565345E+02  0.00000000000E+00 0.  1.
         11    1    1    2    0    0  0.49039646775E+01 -0.22681070968E+02 -0.14487662156E+02  0.27356392389E+02  0.00000000000E+00 0. -1.
</event>
<event>
 7    1  0.2490079E-009  0.1320193E+03  0.7561462E-02  0.1224490E+00
          1   -1    0    0  501    0  0.00000000000E+00  0.00000000000E+00  0.25590636930E+03  0.25590636930E+03  0.00000000000E+00 0. -1.
         -1   -1    0    0    0  501 -0.00000000000E+00 -0.00000000000E+00 -0.99855281903E+02  0.99855281903E+02  0.00000000000E+00 0.  1.
         25    2    1    2    0    0  0.80467725337E+02  0.69790461845E+02  0.13569181579E+03  0.21308436394E+03  0.12508762488E+03 0.  0.
          5    1    3    3  502    0  0.80398270623E+02  0.86483074518E+02  0.54553465697E+02  0.13014129674E+03  0.41800000000E+01 0.  1.
         -5    1    3    3    0  502  0.69454714009E-01 -0.16692612672E+02  0.81138350089E+02  0.82943067203E+02  0.41800000000E+01 0.  1.
        -11    1    1    2    0    0 -0.33157847466E+01 -0.48535776433E+02 -0.20537931774E+02  0.52806464226E+02  0.00000000000E+00 0.  1.
         11    1    1    2    0    0 -0.77151940590E+02 -0.21254685412E+02  0.40897203389E+02  0.89870823040E+02  0.00000000000E+00 0. -1.
</event>
<event>
 7    1  0.2490079E-009  0.9704870E+02  0.7561462E-02  0.1286627E+00
         -1   -1    0    0    0  501 -0.00000000000E+00  0.00000000000E+00  0.70170310832E+02  0.70170310832E+02  0.00000000000E+00 0.  1.
          1   -1    0    0  501    0  0.00000000000E+00 -0.00000000000E+00 -0.18703295001E+03  0.18703295001E+03  0.00000000000E+00 0. -1.
         25    2    1    2    0    0 -0.45367464341E+00 -0.14845416220E+02 -0.32552011005E+02  0.13010665316E+03  0.12509002986E+03 0.  0.
          5    1    3    3  502    0  0.31191155337E+02  0.46449051653E+02 -0.75323474390E+01  0.56609285711E+02  0.41800000000E+01 0. -1.
         -5    1    3    3    0  502 -0.31644829981E+02 -0.61294467873E+02 -0.25019663566E+02  0.73497367445E+02  0.41800000000E+01 0. -1.
        -11    1    1    2    0    0  0.32253131967E+02 -0.30459917222E+01  0.29342892680E+01  0.32529258227E+02  0.00000000000E+00 0.  1.
         11    1    1    2    0    0 -0.31799457324E+02  0.17891407942E+02 -0.87244917440E+02  0.94567349457E+02  0.00000000000E+00 0. -1.
</event>
<event>
 7    1  0.2490079E-009  0.1426111E+03  0.7561462E-02  0.1209858E+00
          2   -1    0    0  501    0  0.00000000000E+00  0.00000000000E+00  0.29932374464E+03  0.29932374464E+03  0.00000000000E+00 0. -1.
         -2   -1    0    0    0  501 -0.00000000000E+00 -0.00000000000E+00 -0.68330934540E+02  0.68330934540E+02  0.00000000000E+00 0.  1.
         25    2    1    2    0    0 -0.17221515797E+02 -0.90445117151E+02  0.12158018137E+03  0.19724239065E+03  0.12508365338E+03 0.  0.
          5    1    3    3  502    0  0.43340519862E+01 -0.11894747783E+03  0.97867523421E+02  0.15415190894E+03  0.41800000000E+01 0. -1.
         -5    1    3    3    0  502 -0.21555567783E+02  0.28502360680E+02  0.23712657954E+02  0.43090481710E+02  0.41800000000E+01 0. -1.
        -11    1    1    2    0    0  0.39437329093E+02  0.25893337190E+01  0.40287184584E+02  0.56436378488E+02  0.00000000000E+00 0.  1.
         11    1    1    2    0    0 -0.22215813296E+02  0.87855783432E+02  0.69125444146E+02  0.11397591005E+03  0.00000000000E+00 0. -1.
</event>
<event>
 7    1  0.2490079E-009  0.9954895E+02  0.7561462E-02  0.1281247E+00
          3   -1    0    0  501    0  0.00000000000E+00  0.00000000000E+00  0.22432355448E+03  0.22432355448E+03  0.00000000000E+00 0. -1.
         -3   -1    0    0    0  501 -0.00000000000E+00 -0.00000000000E+00 -0.74070697813E+02  0.74070697813E+02  0.00000000000E+00 0.  1.
         25    2    1    2    0    0  0.57953129691E+02  0.16147409950E+02  0.44259613184E+02  0.14569091673E+03  0.12509047034E+03 0.  0.
          5    1    3    3  502    0 -0.35251869128E+02  0.11517848985E+02 -0.86835042747E+01  0.38317499511E+02  0.41800000000E+01 0.  1.
         -5    1    3    3    0  502  0.93204998819E+02  0.46295609652E+01  0.52943117459E+02  0.10737341722E+03  0.41800000000E+01 0.  1.
        -11    1    1    2    0    0 -0.39422011065E+02 -0.26148878265E+02  0.28058104177E+01  0.47389148157E+02  0.00000000000E+00 0.  1.
         11    1    1    2    0    0 -0.18531118625E+02  0.10001468315E+02  0.10318743306E+03  0.10531418740E+03  0.00000000000E+00 0. -1.
</event>
<event>
 7    1  0.2490079E-009  0.1475266E+03  0.7561462E-02  0.1203546E+00
          2   -1    0    0  501    0  0.00000000000E+00  0.00000000000E+00  0.29701537665E+02  0.29701537665E+02  0.00000000000E+00 0. -1.
         -2   -1    0    0    0  501 -0.00000000000E+00 -0.00000000000E+00 -0.10716271541E+04  0.10716271541E+04  0.00000000000E+00 0.  1.
         25    2    1    2    0    0  0.11961823591E+03  0.28428741654E+02 -0.76485318697E+03  0.78470650753E+03  0.12508872700E+03 0.  0.
          5    1    3    3  502    0  0.83773686156E+02  0.74646933902E+02 -0.58024692205E+03  0.59101113203E+03  0.41800000000E+01 0.  1.
         -5    1    3    3    0  502  0.35844549755E+02 -0.46218192248E+02 -0.18460626492E+03  0.19369537550E+03  0.41800000000E+01 0.  1.
        -11    1    1    2    0    0 -0.57491185873E+02 -0.22442814416E+02 -0.23084486410E+03  0.23895243806E+03  0.00000000000E+00 0.  1.
         11    1    1    2    0    0 -0.62127050038E+02 -0.59859272378E+01 -0.46227565347E+02  0.77669746164E+02  0.00000000000E+00 0. -1.
</event>
<event>
 7    1  0.2490079E-009  0.1245296E+03  0.7561462E-02  0.1235806E+00
          1   -1    0    0  501    0  0.00000000000E+00  0.00000000000E+00  0.31663524475E+03  0.31663524475E+03  0.00000000000E+00 0. -1.
         -1   -1    0    0    0  501 -0.00000000000E+00 -0.00000000000E+00 -0.62952775669E+02  0.62952775669E+02  0.00000000000E+00 0.  1.
         25    2    1    2    0    0 -0.52957844929E+02  0.71879394292E+02  0.15720502589E+03  0.21984598268E+03  0.12509058826E+03 0.  0.
          5    1    3    3  502    0  0.15823962977E+02 -0.27942501539E+02  0.33842616732E+02  0.46839900766E+02  0.41800000000E+01 0. -1.
         -5    1    3    3    0  502 -0.68781807905E+02  0.99821895831E+02  0.12336240915E+03  0.17300608191E+03  0.41800000000E+01 0. -1.
        -11    1    1    2    0    0  0.14915954385E+02 -0.48467919819E+02 -0.28929274300E+01  0.50793641098E+02  0.00000000000E+00 0.  1.
         11    1    1    2    0    0  0.38041890543E+02 -0.23411474473E+02  0.99370370626E+02  0.10894839664E+03  0.00000000000E+00 0. -1.
</event>
<event>
 7    1  0.2490079E-009  0.9795594E+02  0.7561462E-02  0.1284654E+00
          2   -1    0    0  501    0  0.00000000000E+00  0.00000000000E+00  0.20875216326E+03  0.20875216326E+03  0.00000000000E+00 0.  1.
         -2   -1    0    0    0  501 -0.00000000000E+00 -0.00000000000E+00 -0.95346085896E+02  0.95346085896E+02  0.00000000000E+00 0. -1.
         25    2    1    2    0    0  0.38222653537E+02 -0.57712770851E+02  0.13126587916E+03  0.19408789315E+03  0.12509054350E+03 0.  0.
          5    1    3    3  502    0 -0.23288391006E+02 -0.33602411404E+02  0.12012101143E+03  0.12695668945E+03  0.41800000000E+01 0.  1.
         -5    1    3    3    0  502  0.61511044543E+02 -0.24110359447E+02  0.11144867726E+02  0.67131203699E+02  0.41800000000E+01 0.  1.
        -11    1    1    2    0    0  0.10271443831E+02 -0.31981429076E+01 -0.29396018952E+02  0.31302661335E+02  0.00000000000E+00 0. -1.
         11    1    1    2    0    0 -0.48494097368E+02  0.60910913758E+02  0.11536217154E+02  0.78707694672E+02  0.00000000000E+00 0.  1.
</event>
<event>
 7    1  0.2490079E-009  0.2557870E+03  0.7561462E-02  0.1109701E+00
          1   -1    0    0  501    0  0.00000000000E+00  0.00000000000E+00  0.15737343943E+03  0.15737343943E+03  0.00000000000E+00 0. -1.
         -1   -1    0    0    0  501 -0.00000000000E+00 -0.00000000000E+00 -0.42790978570E+03  0.42790978570E+03  0.00000000000E+00 0.  1.
         25    2    1    2    0    0  0.14863372591E+03 -0.18041231192E+03 -0.16642549749E+03  0.31302603924E+03  0.12508904131E+03 0.  0.
          5    1    3    3  502    0  0.16289330131E+03 -0.11861191432E+03 -0.12527149192E+03  0.23730451516E+03  0.41800000000E+01 0.  1.
         -5    1    3    3    0  502 -0.14259575394E+02 -0.61800397596E+02 -0.41154005576E+02  0.75721524076E+02  0.41800000000E+01 0.  1.
        -11    1    1    2    0    0 -0.55853778272E+02  0.12858732253E+03 -0.31915007544E+02  0.14378077677E+03  0.00000000000E+00 0.  1.
         11    1    1    2    0    0 -0.92779947641E+02  0.51824989387E+02 -0.72195841237E+02  0.12847640912E+03  0.00000000000E+00 0. -1.
</event>
<event>
 7    1  0.2490079E-009  0.1779594E+03  0.7561462E-02  0.1169793E+00
         -2   -1    0    0    0  501 -0.00000000000E+00  0.00000000000E+00  0.71542545557E+02  0.71542545557E+02  0.00000000000E+00 0. -1.
          2   -1    0    0  501    0  0.00000000000E+00 -0.00000000000E+00 -0.63977453302E+03  0.63977453302E+03  0.00000000000E+00 0.  1.
         25    2    1    2    0    0  0.17171573543E+03 -0.42627708766E+02 -0.20224725375E+03  0.29640353822E+03  0.12509072895E+03 0.  0.
          5    1    3    3  502    0  0.12623465013E+03 -0.28656918144E+02 -0.53416941655E+02  0.14009728015E+03  0.41800000000E+01 0. -1.
         -5    1    3    3    0  502  0.45481085300E+02 -0.13970790622E+02 -0.14883031210E+03  0.15630625806E+03  0.41800000000E+01 0. -1.
        -11    1    1    2    0    0 -0.96131554753E+01  0.88331448425E+01  0.17088881686E+00  0.13056278528E+02  0.00000000000E+00 0. -1.
         11    1    1    2    0    0 -0.16210257995E+03  0.33794563923E+02 -0.36615562253E+03  0.40185726183E+03  0.00000000000E+00 0.  1.
</event>
<event>
 7    1  0.2490079E-009  0.1233299E+03  0.7561462E-02  0.1237703E+00
         -1   -1    0    0    0  501 -0.00000000000E+00  0.00000000000E+00  0.19700207503E+02  0.19700207503E+02  0.00000000000E+00 0.  1.
          1   -1    0    0  501    0  0.00000000000E+00 -0.00000000000E+00 -0.26303957032E+04  0.26303957032E+04  0.00000000000E+00 0. -1.
         25    2    1    2    0    0 -0.56742230555E+02 -0.50194933766E+02 -0.24302978352E+04  0.24346931140E+04  0.12507509541E+03 0.  0.
          5    1    3    3  502    0  0.33768237834E+02 -0.42331456605E+02 -0.77717893238E+03  0.77907432986E+03  0.41800000000E+01 0.  1.
         -5    1    3    3    0  502 -0.90510468390E+02 -0.78634771613E+01 -0.16531189028E+04  0.16556187842E+04  0.41800000000E+01 0.  1.
        -11    1    1    2    0    0  0.77441730706E+01  0.51800843934E+02 -0.14708209568E+03  0.15612956965E+03  0.00000000000E+00 0. -1.
         11    1    1    2    0    0  0.48998057485E+02 -0.16059101680E+01 -0.33315564790E+02  0.59273227026E+02  0.00000000000E+00 0.  1.
</event>
<event>
 7    1  0.3171776E-009  0.6885307E+02  0.7561462E-02  0.1364037E+00
         -1   -1    0    0    0  501 -0.00000000000E+00  0.00000000000E+00  0.95670315694E+02  0.95670315694E+02  0.00000000000E+00 0.  1.
          1   -1    0    0  501    0  0.00000000000E+00 -0.00000000000E+00 -0.15297454781E+03  0.15297454781E+03  0.00000000000E+00 0. -1.
         25    2    1    2    0    0 -0.14618717343E+02 -0.46513761555E+02 -0.83496788577E+01  0.13451786713E+03  0.12509237598E+03 0.  0.
          5    1    3    3  502    0  0.14027988826E+01  0.69640946210E+01  0.51739206214E+02  0.52391643592E+02  0.41800000000E+01 0. -1.
         -5    1    3    3    0  502 -0.16021516225E+02 -0.53477856176E+02 -0.60088885072E+02  0.82126223537E+02  0.41800000000E+01 0. -1.
        -11    1    1    2    0    0 -0.21128205007E+02  0.16608065003E+02  0.18146985876E+02  0.32427487821E+02  0.00000000000E+00 0.  1.
         11    1    1    2    0    0  0.35746922350E+02  0.29905696552E+02 -0.67101539130E+02  0.81699508550E+02  0.00000000000E+00 0. -1.
</event>
<event>
 7    1  0.2490079E-009  0.1394705E+03  0.7561462E-02  0.1214043E+00
          3   -1    0    0  501    0  0.00000000000E+00  0.00000000000E+00  0.36527481698E+02  0.36527481698E+02  0.00000000000E+00 0. -1.
         -3   -1    0    0    0  501 -0.00000000000E+00 -0.00000000000E+00 -0.72061530173E+03  0.72061530173E+03  0.00000000000E+00 0.  1.
         25    2    1    2    0    0 -0.10961647397E+03 -0.21678437800E+02 -0.26115040275E+03  0.31037616670E+03  0.12509238972E+03 0.  0.
          5    1    3    3  502    0 -0.84441508922E+02  0.24694902533E+02 -0.23574954709E+03  0.25166550815E+03  0.41800000000E+01 0.  1.
         -5    1    3    3    0  502 -0.25174965053E+02 -0.46373340333E+02 -0.25400855662E+02  0.58710658550E+02  0.41800000000E+01 0.  1.
        -11    1    1    2    0    0  0.48957873838E+01 -0.23410424854E+02 -0.34774257019E+02  0.42205043267E+02  0.00000000000E+00 0. -1.
         11    1    1    2    0    0  0.10472068659E+03  0.45088862654E+02 -0.38816316027E+03  0.40456157346E+03  0.00000000000E+00 0.  1.
</event>
<event>
 7    1  0.2490079E-009  0.1031857E+03  0.7561462E-02  0.1273736E+00
         -1   -1    0    0    0  501 -0.00000000000E+00  0.00000000000E+00  0.68676884618E+02  0.68676884618E+02  0.00000000000E+00 0.  1.
          1   -1    0    0  501    0  0.00000000000E+00 -0.00000000000E+00 -0.19626336778E+03  0.19626336778E+03  0.00000000000E+00 0. -1.
         25    2    1    2    0    0 -0.30487673583E+02  0.24368465417E+02 -0.92432064689E+02  0.16035776034E+03  0.12509038481E+03 0.  0.
          5    1    3    3  502    0 -0.56959494233E+02  0.62297459698E+02 -0.62330387320E+02  0.10501384219E+03  0.41800000000E+01 0. -1.
         -5    1    3    3    0  502  0.26471820650E+02 -0.37928994281E+02 -0.30101677369E+02  0.55343918149E+02  0.41800000000E+01 0. -1.
        -11    1    1    2    0    0 -0.18275597936E+02  0.43995683275E+01  0.18648480591E+02  0.26478661404E+02  0.00000000000E+00 0. -1.
         11    1    1    2    0    0  0.48763271519E+02 -0.28768033744E+02 -0.53802899061E+02  0.78103830650E+02  0.00000000000E+00 0.  1.
</event>
<event>
 7    1  0.2490079E-009  0.1233727E+03  0.7561462E-02  0.1237635E+00
         -2   -1    0    0    0  501 -0.00000000000E+00  0.00000000000E+00  0.30645395778E+02  0.30645395778E+02  0.00000000000E+00 0.  1.
          2   -1    0    0  501    0  0.00000000000E+00 -0.00000000000E+00 -0.80218821564E+03  0.80218821564E+03  0.00000000000E+00 0. -1.
         25    2    1    2    0    0  0.50377451347E+02  0.98957091932E+02 -0.38990296549E+03  0.42426528009E+03  0.12508521792E+03 0.  0.
          5    1    3    3  502    0  0.23648918166E+02  0.25561889395E+02 -0.31166077443E+03  0.31362811137E+03  0.41800000000E+01 0.  1.
         -5    1    3    3    0  502  0.26728533181E+02  0.73395202536E+02 -0.78242191059E+02  0.11063716872E+03  0.41800000000E+01 0.  1.
        -11    1    1    2    0    0 -0.27382932558E+02 -0.10593705870E+03 -0.35989208253E+03  0.37615794085E+03  0.00000000000E+00 0. -1.
         11    1    1    2    0    0 -0.22994518789E+02  0.69799667672E+01 -0.21747771839E+02  0.32410390470E+02  0.00000000000E+00 0.  1.
</event>
<event>
 7    1  0.2490079E-009  0.2235332E+03  0.7561462E-02  0.1131276E+00
         -1   -1    0    0    0  501 -0.00000000000E+00  0.00000000000E+00  0.84225378754E+02  0.84225378754E+02  0.00000000000E+00 0.  1.
          1   -1    0    0  501    0  0.00000000000E+00 -0.00000000000E+00 -0.87388847718E+03  0.87388847718E+03  0.00000000000E+00 0. -1.
         25    2    1    2    0    0  0.88226210936E+02  0.18918551181E+03 -0.16658291719E+03  0.29491063163E+03  0.12508952863E+03 0.  0.
          5    1    3    3  502    0  0.81889212120E+02  0.50615060232E+02 -0.10667929917E+03  0.14375560043E+03  0.41800000000E+01 0. -1.
         -5    1    3    3    0  502  0.63369988161E+01  0.13857045158E+03 -0.59903618020E+02  0.15115503120E+03  0.41800000000E+01 0. -1.
        -11    1    1    2    0    0 -0.26970349744E+02 -0.25341430816E+02 -0.40193954760E+02  0.54636451938E+02  0.00000000000E+00 0.  1.
         11    1    1    2    0    0 -0.61255861193E+02 -0.16384408100E+03 -0.58288622648E+03  0.60856677237E+03  0.00000000000E+00 0. -1.
</event>
<event>
 7    1  0.2490079E-009  0.4132901E+03  0.7561462E-02  0.1039273E+00
         -2   -1    0    0    0  501 -0.00000000000E+00  0.00000000000E+00  0.10202265424E+03  0.10202265424E+03  0.00000000000E+00 0.  1.
          2   -1    0    0  501    0  0.00000000000E+00 -0.00000000000E+00 -0.17650433520E+04  0.17650433520E+04  0.00000000000E+00 0. -1.
         25    2    1    2    0    0  0.80215731807E+02 -0.40037956408E+03 -0.76090884079E+03  0.87256517101E+03  0.12509738088E+03 0.  0.
          5    1    3    3  502    0  0.22546411965E+02 -0.28910551409E+03 -0.61650704465E+03  0.68131398596E+03  0.41800000000E+01 0. -1.
         -5    1    3    3    0  502  0.57669319842E+02 -0.11127404999E+03 -0.14440179614E+03  0.19125118505E+03  0.41800000000E+01 0. -1.
        -11    1    1    2    0    0 -0.37212882843E+02  0.83943191618E+02 -0.28855377394E+03  0.30281106077E+03  0.00000000000E+00 0.  1.
         11    1    1    2    0    0 -0.43002848964E+02  0.31643637247E+03 -0.61355808301E+03  0.69168977444E+03  0.00000000000E+00 0. -1.
</event>
<event>
 7    1  0.2490079E-009  0.2136735E+03  0.7561462E-02  0.1138690E+00
         -2   -1    0    0    0  501 -0.00000000000E+00  0.00000000000E+00  0.46460384198E+03  0.46460384198E+03  0.00000000000E+00 0.  1.
          2   -1    0    0  501    0  0.00000000000E+00 -0.00000000000E+00 -0.10880326112E+03  0.10880326112E+03  0.00000000000E+00 0. -1.
         25    2    1    2    0    0  0.16676077695E+03 -0.95871066928E+02  0.13587897435E+03  0.26666780703E+03  0.12509278729E+03 0.  0.
          5    1    3    3  502    0  0.54571301729E+02  0.15937963915E+02  0.80875020575E+02  0.98945879243E+02  0.41800000000E+01 0.  1.
         -5    1    3    3    0  502  0.11218947522E+03 -0.11180903084E+03  0.55003953770E+02  0.16772192778E+03  0.41800000000E+01 0.  1.
        -11    1    1    2    0    0 -0.33978928512E+02  0.68295327360E+02  0.99498838539E+02  0.12537479090E+03  0.00000000000E+00 0.  1.
         11    1    1    2    0    0 -0.13278184844E+03  0.27575739568E+02  0.12042276798E+03  0.18136450517E+03  0.00000000000E+00 0. -1.
</event>
<event>
 7    1  0.2490079E-009  0.7110236E+02  0.7561462E-02  0.1356384E+00
          1   -1    0    0  501    0  0.00000000000E+00  0.00000000000E+00  0.19604674964E+03  0.19604674964E+03  0.00000000000E+00 0. -1.
         -1   -1    0    0    0  501 -0.00000000000E+00 -0.00000000000E+00 -0.75896542065E+02  0.75896542065E+02  0.00000000000E+00 0.  1.
         25    2    1    2    0    0  0.30751490885E+02 -0.17702471302E+02  0.21588400539E+02  0.13180054073E+03  0.12508513828E+03 0.  0.
          5    1    3    3  502    0 -0.78081417323E+01 -0.29648669281E+02 -0.44526980493E+02  0.54223012267E+02  0.41800000000E+01 0. -1.
         -5    1    3    3    0  502  0.38559632617E+02  0.11946197979E+02  0.66115381032E+02  0.77577528465E+02  0.41800000000E+01 0. -1.
        -11    1    1    2    0    0 -0.41487472501E+01  0.37366728245E+02  0.15309405143E+01  0.37627493437E+02  0.00000000000E+00 0.  1.
         11    1    1    2    0    0 -0.26602743635E+02 -0.19664256942E+02  0.97030866521E+02  0.10251525754E+03  0.00000000000E+00 0. -1.
</event>
<event>
 7    1  0.2490079E-009  0.1982159E+03  0.7561462E-02  0.1151253E+00
          1   -1    0    0  501    0  0.00000000000E+00  0.00000000000E+00  0.15703370184E+03  0.15703370184E+03  0.00000000000E+00 0.  1.
         -1   -1    0    0    0  501 -0.00000000000E+00 -0.00000000000E+00 -0.30389268156E+03  0.30389268156E+03  0.00000000000E+00 0. -1.
         25    2    1    2    0    0 -0.11751073854E+03  0.13416780569E+03 -0.14293519290E+03  0.26055258396E+03  0.12508959141E+03 0.  0.
          5    1    3    3  502    0 -0.11915441456E+03  0.43405095886E+02 -0.79581175544E+02  0.14977453975E+03  0.41800000000E+01 0. -1.
         -5    1    3    3    0  502  0.16436760148E+01  0.90762709801E+02 -0.63354017361E+02  0.11077804420E+03  0.41800000000E+01 0. -1.
        -11    1    1    2    0    0  0.44360417871E+02 -0.58658790165E+02  0.43058949179E+02  0.85221907053E+02  0.00000000000E+00 0.  1.
         11    1    1    2    0    0  0.73150320673E+02 -0.75509015522E+02 -0.46982735997E+02  0.11515189239E+03  0.00000000000E+00 0. -1.
</event>
<event>
 7    1  0.2490079E-009  0.1389165E+03  0.7561462E-02  0.1214794E+00
          4   -1    0    0  501    0  0.00000000000E+00  0.00000000000E+00  0.47899679332E+03  0.47899679332E+03  0.00000000000E+00 0. -1.
         -4   -1    0    0    0  501 -0.00000000000E+00 -0.00000000000E+00 -0.46309984416E+02  0.46309984416E+02  0.00000000000E+00 0.  1.
         25    2    1    2    0    0  0.82498907327E+02  0.14785549146E+02  0.32047903930E+03  0.35409360723E+03  0.12510310099E+03 0.  0.
          5    1    3    3  502    0  0.57924021299E+02  0.69262639746E+02  0.20329719841E+03  0.22248534511E+03  0.41800000000E+01 0. -1.
         -5    1    3    3    0  502  0.24574886028E+02 -0.54477090601E+02  0.11718184090E+03  0.13160826212E+03  0.41800000000E+01 0. -1.
        -11    1    1    2    0    0 -0.10407076263E+03 -0.18335067113E+02  0.81173647059E+02  0.13325186414E+03  0.00000000000E+00 0.  1.
         11    1    1    2    0    0  0.21571855300E+02  0.35495179672E+01  0.31034122545E+02  0.37961306366E+02  0.00000000000E+00 0. -1.
</event>
<event>
 7    1  0.2490079E-009  0.2286224E+03  0.7561462E-02  0.1127613E+00
          1   -1    0    0  501    0  0.00000000000E+00  0.00000000000E+00  0.12326265078E+04  0.12326265078E+04  0.00000000000E+00 0. -1.
         -1   -1    0    0    0  501 -0.00000000000E+00 -0.00000000000E+00 -0.44786106315E+02  0.44786106315E+02  0.00000000000E+00 0.  1.
         25    2    1    2    0    0 -0.19623125099E+03  0.57423143807E+02  0.72381906828E+03  0.76247561459E+03  0.12510354878E+03 0.  0.
          5    1    3    3  502    0 -0.14064059748E+02 -0.31689912182E+02  0.14494966791E+03  0.14909703866E+03  0.41800000000E+01 0.  1.
         -5    1    3    3    0  502 -0.18216719124E+03  0.89113055989E+02  0.57886940038E+03  0.61337857593E+03  0.41800000000E+01 0.  1.
        -11    1    1    2    0    0  0.18245353311E+03 -0.24876227599E+02  0.34888545133E+03  0.39449863953E+03  0.00000000000E+00 0.  1.
         11    1    1    2    0    0  0.13777717877E+02 -0.32546916208E+02  0.11513588187E+03  0.12043835999E+03  0.00000000000E+00 0. -1.
</event>
<event>
 7    1  0.2490079E-009  0.7576090E+02  0.7561462E-02  0.1341531E+00
          2   -1    0    0  501    0  0.00000000000E+00  0.00000000000E+00  0.47007833429E+03  0.47007833429E+03  0.00000000000E+00 0.  1.
         -2   -1    0    0    0  501 -0.00000000000E+00 -0.00000000000E+00 -0.64689640170E+02  0.64689640170E+02  0.00000000000E+00 0. -1.
         25    2    1    2    0    0  0.15914568292E+02  0.32695186810E+01  0.42142938254E+03  0.43990464290E+03  0.12509759048E+03 0.  0.
          5    1    3    3  502    0  0.18609825197E+02 -0.56457616238E+02  0.28050054511E+03  0.28676090429E+03  0.41800000000E+01 0.  1.
         -5    1    3    3    0  502 -0.26952569049E+01  0.59727134919E+02  0.14092883743E+03  0.15314373861E+03  0.41800000000E+01 0.  1.
        -11    1    1    2    0    0 -0.17165846036E+02 -0.13407017543E+02  0.35865709863E+02  0.41961452948E+02  0.00000000000E+00 0.  1.
         11    1    1    2    0    0  0.12512777442E+01  0.10137498862E+02 -0.51906398276E+02  0.52901878617E+02  0.00000000000E+00 0. -1.
</event>
<event>
 7    1  0.2490079E-009  0.2041927E+03  0.7561462E-02  0.1146249E+00
         -1   -1    0    0    0  501 -0.00000000000E+00  0.00000000000E+00  0.86020976214E+03  0.86020976214E+03  0.00000000000E+00 0.  1.
          1   -1    0    0  501    0  0.00000000000E+00 -0.00000000000E+00 -0.54918008948E+02  0.54918008948E+02  0.00000000000E+00 0. -1.
         25    2    1    2    0    0  0.11453881374E+03 -0.14163666403E+03  0.32095995810E+03  0.38967191834E+03  0.12509526287E+03 0.  0.
          5    1    3    3  502    0  0.98603684378E+02 -0.23478564845E+02  0.15628904679E+03  0.18632677780E+03  0.41800000000E+01 0. -1.
         -5    1    3    3    0  502  0.15935129361E+02 -0.11815809918E+03  0.16467091130E+03  0.20334514054E+03  0.41800000000E+01 0. -1.
        -11    1    1    2    0    0 -0.74022320587E+02  0.12179229318E+03  0.43876907628E+03  0.46133606939E+03  0.00000000000E+00 0.  1.
         11    1    1    2    0    0 -0.40516493152E+02  0.19844370847E+02  0.45562718823E+02  0.64119783361E+02  0.00000000000E+00 0. -1.
</event>
<event>
 7    1  0.2490079E-009  0.1678805E+03  0.7561462E-02  0.1180076E+00
          1   -1    0    0  501    0  0.00000000000E+00  0.00000000000E+00  0.35626892892E+03  0.35626892892E+03  0.00000000000E+00 0. -1.
         -1   -1    0    0    0  501 -0.00000000000E+00 -0.00000000000E+00 -0.11578637179E+03  0.11578637179E+03  0.00000000000E+00 0.  1.
         25    2    1    2    0    0 -0.13692759182E+03 -0.63567803250E+02  0.31313325414E+02  0.19853983171E+03  0.12509000525E+03 0.  0.
          5    1    3    3  502    0 -0.81797343619E+02 -0.98398848873E+01 -0.41634024487E+02  0.92403967191E+02  0.41800000000E+01 0. -1.
         -5    1    3    3    0  502 -0.55130248206E+02 -0.53727918362E+02  0.72947349902E+02  0.10613586452E+03  0.41800000000E+01 0. -1.
        -11    1    1    2    0    0  0.60368932511E+02  0.77623973003E+02  0.11315425881E+03  0.14991255946E+03  0.00000000000E+00 0. -1.
         11    1    1    2    0    0  0.76558659313E+02 -0.14056169754E+02  0.96014972902E+02  0.12360290953E+03  0.00000000000E+00 0.  1.
</event>
<event>
 7    1  0.2490079E-009  0.1345784E+03  0.7561462E-02  0.1220816E+00
          2   -1    0    0  501    0  0.00000000000E+00  0.00000000000E+00  0.58761944605E+03  0.58761944605E+03  0.00000000000E+00 0. -1.
         -2   -1    0    0    0  501 -0.00000000000E+00 -0.00000000000E+00 -0.51561341147E+02  0.51561341147E+02  0.00000000000E+00 0.  1.
         25    2    1    2    0    0  0.28298642530E+02 -0.11029765775E+03  0.14933306056E+03  0.22564150953E+03  0.12508933356E+03 0.  0.
          5    1    3    3  502    0  0.54954281743E+02 -0.16579450306E+02  0.14705720718E+02  0.59401867615E+02  0.41800000000E+01 0.  1.
         -5    1    3    3    0  502 -0.26655639213E+02 -0.93718207447E+02  0.13462733985E+03  0.16623964191E+03  0.41800000000E+01 0.  1.
        -11    1    1    2    0    0 -0.14840117511E+02  0.71195189463E+02  0.35231173730E+03  0.35973955069E+03  0.00000000000E+00 0. -1.
         11    1    1    2    0    0 -0.13458525019E+02  0.39102468289E+02  0.34413307040E+02  0.53799726983E+02  0.00000000000E+00 0.  1.
</event>
<event>
 7    1  0.2490079E-009  0.1479735E+03  0.7561462E-02  0.1202985E+00
          1   -1    0    0  501    0  0.00000000000E+00  0.00000000000E+00  0.29900419570E+02  0.29900419570E+02  0.00000000000E+00 0. -1.
         -1   -1    0    0    0  501 -0.00000000000E+00 -0.00000000000E+00 -0.11520936579E+04  0.11520936579E+04  0.00000000000E+00 0.  1.
         25    2    1    2    0    0  0.93708029663E+02  0.84928308884E+02 -0.85614179526E+03  0.87442587098E+03  0.12509123781E+03 0.  0.
          5    1    3    3  502    0 -0.10761089491E+02  0.26137313598E+02 -0.45090966825E+03  0.45181407850E+03  0.41800000000E+01 0.  1.
         -5    1    3    3    0  502  0.10446911915E+03  0.58790995286E+02 -0.40523212701E+03  0.42261179249E+03  0.41800000000E+01 0.  1.
        -11    1    1    2    0    0  0.11315105388E+02 -0.22665696452E+02 -0.88755910861E+02  0.92300471929E+02  0.00000000000E+00 0.  1.
         11    1    1    2    0    0 -0.10502313505E+03 -0.62262612433E+02 -0.17729553224E+03  0.21526773459E+03  0.00000000000E+00 0. -1.
</event>
<event>
 7    1  0.2490079E-009  0.6892250E+02  0.7561462E-02  0.1363796E+00
         -2   -1    0    0    0  501 -0.00000000000E+00  0.00000000000E+00  0.22838001132E+03  0.22838001132E+03  0.00000000000E+00 0.  1.
          2   -1    0    0  501    0  0.00000000000E+00 -0.00000000000E+00 -0.66224870258E+02  0.66224870258E+02  0.00000000000E+00 0. -1.
         25    2    1    2    0    0 -0.40455771089E+02 -0.28658207249E+02  0.60028882142E+02  0.14735028737E+03  0.12510267079E+03 0.  0.
          5    1    3    3  502    0 -0.66496499810E+01 -0.23262527693E+02 -0.36982537500E+02  0.44390804448E+02  0.41800000000E+01 0.  1.
         -5    1    3    3    0  502 -0.33806121108E+02 -0.53956795561E+01  0.97011419643E+02  0.10295948292E+03  0.41800000000E+01 0.  1.
        -11    1    1    2    0    0  0.56671797431E+02  0.26078325148E+02  0.23073168191E+02  0.66514229733E+02  0.00000000000E+00 0. -1.
         11    1    1    2    0    0 -0.16216026342E+02  0.25798821015E+01  0.79053090734E+02  0.80740364481E+02  0.00000000000E+00 0.  1.
</event>
<event>
 7    1  0.2490079E-009  0.6522032E+02  0.7561462E-02  0.1377145E+00
         -2   -1    0    0    0  501 -0.00000000000E+00  0.00000000000E+00  0.42215693584E+02  0.42215693584E+02  0.00000000000E+00 0.  1.
          2   -1    0    0  501    0  0.00000000000E+00 -0.00000000000E+00 -0.37857190334E+03  0.37857190334E+03  0.00000000000E+00 0. -1.
         25    2    1    2    0    0  0.31371270515E+02 -0.22336191162E+02 -0.27282400654E+03  0.30259541892E+03  0.12509191404E+03 0.  0.
          5    1    3    3  502    0  0.92531751687E+01  0.71350006554E+01  0.10864331983E+02  0.16493501584E+02  0.41800000000E+01 0.  1.
         -5    1    3    3    0  502  0.22118095347E+02 -0.29471191817E+02 -0.28368833853E+03  0.28610191734E+03  0.41800000000E+01 0.  1.
        -11    1    1    2    0    0 -0.26168126072E+02  0.48049050182E+02 -0.60996486276E+01  0.55051682617E+02  0.00000000000E+00 0.  1.
         11    1    1    2    0    0 -0.52031444429E+01 -0.25712859021E+02 -0.57432554586E+02  0.63140495384E+02  0.00000000000E+00 0. -1.
</event>
<event>
 7    1  0.2490079E-009  0.1059796E+03  0.7561462E-02  0.1268201E+00
         -3   -1    0    0    0  501 -0.00000000000E+00  0.00000000000E+00  0.71232805052E+02  0.71232805052E+02  0.00000000000E+00 0. -1.
          3   -1    0    0  501    0  0.00000000000E+00 -0.00000000000E+00 -0.33087621405E+03  0.33087621405E+03  0.00000000000E+00 0.  1.
         25    2    1    2    0    0 -0.78256651989E+02 -0.14813803067E+02 -0.44357046976E+02  0.15478941026E+03  0.12509461048E+03 0.  0.
          5    1    3    3  502    0 -0.36949171972E+02  0.45524586901E+02 -0.55334466988E+02  0.80728588237E+02  0.41800000000E+01 0.  1.
         -5    1    3    3    0  502 -0.41307480017E+02 -0.60338389967E+02  0.10977420012E+02  0.74060822027E+02  0.41800000000E+01 0.  1.
        -11    1    1    2    0    0  0.47518277374E+02  0.12359715826E+02 -0.21045579307E+03  0.21610735781E+03  0.00000000000E+00 0.  1.
         11    1    1    2    0    0  0.30738374615E+02  0.24540872410E+01 -0.48305689494E+01  0.31212251033E+02  0.00000000000E+00 0. -1.
</event>
<event>
 7    1  0.2490079E-009  0.8259627E+02  0.7561462E-02  0.1321841E+00
          2   -1    0    0  501    0  0.00000000000E+00  0.00000000000E+00  0.11276660548E+03  0.11276660548E+03  0.00000000000E+00 0. -1.
         -2   -1    0    0    0  501 -0.00000000000E+00 -0.00000000000E+00 -0.10017701931E+03  0.10017701931E+03  0.00000000000E+00 0.  1.
         25    2    1    2    0    0  0.15104342672E+01 -0.28220666116E+02  0.17269349320E+02  0.12940322568E+03  0.12509307328E+03 0.  0.
          5    1    3    3  502    0 -0.57800615380E+02 -0.18179042335E+02 -0.12725623995E+02  0.62054835626E+02  0.41800000000E+01 0. -1.
         -5    1    3    3    0  502  0.59311049647E+02 -0.10041623782E+02  0.29994973315E+02  0.67348390052E+02  0.41800000000E+01 0. -1.
        -11    1    1    2    0    0 -0.16744464210E+02  0.72748115910E+01  0.33061350181E+02  0.37767086744E+02  0.00000000000E+00 0. -1.
         11    1    1    2    0    0  0.15234029942E+02  0.20945854526E+02 -0.37741113327E+02  0.45773312370E+02  0.00000000000E+00 0.  1.
</event>
<event>
 7    1  0.2490079E-009  0.1749835E+03  0.7561462E-02  0.1172748E+00
          1   -1    0    0  501    0  0.00000000000E+00  0.00000000000E+00  0.33835367462E+03  0.33835367462E+03  0.00000000000E+00 0. -1.
         -1   -1    0    0    0  501 -0.00000000000E+00 -0.00000000000E+00 -0.11731987091E+03  0.11731987091E+03  0.00000000000E+00 0.  1.
         25    2    1    2    0    0  0.54535139970E+02 -0.13806985688E+03  0.28923880982E+02  0.19626721195E+03  0.12508741233E+03 0.  0.
          5    1    3    3  502    0  0.82414381381E+02 -0.54416467972E+02  0.41299857032E+02  0.10712811412E+03  0.41800000000E+01 0.  1.
         -5    1    3    3    0  502 -0.27879241411E+02 -0.83653388906E+02 -0.12375976050E+02  0.89139097821E+02  0.41800000000E+01 0.  1.
        -11    1    1    2    0    0 -0.10690326786E+00  0.90667907677E+02  0.59563320109E+02  0.10848257931E+03  0.00000000000E+00 0.  1.
         11    1    1    2    0    0 -0.54428236703E+02  0.47401949202E+02  0.13254660262E+03  0.15092375427E+03  0.00000000000E+00 0. -1.
</event>
<event>
 7    1  0.2490079E-009  0.1335756E+03  0.7561462E-02  0.1222245E+00
         -2   -1    0    0    0  501 -0.00000000000E+00  0.00000000000E+00  0.19282354371E+03  0.19282354371E+03  0.00000000000E+00 0.  1.
          2   -1    0    0  501    0  0.00000000000E+00 -0.00000000000E+00 -0.13589324427E+03  0.13589324427E+03  0.00000000000E+00 0. -1.
         25    2    1    2    0    0  0.61360015806E+01  0.10318923790E+03  0.88772415731E+02  0.18497002415E+03  0.12509076187E+03 0.  0.
          5    1    3    3  502    0 -0.52422207291E+02  0.30134613004E+02  0.63755247992E+02  0.87968100836E+02  0.41800000000E+01 0. -1.
         -5    1    3    3    0  502  0.58558208872E+02  0.73054624895E+02  0.25017167738E+02  0.97001923313E+02  0.41800000000E+01 0. -1.
        -11    1    1    2    0    0 -0.12209201355E+02 -0.31664642426E+01  0.25388053071E+02  0.28348621346E+02  0.00000000000E+00 0.  1.
         11    1    1    2    0    0  0.60731997739E+01 -0.10002277366E+03 -0.57230169360E+02  0.11539814249E+03  0.00000000000E+00 0. -1.
</event>
<event>
 7    1  0.2490079E-009  0.1412014E+03  0.7561462E-02  0.1211721E+00
          2   -1    0    0  501    0  0.00000000000E+00  0.00000000000E+00  0.88004118874E+03  0.88004118874E+03  0.00000000000E+00 0. -1.
         -2   -1    0    0    0  501 -0.00000000000E+00 -0.00000000000E+00 -0.27762898256E+02  0.27762898256E+02  0.00000000000E+00 0.  1.
         25    2    1    2    0    0  0.66376088163E+02 -0.61487970845E+02  0.64315005003E+03  0.66141983823E+03  0.12509060682E+03 0.  0.
          5    1    3    3  502    0  0.44273887900E+02 -0.99767587127E+02  0.42633274340E+03  0.44010320277E+03  0.41800000000E+01 0.  1.
         -5    1    3    3    0  502  0.22102200262E+02  0.38279616281E+02  0.21681730663E+03  0.22131663546E+03  0.41800000000E+01 0.  1.
        -11    1    1    2    0    0 -0.10771287856E+02 -0.24277483972E+02  0.59702625827E+02  0.65343862763E+02  0.00000000000E+00 0.  1.
         11    1    1    2    0    0 -0.55604800307E+02  0.85765454817E+02  0.14942561463E+03  0.18104038600E+03  0.00000000000E+00 0. -1.
</event>
<event>
 7    1  0.2490079E-009  0.1407328E+03  0.7561462E-02  0.1212346E+00
         -2   -1    0    0    0  501 -0.00000000000E+00  0.00000000000E+00  0.49774096439E+03  0.49774096439E+03  0.00000000000E+00 0.  1.
          2   -1    0    0  501    0  0.00000000000E+00 -0.00000000000E+00 -0.62025411837E+02  0.62025411837E+02  0.00000000000E+00 0. -1.
         25    2    1    2    0    0 -0.12913321405E+03 -0.46684466467E+02  0.21119025483E+03  0.28125287120E+03  0.12508807874E+03 0.  0.
          5    1    3    3  502    0 -0.91459984516E+02 -0.13256338829E+02  0.21135435637E+03  0.23071366592E+03  0.41800000000E+01 0. -1.
         -5    1    3    3    0  502 -0.37673229530E+02 -0.33428127637E+02 -0.16410153944E+00  0.50539205275E+02  0.41800000000E+01 0. -1.
        -11    1    1    2    0    0  0.51709984450E+02  0.27860622521E+02  0.17524445594E+03  0.18482628632E+03  0.00000000000E+00 0.  1.
         11    1    1    2    0    0  0.77423229597E+02  0.18823843946E+02  0.49280841787E+02  0.93687218708E+02  0.00000000000E+00 0. -1.
</event>
<event>
 7    1  0.2490079E-009  0.1022065E+03  0.7561462E-02  0.1275723E+00
          2   -1    0    0  501    0  0.00000000000E+00  0.00000000000E+00  0.44939259568E+03  0.44939259568E+03  0.00000000000E+00 0. -1.
         -2   -1    0    0    0  501 -0.00000000000E+00 -0.00000000000E+00 -0.36386092487E+02  0.36386092487E+02  0.00000000000E+00 0.  1.
         25    2    1    2    0    0  0.62144303225E+02 -0.31536054069E+00  0.18321558816E+03  0.23037886395E+03  0.12507779713E+03 0.  0.
          5    1    3    3  502    0  0.34011136942E+02 -0.53892595411E+02  0.14563400698E+03  0.15902171444E+03  0.41800000000E+01 0.  1.
         -5    1    3    3    0  502  0.28133166284E+02  0.53577234871E+02  0.37581581187E+02  0.71357149509E+02  0.41800000000E+01 0.  1.
        -11    1    1    2    0    0 -0.27473505658E+02  0.25146696157E+02  0.19985532481E+03  0.20329609120E+03  0.00000000000E+00 0. -1.
         11    1    1    2    0    0 -0.34670797567E+02 -0.24831335617E+02  0.29935590210E+02  0.52103733011E+02  0.00000000000E+00 0.  1.
</event>
<event>
 7    1  0.2490079E-009  0.2630726E+03  0.7561462E-02  0.1105311E+00
         -2   -1    0    0    0  501 -0.00000000000E+00  0.00000000000E+00  0.85667036330E+02  0.85667036330E+02  0.00000000000E+00 0.  1.
          2   -1    0    0  501    0  0.00000000000E+00 -0.00000000000E+00 -0.92203200158E+03  0.92203200158E+03  0.00000000000E+00 0. -1.
         25    2    1    2    0    0 -0.23507282744E+03  0.58499849396E+02 -0.26934148443E+03  0.38324102961E+03  0.12508950781E+03 0.  0.
          5    1    3    3  502    0 -0.13586079157E+03 -0.27730906193E+02 -0.16352475318E+03  0.21444107617E+03  0.41800000000E+01 0.  1.
         -5    1    3    3    0  502 -0.99212035865E+02  0.86230755589E+02 -0.10581673125E+03  0.16879995344E+03  0.41800000000E+01 0.  1.
        -11    1    1    2    0    0  0.10221249564E+03  0.16194385859E+02 -0.16800912031E+03  0.19732388833E+03  0.00000000000E+00 0.  1.
         11    1    1    2    0    0  0.13286033180E+03 -0.74694235256E+02 -0.39901436051E+03  0.42713411997E+03  0.00000000000E+00 0. -1.
</event>
<event>
 7    1  0.2490079E-009  0.1098329E+03  0.7561462E-02  0.1260880E+00
          2   -1    0    0  501    0  0.00000000000E+00  0.00000000000E+00  0.87519053624E+03  0.87519053624E+03  0.00000000000E+00 0. -1.
         -2   -1    0    0    0  501 -0.00000000000E+00 -0.00000000000E+00 -0.33418820372E+02  0.33418820372E+02  0.00000000000E+00 0.  1.
         25    2    1    2    0    0  0.70139838543E+02  0.71507124866E+02  0.58660673071E+03  0.60810144346E+03  0.12508814158E+03 0.  0.
          5    1    3    3  502    0  0.31708915178E+02  0.10585679296E+02  0.46843061580E+03  0.46964052863E+03  0.41800000000E+01 0. -1.
         -5    1    3    3    0  502  0.38430923364E+02  0.60921445570E+02  0.11817611491E+03  0.13846091483E+03  0.41800000000E+01 0. -1.
        -11    1    1    2    0    0 -0.41218079934E+01 -0.40812287842E+02  0.21186598582E+03  0.21580043579E+03  0.00000000000E+00 0. -1.
         11    1    1    2    0    0 -0.66018030549E+02 -0.30694837024E+02  0.43298999337E+02  0.84707477362E+02  0.00000000000E+00 0.  1.
</event>
<event>
 7    1  0.2490079E-009  0.1246460E+03  0.7561462E-02  0.1235624E+00
          2   -1    0    0  501    0  0.00000000000E+00  0.00000000000E+00  0.90336949204E+03  0.90336949204E+03  0.00000000000E+00 0. -1.
         -2   -1    0    0    0  501 -0.00000000000E+00 -0.00000000000E+00 -0.29324543624E+02  0.29324543624E+02  0.00000000000E+00 0.  1.
         25    2    1    2    0    0  0.10733767632E+03  0.36077420044E+02  0.59532595551E+03  0.61877599127E+03  0.12509107511E+03 0.  0.
          5    1    3    3  502    0  0.74556191023E+02 -0.72659363712E+01  0.52225332723E+03  0.52761484973E+03  0.41800000000E+01 0. -1.
         -5    1    3    3    0  502  0.32781485293E+02  0.43343356415E+02  0.73072628286E+02  0.91161141546E+02  0.41800000000E+01 0. -1.
        -11    1    1    2    0    0 -0.57521125175E+02 -0.39578407286E+02  0.68369238239E+02  0.97721455690E+02  0.00000000000E+00 0. -1.
         11    1    1    2    0    0 -0.49816551141E+02  0.35009872426E+01  0.21034975466E+03  0.21619658870E+03  0.00000000000E+00 0.  1.
</event>
<event>
 7    1  0.2490079E-009  0.1305148E+03  0.7561462E-02  0.1226694E+00
         -2   -1    0    0    0  501 -0.00000000000E+00  0.00000000000E+00  0.59939799629E+02  0.59939799629E+02  0.00000000000E+00 0. -1.
          2   -1    0    0  501    0  0.00000000000E+00 -0.00000000000E+00 -0.28633142159E+03  0.28633142159E+03  0.00000000000E+00 0.  1.
         25    2    1    2    0    0 -0.61541482330E+02 -0.39846433549E+02 -0.13505099807E+03  0.19814712812E+03  0.12509364487E+03 0.  0.
          5    1    3    3  502    0 -0.99085992592E+02 -0.17145057352E+02 -0.88187413381E+02  0.13381509331E+03  0.41800000000E+01 0. -1.
         -5    1    3    3    0  502  0.37544510262E+02 -0.22701376197E+02 -0.46863584690E+02  0.64332034804E+02  0.41800000000E+01 0. -1.
        -11    1    1    2    0    0  0.49488956388E+02 -0.21380203183E+02 -0.47625389588E+02  0.71933633482E+02  0.00000000000E+00 0. -1.
         11    1    1    2    0    0  0.12052525942E+02  0.61226636732E+02 -0.43715234302E+02  0.76190459621E+02  0.00000000000E+00 0.  1.
</event>
<event>
 7    1  0.2490079E-009  0.1447944E+03  0.7561462E-02  0.1207020E+00
          2   -1    0    0  501    0  0.00000000000E+00  0.00000000000E+00  0.91567992816E+02  0.91567992816E+02  0.00000000000E+00 0. -1.
         -2   -1    0    0    0  501 -0.00000000000E+00 -0.00000000000E+00 -0.23970789757E+03  0.23970789757E+03  0.00000000000E+00 0.  1.
         25    2    1    2    0    0 -0.10056825039E+03 -0.12453705494E+02 -0.89772337012E+02  0.18432432032E+03  0.12508922736E+03 0.  0.
          5    1    3    3  502    0 -0.43286002223E+02  0.55175288259E+02 -0.25390727114E+02  0.74700413964E+02  0.41800000000E+01 0. -1.
         -5    1    3    3    0  502 -0.57282248164E+02 -0.67628993754E+02 -0.64381609898E+02  0.10962390635E+03  0.41800000000E+01 0. -1.
        -11    1    1    2    0    0 -0.86518940328E+01 -0.15604666756E+02 -0.22295355255E+02  0.28555975922E+02  0.00000000000E+00 0.  1.
         11    1    1    2    0    0  0.10922014442E+03  0.28058372250E+02 -0.36072212490E+02  0.11839559415E+03  0.00000000000E+00 0. -1.
</event>
<event>
 7    1  0.2490079E-009  0.1026819E+03  0.7561462E-02  0.1274755E+00
          3   -1    0    0  501    0  0.00000000000E+00  0.00000000000E+00  0.24031254627E+02  0.24031254627E+02  0.00000000000E+00 0. -1.
         -3   -1    0    0    0  501 -0.00000000000E+00 -0.00000000000E+00 -0.51930181005E+03  0.51930181005E+03  0.00000000000E+00 0.  1.
         25    2    1    2    0    0 -0.81982874493E+01  0.70585143927E+01 -0.22291070927E+03  0.25584013494E+03  0.12509178948E+03 0.  0.
          5    1    3    3  502    0  0.46953280691E+02  0.34166540436E+02 -0.14683055553E+03  0.15795140863E+03  0.41800000000E+01 0. -1.
         -5    1    3    3    0  502 -0.55151568140E+02 -0.27108026043E+02 -0.76080153745E+02  0.97888726307E+02  0.41800000000E+01 0. -1.
        -11    1    1    2    0    0  0.46708489044E+02 -0.25808804194E+01 -0.20003583172E+03  0.20543290356E+03  0.00000000000E+00 0.  1.
         11    1    1    2    0    0 -0.38510201595E+02 -0.44776339733E+01 -0.72324014427E+02  0.82060026174E+02  0.00000000000E+00 0. -1.
</event>
<event>
 7    1  0.2490079E-009  0.4342190E+03  0.7561462E-02  0.1032535E+00
         -2   -1    0    0    0  501 -0.00000000000E+00  0.00000000000E+00  0.29076321006E+03  0.29076321006E+03  0.00000000000E+00 0.  1.
          2   -1    0    0  501    0  0.00000000000E+00 -0.00000000000E+00 -0.66390897359E+03  0.66390897359E+03  0.00000000000E+00 0. -1.
         25    2    1    2    0    0  0.39254033732E+03  0.16113116330E+03 -0.22441923830E+03  0.49604647069E+03  0.12508772265E+03 0.  0.
          5    1    3    3  502    0  0.99677750037E+02  0.89829303298E+02 -0.30675056303E+02  0.13770762166E+03  0.41800000000E+01 0.  1.
         -5    1    3    3    0  502  0.29286258729E+03  0.71301860004E+02 -0.19374418199E+03  0.35833884904E+03  0.41800000000E+01 0.  1.
        -11    1    1    2    0    0 -0.24481815665E+03 -0.14400971073E+03 -0.82016555490E+02  0.29563734876E+03  0.00000000000E+00 0.  1.
         11    1    1    2    0    0 -0.14772218068E+03 -0.17121452569E+02 -0.66709969739E+02  0.16298836420E+03  0.00000000000E+00 0. -1.
</event>
<event>
 7    1  0.2490079E-009  0.1203971E+03  0.7561462E-02  0.1242443E+00
         -1   -1    0    0    0  501 -0.00000000000E+00  0.00000000000E+00  0.99493702952E+02  0.99493702952E+02  0.00000000000E+00 0.  1.
          1   -1    0    0  501    0  0.00000000000E+00 -0.00000000000E+00 -0.18329330939E+03  0.18329330939E+03  0.00000000000E+00 0. -1.
         25    2    1    2    0    0  0.60277151105E+01  0.82645554726E+02 -0.55758310670E+02  0.16007391446E+03  0.12509215729E+03 0.  0.
          5    1    3    3  502    0 -0.49985831246E+02  0.67904690821E+02 -0.78411080072E+01  0.84785527866E+02  0.41800000000E+01 0.  1.
         -5    1    3    3    0  502  0.56013546357E+02  0.14740863905E+02 -0.47917202663E+02  0.75288386589E+02  0.41800000000E+01 0.  1.
        -11    1    1    2    0    0 -0.27084136386E+02 -0.66382371024E+02 -0.50664014819E+02  0.87789589497E+02  0.00000000000E+00 0. -1.
         11    1    1    2    0    0  0.21056421276E+02 -0.16263183702E+02  0.22622719051E+02  0.34923508391E+02  0.00000000000E+00 0.  1.
</event>
<event>
 7    1  0.2490079E-009  0.1979202E+03  0.7561462E-02  0.1151506E+00
         -2   -1    0    0    0  501 -0.00000000000E+00  0.00000000000E+00  0.26990311430E+03  0.26990311430E+03  0.00000000000E+00 0.  1.
          2   -1    0    0  501    0  0.00000000000E+00 -0.00000000000E+00 -0.24860821779E+03  0.24860821779E+03  0.00000000000E+00 0. -1.
         25    2    1    2    0    0  0.57516401654E+02 -0.18470944100E+03 -0.12271775667E+03  0.26102426922E+03  0.12509319432E+03 0.  0.
          5    1    3    3  502    0  0.24119854612E+02 -0.44447492272E+02  0.23245233115E+02  0.55813620366E+02  0.41800000000E+01 0. -1.
         -5    1    3    3    0  502  0.33396547042E+02 -0.14026194873E+03 -0.14596298979E+03  0.20521064886E+03  0.41800000000E+01 0. -1.
        -11    1    1    2    0    0 -0.22745458726E+02  0.14152614217E+02  0.56789836364E+02  0.62791224674E+02  0.00000000000E+00 0.  1.
         11    1    1    2    0    0 -0.34770942928E+02  0.17055682678E+03  0.87222816820E+02  0.19469583819E+03  0.00000000000E+00 0. -1.
</event>
<event>
 7    1  0.2490079E-009  0.8481206E+02  0.7561462E-02  0.1315925E+00
         -2   -1    0    0    0  501 -0.00000000000E+00  0.00000000000E+00  0.14218126464E+03  0.14218126464E+03  0.00000000000E+00 0.  1.
          2   -1    0    0  501    0  0.00000000000E+00 -0.00000000000E+00 -0.10007420450E+03  0.10007420450E+03  0.00000000000E+00 0. -1.
         25    2    1    2    0    0 -0.11065568639E+02  0.31334910431E+02 -0.15088726456E+02  0.13030422110E+03  0.12508875629E+03 0.  0.
          5    1    3    3  502    0 -0.49926395968E+02 -0.78679561415E+01  0.29985633532E+02  0.58916554265E+02  0.41800000000E+01 0. -1.
         -5    1    3    3    0  502  0.38860827328E+02  0.39202866572E+02 -0.45074359988E+02  0.71387666837E+02  0.41800000000E+01 0. -1.
        -11    1    1    2    0    0 -0.20845050007E+02 -0.33596941455E+01 -0.16576677562E+02  0.26843805497E+02  0.00000000000E+00 0. -1.
         11    1    1    2    0    0  0.31910618647E+02 -0.27975216285E+02  0.73772464159E+02  0.85107442546E+02  0.00000000000E+00 0.  1.
</event>
<event>
 7    1  0.2490079E-009  0.1467902E+03  0.7561462E-02  0.1204474E+00
         -1   -1    0    0    0  501 -0.00000000000E+00  0.00000000000E+00  0.21154171545E+03  0.21154171545E+03  0.00000000000E+00 0.  1.
          1   -1    0    0  501    0  0.00000000000E+00 -0.00000000000E+00 -0.13875179850E+03  0.13875179850E+03  0.00000000000E+00 0. -1.
         25    2    1    2    0    0 -0.12072216584E+03  0.31223664523E+02 -0.17308796305E+01  0.17663113329E+03  0.12508718061E+03 0.  0.
          5    1    3    3  502    0 -0.57372814223E+02 -0.31967534125E+02  0.40841662791E+02  0.77453707913E+02  0.41800000000E+01 0.  1.
         -5    1    3    3    0  502 -0.63349351616E+02  0.63191198649E+02 -0.42572542422E+02  0.99177425381E+02  0.41800000000E+01 0.  1.
        -11    1    1    2    0    0  0.38614480614E+02  0.17848680819E+02  0.64799371171E+02  0.77515237368E+02  0.00000000000E+00 0.  1.
         11    1    1    2    0    0  0.82107685225E+02 -0.49072345342E+02  0.97214254022E+01  0.96147143287E+02  0.00000000000E+00 0. -1.
</event>
<event>
 7    1  0.2490079E-009  0.1623770E+03  0.7561462E-02  0.1186039E+00
          2   -1    0    0  501    0  0.00000000000E+00  0.00000000000E+00  0.17293251819E+03  0.17293251819E+03  0.00000000000E+00 0. -1.
         -2   -1    0    0    0  501 -0.00000000000E+00 -0.00000000000E+00 -0.16504055519E+03  0.16504055519E+03  0.00000000000E+00 0.  1.
         25    2    1    2    0    0  0.74460944320E+02  0.10604300273E+03 -0.10694528104E+02  0.18042059856E+03  0.12509064232E+03 0.  0.
          5    1    3    3  502    0  0.38769792711E+02  0.12275206396E+03 -0.35585236445E+02  0.13362240637E+03  0.41800000000E+01 0.  1.
         -5    1    3    3    0  502  0.35691151609E+02 -0.16709061226E+02  0.24890708341E+02  0.46798192187E+02  0.41800000000E+01 0.  1.
        -11    1    1    2    0    0  0.19915552884E+02 -0.24737470278E+02  0.12502985963E+01  0.31782619921E+02  0.00000000000E+00 0.  1.
         11    1    1    2    0    0 -0.94376497204E+02 -0.81305532452E+02  0.17336192505E+02  0.12576985490E+03  0.00000000000E+00 0. -1.
</event>
<event>
 7    1  0.2490079E-009  0.2703553E+03  0.7561462E-02  0.1101076E+00
         -3   -1    0    0    0  501 -0.00000000000E+00  0.00000000000E+00  0.16203441014E+03  0.16203441014E+03  0.00000000000E+00 0.  1.
          3   -1    0    0  501    0  0.00000000000E+00 -0.00000000000E+00 -0.50103443709E+03  0.50103443709E+03  0.00000000000E+00 0. -1.
         25    2    1    2    0    0  0.11121807869E+02  0.24748356754E+03 -0.69490626654E+02  0.28609160239E+03  0.12509055501E+03 0.  0.
          5    1    3    3  502    0  0.65143756831E+02  0.17394662986E+03 -0.53673204673E+02  0.19338930786E+03  0.41800000000E+01 0. -1.
         -5    1    3    3    0  502 -0.54021948963E+02  0.73536937677E+02 -0.15817421981E+02  0.92702294528E+02  0.41800000000E+01 0. -1.
        -11    1    1    2    0    0  0.39133663611E+02 -0.13083233373E+03 -0.14111052934E+03  0.19636884852E+03  0.00000000000E+00 0.  1.
         11    1    1    2    0    0 -0.50255471480E+02 -0.11665123381E+03 -0.12839887096E+03  0.18060839633E+03  0.00000000000E+00 0. -1.
</event>
<event>
 7    1  0.2490079E-009  0.9823100E+02  0.7561462E-02  0.1284061E+00
          2   -1    0    0  501    0  0.00000000000E+00  0.00000000000E+00  0.27053342415E+02  0.27053342415E+02  0.00000000000E+00 0. -1.
         -2   -1    0    0    0  501 -0.00000000000E+00 -0.00000000000E+00 -0.47698909756E+03  0.47698909756E+03  0.00000000000E+00 0.  1.
         25    2    1    2    0    0 -0.28394844289E+02 -0.20630061867E+02 -0.24644131651E+03  0.27859006135E+03  0.12508890106E+03 0.  0.
          5    1    3    3  502    0  0.32750793148E+02  0.26853755640E+02 -0.14375321182E+03  0.14992063551E+03  0.41800000000E+01 0.  1.
         -5    1    3    3    0  502 -0.61145637437E+02 -0.47483817507E+02 -0.10268810469E+03  0.12866942585E+03  0.41800000000E+01 0.  1.
        -11    1    1    2    0    0  0.22679277248E+02 -0.23040746937E+02 -0.16112989394E+03  0.16434131665E+03  0.00000000000E+00 0.  1.
         11    1    1    2    0    0  0.57155670418E+01  0.43670808804E+02 -0.42364544699E+02  0.61111061975E+02  0.00000000000E+00 0. -1.
</event>
<event>
 7    1  0.2490079E-009  0.3082420E+03  0.7561462E-02  0.1081192E+00
         -1   -1    0    0    0  501 -0.00000000000E+00  0.00000000000E+00  0.73819137966E+02  0.73819137966E+02  0.00000000000E+00 0.  1.
          1   -1    0    0  501    0  0.00000000000E+00 -0.00000000000E+00 -0.14490395781E+04  0.14490395781E+04  0.00000000000E+00 0. -1.
         25    2    1    2    0    0  0.12136276531E+03  0.27212178277E+03 -0.51649039692E+03  0.60925133015E+03  0.12508264355E+03 0.  0.
          5    1    3    3  502    0  0.94136611571E+02  0.11630658708E+03 -0.15935613948E+03  0.21863388445E+03  0.41800000000E+01 0.  1.
         -5    1    3    3    0  502  0.27226153743E+02  0.15581519568E+03 -0.35713425744E+03  0.39061744571E+03  0.41800000000E+01 0.  1.
        -11    1    1    2    0    0 -0.13329406966E+03 -0.24442458756E+03 -0.72739651312E+03  0.77885581163E+03  0.00000000000E+00 0.  1.
         11    1    1    2    0    0  0.11931304351E+02 -0.27697195206E+02 -0.13133353013E+03  0.13475157433E+03  0.00000000000E+00 0. -1.
</event>
<event>
 7    1  0.2490079E-009  0.2139910E+03  0.7561462E-02  0.1138444E+00
          1   -1    0    0  501    0  0.00000000000E+00  0.00000000000E+00  0.75250544933E+03  0.75250544933E+03  0.00000000000E+00 0. -1.
         -1   -1    0    0    0  501 -0.00000000000E+00 -0.00000000000E+00 -0.65073871878E+02  0.65073871878E+02  0.00000000000E+00 0.  1.
         25    2    1    2    0    0 -0.16803785243E+03 -0.80320849975E+02  0.26641089170E+03  0.34829536226E+03  0.12508691924E+03 0.  0.
          5    1    3    3  502    0  0.85432620476E+01 -0.41852721197E+02  0.41041804713E+02  0.59384675904E+02  0.41800000000E+01 0. -1.
         -5    1    3    3    0  502 -0.17658111447E+03 -0.38468128778E+02  0.22536908699E+03  0.28891068636E+03  0.41800000000E+01 0. -1.
        -11    1    1    2    0    0  0.11302863247E+03  0.78410483075E+01  0.19330366945E+03  0.22406084535E+03  0.00000000000E+00 0.  1.
         11    1    1    2    0    0  0.55009219961E+02  0.72479801668E+02  0.22771701630E+03  0.24522311360E+03  0.00000000000E+00 0. -1.
</event>
<event>
 7    1  0.2490079E-009  0.5939991E+02  0.7561462E-02  0.1400367E+00
          3   -1    0    0  501    0  0.00000000000E+00  0.00000000000E+00  0.14802451110E+03  0.14802451110E+03  0.00000000000E+00 0. -1.
         -3   -1    0    0    0  501 -0.00000000000E+00 -0.00000000000E+00 -0.85717012733E+02  0.85717012733E+02  0.00000000000E+00 0.  1.
         25    2    1    2    0    0  0.26453331975E+02  0.30914965387E+00  0.34429606882E+02  0.13240909550E+03  0.12508755492E+03 0.  0.
          5    1    3    3  502    0 -0.18424205999E+02 -0.16055711519E+02 -0.38103044091E+02  0.45459340163E+02  0.41800000000E+01 0. -1.
         -5    1    3    3    0  502  0.44877537974E+02  0.16364861173E+02  0.72532650973E+02  0.86949755336E+02  0.41800000000E+01 0. -1.
        -11    1    1    2    0    0 -0.98195394541E+01  0.18501277802E+02 -0.30948990861E+02  0.37370585635E+02  0.00000000000E+00 0.  1.
         11    1    1    2    0    0 -0.16633792521E+02 -0.18810427456E+02  0.58826882344E+02  0.63961842695E+02  0.00000000000E+00 0. -1.
</event>
<event>
 7    1  0.2490079E-009  0.1912625E+03  0.7561462E-02  0.1157328E+00
          4   -1    0    0  501    0  0.00000000000E+00  0.00000000000E+00  0.48484848192E+02  0.48484848192E+02  0.00000000000E+00 0. -1.
         -4   -1    0    0    0  501 -0.00000000000E+00 -0.00000000000E+00 -0.10094598769E+04  0.10094598769E+04  0.00000000000E+00 0.  1.
         25    2    1    2    0    0 -0.18774977664E+03 -0.34477062091E+02 -0.48859042263E+03  0.53926471376E+03  0.12508870446E+03 0.  0.
          5    1    3    3  502    0 -0.97015864524E+02 -0.16825687458E+02 -0.10230860886E+03  0.14205529055E+03  0.41800000000E+01 0. -1.
         -5    1    3    3    0  502 -0.90733912114E+02 -0.17651374633E+02 -0.38628181377E+03  0.39720942321E+03  0.41800000000E+01 0. -1.
        -11    1    1    2    0    0  0.79270703653E+02  0.21879501327E+02 -0.32501113230E+03  0.33525332684E+03  0.00000000000E+00 0.  1.
         11    1    1    2    0    0  0.10847907298E+03  0.12597560764E+02 -0.14737347380E+03  0.18342668451E+03  0.00000000000E+00 0. -1.
</event>
<event>
 7    1  0.2490079E-009  0.2375867E+03  0.7561462E-02  0.1121411E+00
         -2   -1    0    0    0  501 -0.00000000000E+00  0.00000000000E+00  0.30553455727E+02  0.30553455727E+02  0.00000000000E+00 0.  1.
          2   -1    0    0  501    0  0.00000000000E+00 -0.00000000000E+00 -0.20919697901E+04  0.20919697901E+04  0.00000000000E+00 0. -1.
         25    2    1    2    0    0  0.20149157558E+03 -0.10159941197E+03 -0.11862762119E+04  0.12140098042E+04  0.12508900077E+03 0.  0.
          5    1    3    3  502    0  0.49229204485E+02 -0.52414077606E+02 -0.16185142875E+03  0.17715560249E+03  0.41800000000E+01 0. -1.
         -5    1    3    3    0  502  0.15226237110E+03 -0.49185334363E+02 -0.10244247832E+04  0.10368542017E+04  0.41800000000E+01 0. -1.
        -11    1    1    2    0    0 -0.98552896216E+01 -0.15595905261E+02 -0.89998677321E+02  0.91870130695E+02  0.00000000000E+00 0.  1.
         11    1    1    2    0    0 -0.19163628596E+03  0.11719531723E+03 -0.78514144518E+03  0.81664331101E+03  0.00000000000E+00 0. -1.
</event>
<event>
 7    1  0.2490079E-009  0.2077757E+03  0.7561462E-02  0.1143340E+00
         -2   -1    0    0    0  501 -0.00000000000E+00  0.00000000000E+00  0.30886196411E+03  0.30886196411E+03  0.00000000000E+00 0.  1.
          2   -1    0    0  501    0  0.00000000000E+00 -0.00000000000E+00 -0.16234882908E+03  0.16234882908E+03  0.00000000000E+00 0. -1.
         25    2    1    2    0    0 -0.14791940376E+03 -0.11948517926E+03  0.69102401819E+02  0.23786446058E+03  0.12508997402E+03 0.  0.
          5    1    3    3  502    0 -0.59849538005E+02  0.17277602314E+02  0.38621151218E+01  0.62552946169E+02  0.41800000000E+01 0.  1.
         -5    1    3    3    0  502 -0.88069865757E+02 -0.13676278157E+03  0.65240286697E+02  0.17531151442E+03  0.41800000000E+01 0.  1.
        -11    1    1    2    0    0  0.71002417499E+02  0.51127461623E+02  0.94776807674E+02  0.12898838667E+03  0.00000000000E+00 0.  1.
         11    1    1    2    0    0  0.76916986263E+02  0.68357717639E+02 -0.17366074467E+02  0.10435794593E+03  0.00000000000E+00 0. -1.
</event>
<event>
 7    1  0.2490079E-009  0.1230195E+03  0.7561462E-02  0.1238197E+00
          1   -1    0    0  501    0  0.00000000000E+00  0.00000000000E+00  0.20605241939E+04  0.20605241939E+04  0.00000000000E+00 0. -1.
         -1   -1    0    0    0  501 -0.00000000000E+00 -0.00000000000E+00 -0.24039745020E+02  0.24039745020E+02  0.00000000000E+00 0.  1.
         25    2    1    2    0    0  0.74218351394E+02 -0.28361403634E+01  0.18953742223E+04  0.19009492054E+04  0.12509209300E+03 0.  0.
          5    1    3    3  502    0 -0.32390715014E+02 -0.68459831089E+01  0.70752115958E+03  0.70830762353E+03  0.41800000000E+01 0. -1.
         -5    1    3    3    0  502  0.10660906641E+03  0.40098427455E+01  0.11878530627E+04  0.11926415819E+04  0.41800000000E+01 0. -1.
        -11    1    1    2    0    0  0.57198511280E+01  0.22802963000E+02  0.73068859982E+02  0.76757736532E+02  0.00000000000E+00 0.  1.
         11    1    1    2    0    0 -0.79938202522E+02 -0.19966822636E+02  0.68041366607E+02  0.10685699696E+03  0.00000000000E+00 0. -1.
</event>
<event>
 7    1  0.2490079E-009  0.2860787E+03  0.7561462E-02  0.1092414E+00
         -1   -1    0    0    0  501 -0.00000000000E+00  0.00000000000E+00  0.29910467707E+03  0.29910467707E+03  0.00000000000E+00 0.  1.
          1   -1    0    0  501    0  0.00000000000E+00 -0.00000000000E+00 -0.33241118337E+03  0.33241118337E+03  0.00000000000E+00 0. -1.
         25    2    1    2    0    0  0.29313289016E+02 -0.26358806252E+03 -0.14685846410E+03  0.32795417834E+03  0.12509436036E+03 0.  0.
          5    1    3    3  502    0  0.75184030595E+02 -0.18931271844E+03 -0.12032659023E+03  0.23661763361E+03  0.41800000000E+01 0.  1.
         -5    1    3    3    0  502 -0.45870741579E+02 -0.74275344083E+02 -0.26531873871E+02  0.91336544728E+02  0.41800000000E+01 0.  1.
        -11    1    1    2    0    0  0.33120080375E+02  0.66691615866E+02  0.22173515778E+02  0.77694119165E+02  0.00000000000E+00 0.  1.
         11    1    1    2    0    0 -0.62433369391E+02  0.19689644666E+03  0.91378442022E+02  0.22586756293E+03  0.00000000000E+00 0. -1.
</event>
<event>
 7    1  0.2490079E-009  0.1039533E+03  0.7561462E-02  0.1272196E+00
          1   -1    0    0  501    0  0.00000000000E+00  0.00000000000E+00  0.15825118781E+03  0.15825118781E+03  0.00000000000E+00 0. -1.
         -1   -1    0    0    0  501 -0.00000000000E+00 -0.00000000000E+00 -0.80084183493E+02  0.80084183493E+02  0.00000000000E+00 0.  1.
         25    2    1    2    0    0  0.11412650041E+02  0.80226033329E+01  0.14537032369E+02  0.12670447125E+03  0.12509231383E+03 0.  0.
          5    1    3    3  502    0  0.56352397741E+02  0.32145136605E+02  0.32223863950E+02  0.72558613178E+02  0.41800000000E+01 0.  1.
         -5    1    3    3    0  502 -0.44939747700E+02 -0.24122533272E+02 -0.17686831581E+02  0.54145858070E+02  0.41800000000E+01 0.  1.
        -11    1    1    2    0    0 -0.51117904028E+02 -0.94745247983E+01  0.36223730379E+02  0.63363754426E+02  0.00000000000E+00 0. -1.
         11    1    1    2    0    0  0.39705253988E+02  0.14519214654E+01  0.27406241568E+02  0.48267145628E+02  0.00000000000E+00 0.  1.
</event>
<event>
 7    1  0.2490079E-009  0.6129946E+02  0.7561462E-02  0.1392458E+00
         -1   -1    0    0    0  501 -0.00000000000E+00  0.00000000000E+00  0.38847335664E+02  0.38847335664E+02  0.00000000000E+00 0.  1.
          1   -1    0    0  501    0  0.00000000000E+00 -0.00000000000E+00 -0.33993152005E+03  0.33993152005E+03  0.00000000000E+00 0. -1.
         25    2    1    2    0    0  0.24471244083E+02  0.10527037521E+02 -0.21521934872E+03  0.25035302930E+03  0.12509041094E+03 0.  0.
          5    1    3    3  502    0  0.46029048218E+02  0.91009297073E+01 -0.22230016701E+03  0.22723630180E+03  0.41800000000E+01 0. -1.
         -5    1    3    3    0  502 -0.21557804135E+02  0.14261078133E+01  0.70808182934E+01  0.23116727500E+02  0.41800000000E+01 0. -1.
        -11    1    1    2    0    0 -0.25646881309E+02  0.13805458999E+02  0.89982149710E+01  0.30484768192E+02  0.00000000000E+00 0.  1.
         11    1    1    2    0    0  0.11756372253E+01 -0.24332496519E+02 -0.94863050638E+02  0.97941058224E+02  0.00000000000E+00 0. -1.
</event>
<event>
 7    1  0.2490079E-009  0.1481324E+03  0.7561462E-02  0.1202787E+00
         -1   -1    0    0    0  501 -0.00000000000E+00  0.00000000000E+00  0.15134492317E+03  0.15134492317E+03  0.00000000000E+00 0.  1.
          1   -1    0    0  501    0  0.00000000000E+00 -0.00000000000E+00 -0.19145403454E+03  0.19145403454E+03  0.00000000000E+00 0. -1.
         25    2    1    2    0    0 -0.71637813678E+02  0.10191108335E+03  0.10604312078E+02  0.17685462402E+03  0.12508901368E+03 0.  0.
          5    1    3    3  502    0  0.21428746729E+02  0.48823284017E+02 -0.31027683633E+02  0.61831171752E+02  0.41800000000E+01 0. -1.
         -5    1    3    3    0  502 -0.93066560407E+02  0.53087799330E+02  0.41631995711E+02  0.11502345226E+03  0.41800000000E+01 0. -1.
        -11    1    1    2    0    0 -0.88346900858E+01 -0.84456441412E+01 -0.40365902095E+02  0.42175664853E+02  0.00000000000E+00 0. -1.
         11    1    1    2    0    0  0.80472503763E+02 -0.93465439206E+02 -0.10347521348E+02  0.12376866884E+03  0.00000000000E+00 0.  1.
</event>
<event>
 7    1  0.2490079E-009  0.9993867E+02  0.7561462E-02  0.1280425E+00
          2   -1    0    0  501    0  0.00000000000E+00  0.00000000000E+00  0.25186633668E+02  0.25186633668E+02  0.00000000000E+00 0. -1.
         -2   -1    0    0    0  501 -0.00000000000E+00 -0.00000000000E+00 -0.53161757579E+03  0.53161757579E+03  0.00000000000E+00 0.  1.
         25    2    1    2    0    0 -0.32500654760E+02  0.21243554543E+02 -0.30521640249E+03  0.33213257141E+03  0.12508961377E+03 0.  0.
          5    1    3    3  502    0 -0.88307619471E+00 -0.49708886956E+02 -0.15708110726E+03  0.16481413752E+03  0.41800000000E+01 0. -1.
         -5    1    3    3    0  502 -0.31617578566E+02  0.70952441499E+02 -0.14813529523E+03  0.16731843390E+03  0.41800000000E+01 0. -1.
        -11    1    1    2    0    0 -0.17807512524E+02 -0.10759174274E+02 -0.44090372982E+01  0.21267509098E+02  0.00000000000E+00 0. -1.
         11    1    1    2    0    0  0.50308167284E+02 -0.10484380269E+02 -0.19680550233E+03  0.20340412895E+03  0.00000000000E+00 0.  1.
</event>
<event>
 7    1  0.2490079E-009  0.9865998E+02  0.7561462E-02  0.1283139E+00
          1   -1    0    0  501    0  0.00000000000E+00  0.00000000000E+00  0.89672204254E+02  0.89672204254E+02  0.00000000000E+00 0. -1.
         -1   -1    0    0    0  501 -0.00000000000E+00 -0.00000000000E+00 -0.18042315001E+03  0.18042315001E+03  0.00000000000E+00 0.  1.
         25    2    1    2    0    0  0.17502975799E+02  0.31122043200E+01 -0.11972566385E+03  0.17406590277E+03  0.12509461997E+03 0.  0.
          5    1    3    3  502    0 -0.38246937427E+01  0.59058846870E+02 -0.88123791305E+02  0.10623488443E+03  0.41800000000E+01 0.  1.
         -5    1    3    3    0  502  0.21327669542E+02 -0.55946642550E+02 -0.31601872548E+02  0.67831018341E+02  0.41800000000E+01 0.  1.
        -11    1    1    2    0    0 -0.28402627563E+01 -0.39051641157E+02 -0.10633202225E+02  0.40572931360E+02  0.00000000000E+00 0.  1.
         11    1    1    2    0    0 -0.14662713043E+02  0.35939436837E+02  0.39607920317E+02  0.55456520138E+02  0.00000000000E+00 0. -1.
</event>
<event>
 7    1  0.2490079E-009  0.7712662E+02  0.7561462E-02  0.1337409E+00
          1   -1    0    0  501    0  0.00000000000E+00  0.00000000000E+00  0.53877448397E+03  0.53877448397E+03  0.00000000000E+00 0. -1.
         -1   -1    0    0    0  501 -0.00000000000E+00 -0.00000000000E+00 -0.25908545762E+02  0.25908545762E+02  0.00000000000E+00 0.  1.
         25    2    1    2    0    0 -0.68413669314E+01  0.14869934905E+02  0.17085703732E+03  0.21238169553E+03  0.12508372448E+03 0.  0.
          5    1    3    3  502    0  0.24928556999E+02 -0.16782183977E+02 -0.50870497600E+01  0.30764023279E+02  0.41800000000E+01 0. -1.
         -5    1    3    3    0  502 -0.31769923930E+02  0.31652118882E+02  0.17594408708E+03  0.18161767225E+03  0.41800000000E+01 0. -1.
        -11    1    1    2    0    0 -0.26993216836E+02 -0.31239146565E+02  0.11466098691E+03  0.12186738675E+03  0.00000000000E+00 0.  1.
         11    1    1    2    0    0  0.33834583768E+02  0.16369211660E+02  0.22734791397E+03  0.23043394745E+03  0.00000000000E+00 0. -1.
</event>
<event>
 7    1  0.2490079E-009  0.1502800E+03  0.7561462E-02  0.1200129E+00
         -1   -1    0    0    0  501 -0.00000000000E+00  0.00000000000E+00  0.12958706295E+03  0.12958706295E+03  0.00000000000E+00 0. -1.
          1   -1    0    0  501    0  0.00000000000E+00 -0.00000000000E+00 -0.18254821832E+03  0.18254821832E+03  0.00000000000E+00 0.  1.
         25    2    1    2    0    0  0.86988100580E+02  0.67760121251E+02 -0.30729070159E+02  0.16956164069E+03  0.12509400691E+03 0.  0.
          5    1    3    3  502    0  0.29111783934E+02  0.92762203969E+02  0.41278251276E+01  0.97400378794E+02  0.41800000000E+01 0. -1.
         -5    1    3    3    0  502  0.57876316646E+02 -0.25002082718E+02 -0.34856895287E+02  0.72161261891E+02  0.41800000000E+01 0. -1.
        -11    1    1    2    0    0  0.75598723569E+01 -0.41154141089E+02  0.11704731257E+00  0.41842905001E+02  0.00000000000E+00 0. -1.
         11    1    1    2    0    0 -0.94547972937E+02 -0.26605980162E+02 -0.22349132523E+02  0.10073073558E+03  0.00000000000E+00 0.  1.
</event>
<event>
 7    1  0.2490079E-009  0.7848565E+02  0.7561462E-02  0.1333405E+00
          2   -1    0    0  501    0  0.00000000000E+00  0.00000000000E+00  0.18060149446E+03  0.18060149446E+03  0.00000000000E+00 0.  1.
         -2   -1    0    0    0  501 -0.00000000000E+00 -0.00000000000E+00 -0.95770614765E+02  0.95770614765E+02  0.00000000000E+00 0. -1.
         25    2    1    2    0    0  0.25381721994E+02  0.46437578767E+02 -0.10114265282E+02  0.13620085379E+03  0.12509074177E+03 0.  0.
          5    1    3    3  502    0 -0.15821749498E+00  0.52034078813E+01  0.54718858905E+02  0.55124644273E+02  0.41800000000E+01 0.  1.
         -5    1    3    3    0  502  0.25539939489E+02  0.41234170886E+02 -0.64833124187E+02  0.81076209516E+02  0.41800000000E+01 0.  1.
        -11    1    1    2    0    0 -0.31478899021E+02  0.18417667115E+02  0.45930923173E+02  0.58649648328E+02  0.00000000000E+00 0. -1.
         11    1    1    2    0    0  0.60971770273E+01 -0.64855245883E+02  0.49014221802E+02  0.81521607105E+02  0.00000000000E+00 0.  1.
</event>
<event>
 7    1  0.2490079E-009  0.7678993E+02  0.7561462E-02  0.1338416E+00
          2   -1    0    0  501    0  0.00000000000E+00  0.00000000000E+00  0.13029901537E+03  0.13029901537E+03  0.00000000000E+00 0. -1.
         -2   -1    0    0    0  501 -0.00000000000E+00 -0.00000000000E+00 -0.95916658351E+02  0.95916658351E+02  0.00000000000E+00 0.  1.
         25    2    1    2    0    0 -0.16296972631E+02 -0.13361944080E+02  0.70375113331E+00  0.12684999537E+03  0.12508514378E+03 0.  0.
          5    1    3    3  502    0  0.41136385001E+02 -0.34182215376E+02  0.27176913194E+02  0.60138864553E+02  0.41800000000E+01 0. -1.
         -5    1    3    3    0  502 -0.57433357632E+02  0.20820271296E+02 -0.26473162060E+02  0.66711130819E+02  0.41800000000E+01 0. -1.
        -11    1    1    2    0    0  0.25883230998E+02  0.58920445925E+01  0.62599407877E+02  0.67995174115E+02  0.00000000000E+00 0. -1.
         11    1    1    2    0    0 -0.95862583673E+01  0.74698994879E+01 -0.28920801992E+02  0.31370504231E+02  0.00000000000E+00 0.  1.
</event>
<event>
 7    1  0.2490079E-009  0.1319394E+03  0.7561462E-02  0.1224606E+00
          2   -1    0    0  501    0  0.00000000000E+00  0.00000000000E+00  0.20391408974E+03  0.20391408974E+03  0.00000000000E+00 0. -1.
         -2   -1    0    0    0  501 -0.00000000000E+00 -0.00000000000E+00 -0.10523716541E+03  0.10523716541E+03  0.00000000000E+00 0.  1.
         25    2    1    2    0    0 -0.10611725816E+02 -0.97997606226E+02  0.40836603779E+02  0.16440686041E+03  0.12508336417E+03 0.  0.
          5    1    3    3  502    0 -0.11360834255E+02  0.26843768251E+02 -0.76312167934E+01  0.30419801423E+02  0.41800000000E+01 0.  1.
         -5    1    3    3    0  502  0.74910843906E+00 -0.12484137448E+03  0.48467820573E+02  0.13398705899E+03  0.41800000000E+01 0.  1.
        -11    1    1    2    0    0  0.28141198439E+02  0.39842526683E+02  0.67459918581E+02  0.83247790343E+02  0.00000000000E+00 0. -1.
         11    1    1    2    0    0 -0.17529472623E+02  0.58155079543E+02 -0.96195980298E+01  0.61496604405E+02  0.00000000000E+00 0.  1.
</event>
<event>
 7    1  0.2490079E-009  0.1386840E+03  0.7561462E-02  0.1215111E+00
          2   -1    0    0  501    0  0.00000000000E+00  0.00000000000E+00  0.47820506887E+03  0.47820506887E+03  0.00000000000E+00 0. -1.
         -2   -1    0    0    0  501 -0.00000000000E+00 -0.00000000000E+00 -0.60083726555E+02  0.60083726555E+02  0.00000000000E+00 0.  1.
         25    2    1    2    0    0  0.93352295409E+02 -0.52297494565E+02  0.33785933726E+03  0.37582206086E+03  0.12507442046E+03 0.  0.
          5    1    3    3  502    0  0.86427744437E+02  0.19121867267E+02  0.22718519416E+03  0.24385648579E+03  0.41800000000E+01 0. -1.
         -5    1    3    3    0  502  0.69245509725E+01 -0.71419361832E+02  0.11067414311E+03  0.13196557507E+03  0.41800000000E+01 0. -1.
        -11    1    1    2    0    0 -0.29042612615E+02 -0.64747679337E+01 -0.15043792484E+02  0.33342340344E+02  0.00000000000E+00 0.  1.
         11    1    1    2    0    0 -0.64309682794E+02  0.58772262498E+02  0.95305797536E+02  0.12912439423E+03  0.00000000000E+00 0. -1.
</event>
<event>
 7    1  0.2490079E-009  0.1789011E+03  0.7561462E-02  0.1168871E+00
         -1   -1    0    0    0  501 -0.00000000000E+00  0.00000000000E+00  0.25156276618E+03  0.25156276618E+03  0.00000000000E+00 0.  1.
          1   -1    0    0  501    0  0.00000000000E+00 -0.00000000000E+00 -0.15100070415E+03  0.15100070415E+03  0.00000000000E+00 0. -1.
         25    2    1    2    0    0 -0.15664964093E+03 -0.22757416257E+02  0.20713252777E+02  0.20281359052E+03  0.12508918282E+03 0.  0.
          5    1    3    3  502    0 -0.12809934090E+03 -0.67686342227E+02 -0.15770880243E+01  0.14495116995E+03  0.41800000000E+01 0.  1.
         -5    1    3    3    0  502 -0.28550300035E+02  0.44928925970E+02  0.22290340801E+02  0.57862420567E+02  0.41800000000E+01 0.  1.
        -11    1    1    2    0    0  0.97126401985E+02  0.23524954617E+02  0.95467956687E+02  0.13820670102E+03  0.00000000000E+00 0.  1.
         11    1    1    2    0    0  0.59523238950E+02 -0.76753836041E+00 -0.15619147437E+02  0.61543178800E+02  0.00000000000E+00 0. -1.
</event>
<event>
 7    1  0.2490079E-009  0.1054587E+03  0.7561462E-02  0.1269219E+00
         -1   -1    0    0    0  501 -0.00000000000E+00  0.00000000000E+00  0.71242690141E+02  0.71242690141E+02  0.00000000000E+00 0.  1.
          1   -1    0    0  501    0  0.00000000000E+00 -0.00000000000E+00 -0.23995219851E+03  0.23995219851E+03  0.00000000000E+00 0. -1.
         25    2    1    2    0    0 -0.52496351319E+02  0.48011805738E+02 -0.79404784615E+02  0.16435467852E+03  0.12508533143E+03 0.  0.
          5    1    3    3  502    0  0.20819431304E+02  0.44241479571E+02  0.84423459671E+01  0.49794606534E+02  0.41800000000E+01 0. -1.
         -5    1    3    3    0  502 -0.73315782623E+02  0.37703261669E+01 -0.87847130582E+02  0.11456007198E+03  0.41800000000E+01 0. -1.
        -11    1    1    2    0    0  0.45795377050E+02 -0.59457323539E+02 -0.21951701900E+02  0.78193779151E+02  0.00000000000E+00 0.  1.
         11    1    1    2    0    0  0.67009742685E+01  0.11445517801E+02 -0.67353021858E+02  0.68646430988E+02  0.00000000000E+00 0. -1.
</event>
<event>
 7    1  0.2490079E-009  0.6642882E+02  0.7561462E-02  0.1372676E+00
         -2   -1    0    0    0  501 -0.00000000000E+00  0.00000000000E+00  0.59077000959E+02  0.59077000959E+02  0.00000000000E+00 0.  1.
          2   -1    0    0  501    0  0.00000000000E+00 -0.00000000000E+00 -0.53317777623E+03  0.53317777623E+03  0.00000000000E+00 0. -1.
         25    2    1    2    0    0 -0.95145701962E+01  0.22626314331E+02 -0.47871143427E+03  0.49539277675E+03  0.12508752459E+03 0.  0.
          5    1    3    3  502    0 -0.38983078039E+01 -0.19467034516E+02 -0.65686476562E+01  0.21325612972E+02  0.41800000000E+01 0.  1.
         -5    1    3    3    0  502 -0.56162623923E+01  0.42093348848E+02 -0.47214278661E+03  0.47406716378E+03  0.41800000000E+01 0.  1.
        -11    1    1    2    0    0  0.12658579411E+02 -0.45285269022E+02 -0.29706553182E+02  0.55619012262E+02  0.00000000000E+00 0. -1.
         11    1    1    2    0    0 -0.31440092150E+01  0.22658954690E+02  0.34317212183E+02  0.41242988175E+02  0.00000000000E+00 0.  1.
</event>
<event>
 7    1  0.2490079E-009  0.1977489E+03  0.7561462E-02  0.1151652E+00
          2   -1    0    0  501    0  0.00000000000E+00  0.00000000000E+00  0.37185680405E+03  0.37185680405E+03  0.00000000000E+00 0. -1.
         -2   -1    0    0    0  501 -0.00000000000E+00 -0.00000000000E+00 -0.19422522856E+03  0.19422522856E+03  0.00000000000E+00 0.  1.
         25    2    1    2    0    0  0.37219700159E+02 -0.16356917665E+03  0.27857252492E+03  0.34841005270E+03  0.12508689600E+03 0.  0.
          5    1    3    3  502    0  0.56312485575E+02 -0.23322544949E+02  0.12731374484E+03  0.14121366491E+03  0.41800000000E+01 0.  1.
         -5    1    3    3    0  502 -0.19092785416E+02 -0.14024663170E+03  0.15125878009E+03  0.20719638779E+03  0.41800000000E+01 0.  1.
        -11    1    1    2    0    0  0.28260129504E+02  0.18883422888E+02 -0.15907956941E+02  0.37527079204E+02  0.00000000000E+00 0. -1.
         11    1    1    2    0    0 -0.65479829663E+02  0.14468575376E+03 -0.85032992503E+02  0.18014490070E+03  0.00000000000E+00 0.  1.
</event>
<event>
 7    1  0.2490079E-009  0.1196514E+03  0.7561462E-02  0.1243673E+00
         -1   -1    0    0    0  501 -0.00000000000E+00  0.00000000000E+00  0.87516490591E+02  0.87516490591E+02  0.00000000000E+00 0.  1.
          1   -1    0    0  501    0  0.00000000000E+00 -0.00000000000E+00 -0.25352242814E+03  0.25352242814E+03  0.00000000000E+00 0. -1.
         25    2    1    2    0    0  0.56955327708E+02 -0.52189989704E+02 -0.15059591654E+02  0.14779030870E+03  0.12508988635E+03 0.  0.
          5    1    3    3  502    0 -0.35028503222E+02 -0.13984244386E+02 -0.28143544404E+02  0.47244963971E+02  0.41800000000E+01 0. -1.
         -5    1    3    3    0  502  0.91983830930E+02 -0.38205745319E+02  0.13083952750E+02  0.10054534473E+03  0.41800000000E+01 0. -1.
        -11    1    1    2    0    0  0.11345518763E+02  0.26262297557E+02 -0.10043649232E+03  0.10443140360E+03  0.00000000000E+00 0.  1.
         11    1    1    2    0    0 -0.68300846471E+02  0.25927692147E+02 -0.50509853577E+02  0.88817206425E+02  0.00000000000E+00 0. -1.
</event>
<event>
 7    1  0.2490079E-009  0.2263629E+03  0.7561462E-02  0.1129226E+00
          2   -1    0    0  501    0  0.00000000000E+00  0.00000000000E+00  0.24021749418E+03  0.24021749418E+03  0.00000000000E+00 0. -1.
         -2   -1    0    0    0  501 -0.00000000000E+00 -0.00000000000E+00 -0.24618644251E+03  0.24618644251E+03  0.00000000000E+00 0.  1.
         25    2    1    2    0    0  0.11584635546E+03  0.17382213220E+03 -0.63836796720E+02  0.25170833664E+03  0.12508972141E+03 0.  0.
          5    1    3    3  502    0  0.11694642585E+03  0.72302896824E+02 -0.59868648556E+02  0.15001967500E+03  0.41800000000E+01 0.  1.
         -5    1    3    3    0  502 -0.11000703849E+01  0.10151923538E+03 -0.39681481641E+01  0.10168866164E+03  0.41800000000E+01 0.  1.
        -11    1    1    2    0    0 -0.36010777301E+02 -0.94008606257E+02  0.67797304798E+02  0.12137079002E+03  0.00000000000E+00 0.  1.
         11    1    1    2    0    0 -0.79835578160E+02 -0.79813525945E+02 -0.99294564032E+01  0.11332481003E+03  0.00000000000E+00 0. -1.
</event>
<event>
 7    1  0.2490079E-009  0.1269471E+03  0.7561462E-02  0.1232057E+00
          2   -1    0    0  501    0  0.00000000000E+00  0.00000000000E+00  0.60882144389E+03  0.60882144389E+03  0.00000000000E+00 0. -1.
         -2   -1    0    0    0  501 -0.00000000000E+00 -0.00000000000E+00 -0.26917997198E+02  0.26917997198E+02  0.00000000000E+00 0.  1.
         25    2    1    2    0    0  0.57933810998E+01  0.65000253458E+02  0.33832377360E+03  0.36655960775E+03  0.12507747212E+03 0.  0.
          5    1    3    3  502    0 -0.30568124660E+02 -0.27160964317E+02  0.11782017133E+03  0.12478458799E+03  0.41800000000E+01 0. -1.
         -5    1    3    3    0  502  0.36361505760E+02  0.92161217775E+02  0.22050360227E+03  0.24177501976E+03  0.41800000000E+01 0. -1.
        -11    1    1    2    0    0  0.30797704969E+02  0.81298536422E+01  0.53629525147E+02  0.62375629208E+02  0.00000000000E+00 0.  1.
         11    1    1    2    0    0 -0.36591086068E+02 -0.73130107100E+02  0.18995014794E+03  0.20680420413E+03  0.00000000000E+00 0. -1.
</event>
<event>
 7    1  0.2756092E-009  0.8224304E+02  0.7561462E-02  0.1322804E+00
         -2   -1    0    0    0  501 -0.00000000000E+00  0.00000000000E+00  0.45984273690E+02  0.45984273690E+02  0.00000000000E+00 0.  1.
          2   -1    0    0  501    0  0.00000000000E+00 -0.00000000000E+00 -0.32967376897E+03  0.32967376897E+03  0.00000000000E+00 0. -1.
         25    2    1    2    0    0  0.19074796255E+02  0.27508955245E+02 -0.23177156959E+03  0.26549207053E+03  0.12508952224E+03 0.  0.
          5    1    3    3  502    0  0.31862332695E+02  0.62877760727E+02 -0.70283436954E+02  0.99629588722E+02  0.41800000000E+01 0.  1.
         -5    1    3    3    0  502 -0.12787536440E+02 -0.35368805483E+02 -0.16148813263E+03  0.16586248181E+03  0.41800000000E+01 0.  1.
        -11    1    1    2    0    0 -0.31219435149E+01  0.12539605282E+02 -0.64083423243E+02  0.65373338346E+02  0.00000000000E+00 0. -1.
         11    1    1    2    0    0 -0.15952852740E+02 -0.40048560527E+02  0.12165497550E+02  0.44792633786E+02  0.00000000000E+00 0.  1.
</event>
<event>
 7    1  0.2490079E-009  0.7014806E+02  0.7561462E-02  0.1359590E+00
         -1   -1    0    0    0  501 -0.00000000000E+00  0.00000000000E+00  0.11807832046E+03  0.11807832046E+03  0.00000000000E+00 0.  1.
          1   -1    0    0  501    0  0.00000000000E+00 -0.00000000000E+00 -0.11190975867E+03  0.11190975867E+03  0.00000000000E+00 0. -1.
         25    2    1    2    0    0 -0.20736676690E+02 -0.33251257229E+02  0.57503711318E+01  0.13120078685E+03  0.12507966995E+03 0.  0.
          5    1    3    3  502    0 -0.47223087650E+01 -0.23680456356E+02  0.64722704900E+02  0.69206684235E+02  0.41800000000E+01 0. -1.
         -5    1    3    3    0  502 -0.16014367925E+02 -0.95708008727E+01 -0.58972333768E+02  0.61994102618E+02  0.41800000000E+01 0. -1.
        -11    1    1    2    0    0 -0.96654571797E+01 -0.27275938412E+02 -0.92207188024E+01  0.30371360424E+02  0.00000000000E+00 0.  1.
         11    1    1    2    0    0  0.30402133870E+02  0.60527195641E+02  0.96389094587E+01  0.68415931855E+02  0.00000000000E+00 0. -1.
</event>
<event>
 7    1  0.2490079E-009  0.1567612E+03  0.7561462E-02  0.1192403E+00
         -2   -1    0    0    0  501 -0.00000000000E+00  0.00000000000E+00  0.25077899107E+02  0.25077899107E+02  0.00000000000E+00 0.  1.
          2   -1    0    0  501    0  0.00000000000E+00 -0.00000000000E+00 -0.10253479146E+04  0.10253479146E+04  0.00000000000E+00 0. -1.
         25    2    1    2    0    0  0.64696315862E+02 -0.10036942377E+03 -0.56326944987E+03  0.58921973484E+03  0.12509111981E+03 0.  0.
          5    1    3    3  502    0  0.83856883357E+00  0.25589611748E+02 -0.44050671084E+02  0.51122064219E+02  0.41800000000E+01 0.  1.
         -5    1    3    3    0  502  0.63857747029E+02 -0.12595903552E+03 -0.51921877878E+03  0.53809767062E+03  0.41800000000E+01 0.  1.
        -11    1    1    2    0    0 -0.78838340552E+02  0.10510133093E+03 -0.40739759498E+03  0.42805907781E+03  0.00000000000E+00 0. -1.
         11    1    1    2    0    0  0.14142024689E+02 -0.47319071612E+01 -0.29602970637E+02  0.33147001044E+02  0.00000000000E+00 0.  1.
</event>
<event>
 7    1  0.2490079E-009  0.1708549E+03  0.7561462E-02  0.1176959E+00
         -2   -1    0    0    0  501 -0.00000000000E+00  0.00000000000E+00  0.31347702080E+02  0.31347702080E+02  0.00000000000E+00 0.  1.
          2   -1    0    0  501    0  0.00000000000E+00 -0.00000000000E+00 -0.99683479328E+03  0.99683479328E+03  0.00000000000E+00 0. -1.
         25    2    1    2    0    0 -0.36769734231E+02  0.12968416696E+03 -0.40584732112E+03  0.44556685077E+03  0.12509106252E+03 0.  0.
          5    1    3    3  502    0  0.41346052459E+02  0.22778795857E+02 -0.15225177578E+03  0.15945671897E+03  0.41800000000E+01 0. -1.
         -5    1    3    3    0  502 -0.78115786691E+02  0.10690537110E+03 -0.25359554534E+03  0.28611013180E+03  0.41800000000E+01 0. -1.
        -11    1    1    2    0    0  0.66746070977E+02 -0.93065155586E+02 -0.40724706834E+03  0.42304412990E+03  0.00000000000E+00 0.  1.
         11    1    1    2    0    0 -0.29976336746E+02 -0.36619011372E+02 -0.15239270174E+03  0.15957151469E+03  0.00000000000E+00 0. -1.
</event>
<event>
 7    1  0.2490079E-009  0.1266967E+03  0.7561462E-02  0.1232441E+00
         -1   -1    0    0    0  501 -0.00000000000E+00  0.00000000000E+00  0.79632098373E+03  0.79632098373E+03  0.00000000000E+00 0.  1.
          1   -1    0    0  501    0  0.00000000000E+00 -0.00000000000E+00 -0.29230610623E+02  0.29230610623E+02  0.00000000000E+00 0. -1.
         25    2    1    2    0    0 -0.87275596221E+02 -0.43104377725E+02  0.55669447519E+03  0.57881765993E+03  0.12508448208E+03 0.  0.
          5    1    3    3  502    0 -0.15402278844E+02 -0.68031337145E+02  0.15587457114E+03  0.17082109752E+03  0.41800000000E+01 0. -1.
         -5    1    3    3    0  502 -0.71873317377E+02  0.24926959420E+02  0.40081990405E+03  0.40799656241E+03  0.41800000000E+01 0. -1.
        -11    1    1    2    0    0  0.57939785589E+02  0.35052784624E+01  0.17930051623E+03  0.18846214700E+03  0.00000000000E+00 0.  1.
         11    1    1    2    0    0  0.29335810631E+02  0.39599099263E+02  0.31095381684E+02  0.58271787426E+02  0.00000000000E+00 0. -1.
</event>
<event>
 7    1  0.2490079E-009  0.2393278E+03  0.7561462E-02  0.1120241E+00
         -2   -1    0    0    0  501 -0.00000000000E+00  0.00000000000E+00  0.84716504524E+03  0.84716504524E+03  0.00000000000E+00 0.  1.
          2   -1    0    0  501    0  0.00000000000E+00 -0.00000000000E+00 -0.23084903024E+03  0.23084903024E+03  0.00000000000E+00 0. -1.
         25    2    1    2    0    0 -0.50446826758E+01 -0.21622533446E+03 -0.13969942541E+03  0.28625653160E+03  0.12509207944E+03 0.  0.
          5    1    3    3  502    0  0.52215412379E+02 -0.76823298126E+02 -0.23486775113E+02  0.95902916692E+02  0.41800000000E+01 0.  1.
         -5    1    3    3    0  502 -0.57260095055E+02 -0.13940203633E+03 -0.11621265030E+03  0.19035361491E+03  0.41800000000E+01 0.  1.
        -11    1    1    2    0    0 -0.27245022451E+02  0.14979128485E+02  0.11413643291E+03  0.11829535433E+03  0.00000000000E+00 0.  1.
         11    1    1    2    0    0  0.32289705127E+02  0.20124620597E+03  0.64187900750E+03  0.67346218955E+03  0.00000000000E+00 0. -1.
</event>
<event>
 7    1  0.2490079E-009  0.2231351E+03  0.7561462E-02  0.1131567E+00
         -2   -1    0    0    0  501 -0.00000000000E+00  0.00000000000E+00  0.10055392610E+03  0.10055392610E+03  0.00000000000E+00 0. -1.
          2   -1    0    0  501    0  0.00000000000E+00 -0.00000000000E+00 -0.69707450190E+03  0.69707450190E+03  0.00000000000E+00 0.  1.
         25    2    1    2    0    0 -0.21375667303E+03  0.29906265576E+01 -0.13718418035E+03  0.28313978583E+03  0.12509108631E+03 0.  0.
          5    1    3    3  502    0 -0.78389219715E+02 -0.16141227092E+02 -0.12138297280E+03  0.14545345463E+03  0.41800000000E+01 0. -1.
         -5    1    3    3    0  502 -0.13536745331E+03  0.19131853649E+02 -0.15801207551E+02  0.13768633120E+03  0.41800000000E+01 0. -1.
        -11    1    1    2    0    0  0.13346926401E+03 -0.42225439088E+02 -0.24328360238E+03  0.28068477573E+03  0.00000000000E+00 0. -1.
         11    1    1    2    0    0  0.80287409018E+02  0.39234812530E+02 -0.21605279308E+03  0.23380386643E+03  0.00000000000E+00 0.  1.
</event>
<event>
 7    1  0.2490079E-009  0.1154503E+03  0.7561462E-02  0.1250797E+00
         -2   -1    0    0    0  501 -0.00000000000E+00  0.00000000000E+00  0.25928646045E+02  0.25928646045E+02  0.00000000000E+00 0.  1.
          2   -1    0    0  501    0  0.00000000000E+00 -0.00000000000E+00 -0.63426178317E+03  0.63426178317E+03  0.00000000000E+00 0. -1.
         25    2    1    2    0    0 -0.30890025628E+01 -0.61087482773E+02 -0.40641572961E+03  0.42960696424E+03  0.12508867240E+03 0.  0.
          5    1    3    3  502    0 -0.70585778135E+01 -0.94016659279E+02 -0.36150217506E+03  0.37361778694E+03  0.41800000000E+01 0.  1.
         -5    1    3    3    0  502  0.39695752507E+01  0.32929176506E+02 -0.44913554544E+02  0.55989177301E+02  0.41800000000E+01 0.  1.
        -11    1    1    2    0    0  0.22004071889E+02  0.75929606717E+02 -0.18500676935E+03  0.20118893871E+03  0.00000000000E+00 0. -1.
         11    1    1    2    0    0 -0.18915069326E+02 -0.14842123944E+02 -0.16910638170E+02  0.29394526261E+02  0.00000000000E+00 0.  1.
</event>
<event>
 7    1  0.2490079E-009  0.1274380E+03  0.7561462E-02  0.1231308E+00
          3   -1    0    0  501    0  0.00000000000E+00  0.00000000000E+00  0.35380361402E+03  0.35380361402E+03  0.00000000000E+00 0. -1.
         -3   -1    0    0    0  501 -0.00000000000E+00 -0.00000000000E+00 -0.54857444613E+02  0.54857444613E+02  0.00000000000E+00 0.  1.
         25    2    1    2    0    0 -0.22338371365E+02 -0.81125469506E+02  0.14185843256E+03  0.20701029724E+03  0.12509637739E+03 0.  0.
          5    1    3    3  502    0 -0.56031026567E+02 -0.10819642866E+02  0.10735555837E+03  0.12165208146E+03  0.41800000000E+01 0.  1.
         -5    1    3    3    0  502  0.33692655203E+02 -0.70305826640E+02  0.34502874189E+02  0.85358215781E+02  0.41800000000E+01 0.  1.
        -11    1    1    2    0    0 -0.31818013993E+02  0.42374323807E+02  0.37994806679E+02  0.65204100080E+02  0.00000000000E+00 0.  1.
         11    1    1    2    0    0  0.54156385357E+02  0.38751145698E+02  0.11909293017E+03  0.13644666132E+03  0.00000000000E+00 0. -1.
</event>
<event>
 7    1  0.2490079E-009  0.1432699E+03  0.7561462E-02  0.1208996E+00
          2   -1    0    0  501    0  0.00000000000E+00  0.00000000000E+00  0.12808478223E+03  0.12808478223E+03  0.00000000000E+00 0.  1.
         -2   -1    0    0    0  501 -0.00000000000E+00 -0.00000000000E+00 -0.25978408653E+03  0.25978408653E+03  0.00000000000E+00 0. -1.
         25    2    1    2    0    0 -0.55017808443E+02  0.10478089627E+03 -0.15999069164E+03  0.23505411403E+03  0.12508964640E+03 0.  0.
          5    1    3    3  502    0  0.15105265849E+02  0.29499089445E+02 -0.12005307204E+03  0.12461371450E+03  0.41800000000E+01 0. -1.
         -5    1    3    3    0  502 -0.70123074291E+02  0.75281806830E+02 -0.39937619600E+02  0.11044039952E+03  0.41800000000E+01 0. -1.
        -11    1    1    2    0    0  0.20154007895E+02  0.15188763617E+02  0.51574436966E+01  0.25758140459E+02  0.00000000000E+00 0.  1.
         11    1    1    2    0    0  0.34863800548E+02 -0.11996965989E+03  0.23133943652E+02  0.12705661428E+03  0.00000000000E+00 0. -1.
</event>
<event>
 7    1  0.2490079E-009  0.1207918E+03  0.7561462E-02  0.1241797E+00
         -2   -1    0    0    0  501 -0.00000000000E+00  0.00000000000E+00  0.59250537237E+02  0.59250537237E+02  0.00000000000E+00 0. -1.
          2   -1    0    0  501    0  0.00000000000E+00 -0.00000000000E+00 -0.31890303457E+03  0.31890303457E+03  0.00000000000E+00 0.  1.
         25    2    1    2    0    0 -0.66005330363E+02 -0.52239194510E+02 -0.16239883759E+03  0.22160144995E+03  0.12509269798E+03 0.  0.
          5    1    3    3  502    0 -0.10282794742E+03 -0.38623180660E+02 -0.13198518939E+03  0.17176408086E+03  0.41800000000E+01 0.  1.
         -5    1    3    3    0  502  0.36822617061E+02 -0.13616013850E+02 -0.30413648203E+02  0.49837369086E+02  0.41800000000E+01 0.  1.
        -11    1    1    2    0    0  0.57311102244E+02  0.23133330883E+02 -0.10791422663E+03  0.12435913215E+03  0.00000000000E+00 0.  1.
         11    1    1    2    0    0  0.86942281187E+01  0.29105863627E+02  0.10660566895E+02  0.32192989712E+02  0.00000000000E+00 0. -1.
</event>
<event>
 7    1  0.2490079E-009  0.9849609E+02  0.7561462E-02  0.1283491E+00
         -2   -1    0    0    0  501 -0.00000000000E+00  0.00000000000E+00  0.31350527053E+03  0.31350527053E+03  0.00000000000E+00 0.  1.
          2   -1    0    0  501    0  0.00000000000E+00 -0.00000000000E+00 -0.63168042416E+02  0.63168042416E+02  0.00000000000E+00 0. -1.
         25    2    1    2    0    0 -0.71957262501E+02  0.12003157779E+02  0.65114435676E+02  0.15878184138E+03  0.12509940046E+03 0.  0.
          5    1    3    3  502    0 -0.10983642394E+02 -0.12129423318E+02  0.87691182208E+02  0.89302738744E+02  0.41800000000E+01 0.  1.
         -5    1    3    3    0  502 -0.60973620108E+02  0.24132581097E+02 -0.22576746532E+02  0.69479102638E+02  0.41800000000E+01 0.  1.
        -11    1    1    2    0    0  0.51317499991E+02 -0.49685940137E+02  0.12389404838E+03  0.14301018732E+03  0.00000000000E+00 0.  1.
         11    1    1    2    0    0  0.20639762510E+02  0.37682782358E+02  0.61328744059E+02  0.74881284248E+02  0.00000000000E+00 0. -1.
</event>
<event>
 7    1  0.2490079E-009  0.8215643E+02  0.7561462E-02  0.1323041E+00
         -1   -1    0    0    0  501 -0.00000000000E+00  0.00000000000E+00  0.14239716605E+03  0.14239716605E+03  0.00000000000E+00 0.  1.
          1   -1    0    0  501    0  0.00000000000E+00 -0.00000000000E+00 -0.13139157815E+03  0.13139157815E+03  0.00000000000E+00 0. -1.
         25    2    1    2    0    0  0.28886022817E+02 -0.63917886567E+01  0.83361152846E+02  0.15320522635E+03  0.12508997682E+03 0.  0.
          5    1    3    3  502    0 -0.11078156000E+02  0.23253253813E+02 -0.23586637932E+02  0.35174440183E+02  0.41800000000E+01 0. -1.
         -5    1    3    3    0  502  0.39964178817E+02 -0.29645042470E+02  0.10694779078E+03  0.11803078617E+03  0.41800000000E+01 0. -1.
        -11    1    1    2    0    0 -0.50524324945E+02 -0.19839443540E+02 -0.19384712487E+02  0.57637470532E+02  0.00000000000E+00 0.  1.
         11    1    1    2    0    0  0.21638302128E+02  0.26231232196E+02 -0.52970852461E+02  0.62946047310E+02  0.00000000000E+00 0. -1.
</event>
<event>
 7    1  0.2490079E-009  0.8377521E+02  0.7561462E-02  0.1318667E+00
          2   -1    0    0  501    0  0.00000000000E+00  0.00000000000E+00  0.13706624442E+03  0.13706624442E+03  0.00000000000E+00 0. -1.
         -2   -1    0    0    0  501 -0.00000000000E+00 -0.00000000000E+00 -0.11455617848E+03  0.11455617848E+03  0.00000000000E+00 0.  1.
         25    2    1    2    0    0 -0.45223986563E+02  0.38323832918E+02  0.62186667141E+01  0.13856446355E+03  0.12509002204E+03 0.  0.
          5    1    3    3  502    0  0.48887713193E+01  0.20179575924E+02  0.59457258192E+02  0.63116981243E+02  0.41800000000E+01 0. -1.
         -5    1    3    3    0  502 -0.50112757882E+02  0.18144256994E+02 -0.53238591478E+02  0.75447482310E+02  0.41800000000E+01 0. -1.
        -11    1    1    2    0    0  0.41108853899E+02  0.11681327666E+02  0.39117155598E+02  0.57935681122E+02  0.00000000000E+00 0. -1.
         11    1    1    2    0    0  0.41151326638E+01 -0.50005160585E+02 -0.22825756372E+02  0.55122278217E+02  0.00000000000E+00 0.  1.
</event>
<event>
 7    1  0.2490079E-009  0.1285415E+03  0.7561462E-02  0.1229636E+00
         -2   -1    0    0    0  501 -0.00000000000E+00  0.00000000000E+00  0.16770962910E+02  0.16770962910E+02  0.00000000000E+00 0.  1.
          2   -1    0    0  501    0  0.00000000000E+00 -0.00000000000E+00 -0.16718674631E+04  0.16718674631E+04  0.00000000000E+00 0. -1.
         25    2    1    2    0    0 -0.12204477866E+02  0.95630473695E+02 -0.12920629411E+04  0.13016791020E+04  0.12509078329E+03 0.  0.
          5    1    3    3  502    0  0.56130949223E+02  0.50289647794E+02 -0.66123135881E+03  0.66552544234E+03  0.41800000000E+01 0.  1.
         -5    1    3    3    0  502 -0.68335427089E+02  0.45340825902E+02 -0.63083158228E+03  0.63615365966E+03  0.41800000000E+01 0.  1.
        -11    1    1    2    0    0  0.10672731909E+02 -0.12899549587E+02 -0.23504091338E+01  0.16906507891E+02  0.00000000000E+00 0.  1.
         11    1    1    2    0    0  0.15317459570E+01 -0.82730924108E+02 -0.36068315000E+03  0.37005281616E+03  0.00000000000E+00 0. -1.
</event>
<event>
 7    1  0.2490079E-009  0.1246607E+03  0.7561462E-02  0.1235600E+00
          2   -1    0    0  501    0  0.00000000000E+00  0.00000000000E+00  0.63869109128E+03  0.63869109128E+03  0.00000000000E+00 0. -1.
         -2   -1    0    0    0  501 -0.00000000000E+00 -0.00000000000E+00 -0.27731306630E+02  0.27731306630E+02  0.00000000000E+00 0.  1.
         25    2    1    2    0    0  0.74745570365E+02  0.53750531726E+01  0.29423474644E+03  0.32838326837E+03  0.12508274639E+03 0.  0.
          5    1    3    3  502    0  0.93675119880E+02 -0.23399416483E+02  0.26797851430E+03  0.28487280899E+03  0.41800000000E+01 0.  1.
         -5    1    3    3    0  502 -0.18929549515E+02  0.28774469656E+02  0.26256232144E+02  0.43510459377E+02  0.41800000000E+01 0.  1.
        -11    1    1    2    0    0 -0.74615834638E+01  0.37476013951E+02  0.94698388784E+02  0.10211714688E+03  0.00000000000E+00 0.  1.
         11    1    1    2    0    0 -0.67283986901E+02 -0.42851067124E+02  0.22202664942E+03  0.23592198266E+03  0.00000000000E+00 0. -1.
</event>
<event>
 7    1  0.2490079E-009  0.1786269E+03  0.7561462E-02  0.1169139E+00
         -1   -1    0    0    0  501 -0.00000000000E+00  0.00000000000E+00  0.20855776317E+03  0.20855776317E+03  0.00000000000E+00 0.  1.
          1   -1    0    0  501    0  0.00000000000E+00 -0.00000000000E+00 -0.18607439908E+03  0.18607439908E+03  0.00000000000E+00 0. -1.
         25    2    1    2    0    0 -0.11865778763E+03  0.97146749712E+02 -0.46699270871E+02  0.20333110364E+03  0.12508219002E+03 0.  0.
          5    1    3    3  502    0 -0.13991255191E+03  0.81015272530E+02 -0.16118203407E+02  0.16253081384E+03  0.41800000000E+01 0. -1.
         -5    1    3    3    0  502  0.21254764278E+02  0.16131477181E+02 -0.30581067464E+02  0.40800289801E+02  0.41800000000E+01 0. -1.
        -11    1    1    2    0    0  0.58800291589E+02 -0.55051671492E+01  0.55406414635E+02  0.80979330320E+02  0.00000000000E+00 0.  1.
         11    1    1    2    0    0  0.59857496045E+02 -0.91641582562E+02  0.13776220324E+02  0.11032172829E+03  0.00000000000E+00 0. -1.
</event>
<event>
 7    1  0.2490079E-009  0.1035282E+03  0.7561462E-02  0.1273047E+00
         -1   -1    0    0    0  501 -0.00000000000E+00  0.00000000000E+00  0.20484493510E+02  0.20484493510E+02  0.00000000000E+00 0.  1.
          1   -1    0    0  501    0  0.00000000000E+00 -0.00000000000E+00 -0.65384135142E+03  0.65384135142E+03  0.00000000000E+00 0. -1.
         25    2    1    2    0    0 -0.12175570863E+02 -0.27841326078E+02 -0.42358799986E+03  0.44271743436E+03  0.12509416094E+03 0.  0.
          5    1    3    3  502    0  0.14386681694E+02 -0.72393433824E+02 -0.29201730372E+03  0.30122975275E+03  0.41800000000E+01 0.  1.
         -5    1    3    3    0  502 -0.26562252557E+02  0.44552107746E+02 -0.13157069614E+03  0.14148768161E+03  0.41800000000E+01 0.  1.
        -11    1    1    2    0    0  0.35087200691E+02  0.41556739671E+02 -0.19194847949E+03  0.19950512034E+03  0.00000000000E+00 0. -1.
         11    1    1    2    0    0 -0.22911629829E+02 -0.13715413593E+02 -0.17820378570E+02  0.32103290233E+02  0.00000000000E+00 0.  1.
</event>
<event>
 7    1  0.2490079E-009  0.1185023E+03  0.7561462E-02  0.1245588E+00
         -1   -1    0    0    0  501 -0.00000000000E+00  0.00000000000E+00  0.90774940880E+02  0.90774940880E+02  0.00000000000E+00 0.  1.
          1   -1    0    0  501    0  0.00000000000E+00 -0.00000000000E+00 -0.17113390855E+03  0.17113390855E+03  0.00000000000E+00 0. -1.
         25    2    1    2    0    0 -0.35858314038E+02  0.46628104973E+02 -0.63901592582E+02  0.15227235190E+03  0.12507380525E+03 0.  0.
          5    1    3    3  502    0  0.23845205711E+02  0.63975500232E+02 -0.85677608544E+01  0.68937198894E+02  0.41800000000E+01 0.  1.
         -5    1    3    3    0  502 -0.59703519749E+02 -0.17347395259E+02 -0.55333831728E+02  0.83335153005E+02  0.41800000000E+01 0.  1.
        -11    1    1    2    0    0  0.61151642487E+02 -0.10284937949E+02  0.10582325925E+01  0.62019538726E+02  0.00000000000E+00 0.  1.
         11    1    1    2    0    0 -0.25293328450E+02 -0.36343167024E+02 -0.17515607678E+02  0.47616958804E+02  0.00000000000E+00 0. -1.
</event>
<event>
 7    1  0.2675189E-009  0.1118133E+03  0.7561462E-02  0.1257248E+00
          2   -1    0    0  501    0  0.00000000000E+00  0.00000000000E+00  0.16633966316E+03  0.16633966316E+03  0.00000000000E+00 0. -1.
         -2   -1    0    0    0  501 -0.00000000000E+00 -0.00000000000E+00 -0.14655764957E+03  0.14655764957E+03  0.00000000000E+00 0.  1.
         25    2    1    2    0    0  0.11207610840E+02  0.62352740557E+02 -0.81844714634E+02  0.16235713563E+03  0.12509119625E+03 0.  0.
          5    1    3    3  502    0 -0.39166960016E+02 -0.17353717771E+02 -0.11235491333E+02  0.44484951870E+02  0.41800000000E+01 0.  1.
         -5    1    3    3    0  502  0.50374570856E+02  0.79706458328E+02 -0.70609223301E+02  0.11787218376E+03  0.41800000000E+01 0.  1.
        -11    1    1    2    0    0 -0.30636176422E+02 -0.13221332119E+02 -0.28249424926E+01  0.33486702269E+02  0.00000000000E+00 0.  1.
         11    1    1    2    0    0  0.19428565582E+02 -0.49131408439E+02  0.10445167072E+03  0.11705347484E+03  0.00000000000E+00 0. -1.
</event>
<event>
 7    1  0.2490079E-009  0.1076735E+03  0.7561462E-02  0.1264940E+00
         -4   -1    0    0    0  501 -0.00000000000E+00  0.00000000000E+00  0.55960246703E+03  0.55960246703E+03  0.00000000000E+00 0. -1.
          4   -1    0    0  501    0  0.00000000000E+00 -0.00000000000E+00 -0.36181813895E+02  0.36181813895E+02  0.00000000000E+00 0.  1.
         25    2    1    2    0    0 -0.75458694954E+02  0.40126067803E+02  0.36430740564E+03  0.39455346004E+03  0.12509368913E+03 0.  0.
          5    1    3    3  502    0 -0.53496711484E+02 -0.25782802607E+02  0.68892917287E+02  0.91051400331E+02  0.41800000000E+01 0. -1.
         -5    1    3    3    0  502 -0.21961983470E+02  0.65908870410E+02  0.29541448835E+03  0.30350205971E+03  0.41800000000E+01 0. -1.
        -11    1    1    2    0    0  0.53507127370E+02 -0.22418467084E+02  0.23296432629E+02  0.62516590750E+02  0.00000000000E+00 0.  1.
         11    1    1    2    0    0  0.21951567585E+02 -0.17707600719E+02  0.13581681487E+03  0.13871423014E+03  0.00000000000E+00 0. -1.
</event>
<event>
 7    1  0.2490079E-009  0.1105142E+03  0.7561462E-02  0.1259621E+00
         -1   -1    0    0    0  501 -0.00000000000E+00  0.00000000000E+00  0.92861890739E+02  0.92861890739E+02  0.00000000000E+00 0.  1.
          1   -1    0    0  501    0  0.00000000000E+00 -0.00000000000E+00 -0.23945760778E+03  0.23945760778E+03  0.00000000000E+00 0. -1.
         25    2    1    2    0    0 -0.69734311192E+02  0.51398586697E+02 -0.19692361020E+02  0.15342786823E+03  0.12509049842E+03 0.  0.
          5    1    3    3  502    0 -0.84785935775E+01  0.49730472424E+02  0.42442457404E+02  0.66059375013E+02  0.41800000000E+01 0. -1.
         -5    1    3    3    0  502 -0.61255717615E+02  0.16681142733E+01 -0.62134818425E+02  0.87368493213E+02  0.41800000000E+01 0. -1.
        -11    1    1    2    0    0  0.73850266310E+02 -0.18902604052E+02 -0.40144715073E+02  0.86155489798E+02  0.00000000000E+00 0.  1.
         11    1    1    2    0    0 -0.41159551182E+01 -0.32495982645E+02 -0.86758640949E+02  0.92736140495E+02  0.00000000000E+00 0. -1.
</event>
<event>
 7    1  0.2490079E-009  0.8591618E+02  0.7561462E-02  0.1313054E+00
         -2   -1    0    0    0  501 -0.00000000000E+00  0.00000000000E+00  0.16878183993E+02  0.16878183993E+02  0.00000000000E+00 0.  1.
          2   -1    0    0  501    0  0.00000000000E+00 -0.00000000000E+00 -0.83475079859E+03  0.83475079859E+03  0.00000000000E+00 0. -1.
         25    2    1    2    0    0 -0.11051065395E+02  0.16490068787E+02 -0.62922390680E+03  0.64184601019E+03  0.12509807148E+03 0.  0.
          5    1    3    3  502    0 -0.38975313600E+02 -0.10980705408E+02 -0.56526314594E+03  0.56672704852E+03  0.41800000000E+01 0. -1.
         -5    1    3    3    0  502  0.27924248204E+02  0.27470774195E+02 -0.63960760857E+02  0.75118961668E+02  0.41800000000E+01 0. -1.
        -11    1    1    2    0    0 -0.35889545382E+02  0.10742146917E+02 -0.74293841074E+02  0.83204735500E+02  0.00000000000E+00 0.  1.
         11    1    1    2    0    0  0.46940610777E+02 -0.27232215704E+02 -0.11435486672E+03  0.12657823689E+03  0.00000000000E+00 0. -1.
</event>
<event>
 7    1  0.2490079E-009  0.9557369E+02  0.7561462E-02  0.1289889E+00
         -2   -1    0    0    0  501 -0.00000000000E+00  0.00000000000E+00  0.10335181504E+03  0.10335181504E+03  0.00000000000E+00 0.  1.
          2   -1    0    0  501    0  0.00000000000E+00 -0.00000000000E+00 -0.19988776872E+03  0.19988776872E+03  0.00000000000E+00 0. -1.
         25    2    1    2    0    0 -0.53905276816E+02 -0.53465008393E+02  0.53941134244E+01  0.14641982057E+03  0.12508149905E+03 0.  0.
          5    1    3    3  502    0 -0.30027512672E+02 -0.12338209268E+02 -0.58276733881E+02  0.66839606799E+02  0.41800000000E+01 0. -1.
         -5    1    3    3    0  502 -0.23877764144E+02 -0.41126799125E+02  0.63670847305E+02  0.79580213768E+02  0.41800000000E+01 0. -1.
        -11    1    1    2    0    0  0.18004662786E+02  0.69181875225E+02 -0.91782425401E+02  0.11633706784E+03  0.00000000000E+00 0.  1.
         11    1    1    2    0    0  0.35900614031E+02 -0.15716866832E+02 -0.10147641698E+02  0.40482695350E+02  0.00000000000E+00 0. -1.
</event>
<event>
 7    1  0.2490079E-009  0.1823954E+03  0.7561462E-02  0.1165505E+00
          2   -1    0    0  501    0  0.00000000000E+00  0.00000000000E+00  0.44107906576E+03  0.44107906576E+03  0.00000000000E+00 0. -1.
         -2   -1    0    0    0  501 -0.00000000000E+00 -0.00000000000E+00 -0.10454908261E+03  0.10454908261E+03  0.00000000000E+00 0.  1.
         25    2    1    2    0    0  0.12204879416E+03 -0.10159204231E+03  0.29479234711E+03  0.35744519311E+03  0.12509071487E+03 0.  0.
          5    1    3    3  502    0  0.51926974064E+02 -0.11889182833E+03  0.18960584021E+03  0.22978147124E+03  0.41800000000E+01 0.  1.
         -5    1    3    3    0  502  0.70121820094E+02  0.17299786026E+02  0.10518650690E+03  0.12766372188E+03  0.41800000000E+01 0.  1.
        -11    1    1    2    0    0 -0.92379901442E+02  0.55327842297E+02  0.67912659047E+02  0.12730807352E+03  0.00000000000E+00 0. -1.
         11    1    1    2    0    0 -0.29668892716E+02  0.46264200011E+02 -0.26175023002E+02  0.60874881740E+02  0.00000000000E+00 0.  1.
</event>
<event>
 7    1  0.2490079E-009  0.8780283E+02  0.7561462E-02  0.1308261E+00
          3   -1    0    0  501    0  0.00000000000E+00  0.00000000000E+00  0.80745076534E+02  0.80745076534E+02  0.00000000000E+00 0. -1.
         -3   -1    0    0    0  501 -0.00000000000E+00 -0.00000000000E+00 -0.23304669760E+03  0.23304669760E+03  0.00000000000E+00 0.  1.
         25    2    1    2    0    0  0.20020056907E+02 -0.60164275070E+02 -0.14653248788E+03  0.20282881034E+03  0.12508882295E+03 0.  0.
          5    1    3    3  502    0 -0.75279502022E+00 -0.76956249031E+02 -0.15614806227E+03  0.17413362891E+03  0.41800000000E+01 0. -1.
         -5    1    3    3    0  502  0.20772851928E+02  0.16791973960E+02  0.96155743930E+01  0.28695181435E+02  0.41800000000E+01 0. -1.
        -11    1    1    2    0    0 -0.29225102010E+02  0.48668485246E+02 -0.42810196350E+02  0.71101624139E+02  0.00000000000E+00 0.  1.
         11    1    1    2    0    0  0.92050451031E+01  0.11495789824E+02  0.37041063161E+02  0.39861339655E+02  0.00000000000E+00 0. -1.
</event>
<event>
 7    1  0.2490079E-009  0.1925404E+03  0.7561462E-02  0.1156190E+00
         -1   -1    0    0    0  501 -0.00000000000E+00  0.00000000000E+00  0.16790791045E+03  0.16790791045E+03  0.00000000000E+00 0.  1.
          1   -1    0    0  501    0  0.00000000000E+00 -0.00000000000E+00 -0.25913665022E+03  0.25913665022E+03  0.00000000000E+00 0. -1.
         25    2    1    2    0    0 -0.17188142484E+03  0.30723222122E+02 -0.53596975814E+01  0.21485742719E+03  0.12509135492E+03 0.  0.
          5    1    3    3  502    0 -0.85151925442E+02 -0.36229856767E+02 -0.38496159678E+02  0.10031390551E+03  0.41800000000E+01 0. -1.
         -5    1    3    3    0  502 -0.86729499400E+02  0.66953078889E+02  0.33136462097E+02  0.11454352168E+03  0.41800000000E+01 0. -1.
        -11    1    1    2    0    0  0.53342389376E+02  0.15531985546E+02 -0.61049489035E+02  0.82545097921E+02  0.00000000000E+00 0. -1.
         11    1    1    2    0    0  0.11853903547E+03 -0.46255207668E+02 -0.24819553158E+02  0.12964203556E+03  0.00000000000E+00 0.  1.
</event>
<event>
 7    1  0.2490079E-009  0.1271703E+03  0.7561462E-02  0.1231716E+00
          3   -1    0    0  501    0  0.00000000000E+00  0.00000000000E+00  0.37793839342E+02  0.37793839342E+02  0.00000000000E+00 0. -1.
         -3   -1    0    0    0  501 -0.00000000000E+00 -0.00000000000E+00 -0.65206996718E+03  0.65206996718E+03  0.00000000000E+00 0.  1.
         25    2    1    2    0    0 -0.85282166631E+02  0.32058419641E+02 -0.47697337249E+03  0.50144988560E+03  0.12509036527E+03 0.  0.
          5    1    3    3  502    0  0.27192446200E+02 -0.16118494513E+02 -0.84073006187E+02  0.89916504408E+02  0.41800000000E+01 0. -1.
         -5    1    3    3    0  502 -0.11247461283E+03  0.48176914154E+02 -0.39290036631E+03  0.41153338119E+03  0.41800000000E+01 0. -1.
        -11    1    1    2    0    0  0.15085332192E+02  0.10088075792E+02 -0.94106810728E+02  0.95840640366E+02  0.00000000000E+00 0.  1.
         11    1    1    2    0    0  0.70196834439E+02 -0.42146495433E+02 -0.43195944621E+02  0.92573280563E+02  0.00000000000E+00 0. -1.
</event>
<event>
 7    1  0.2490079E-009  0.2743322E+03  0.7561462E-02  0.1098825E+00
          2   -1    0    0  501    0  0.00000000000E+00  0.00000000000E+00  0.58332493148E+03  0.58332493148E+03  0.00000000000E+00 0. -1.
         -2   -1    0    0    0  501 -0.00000000000E+00 -0.00000000000E+00 -0.18447979878E+03  0.18447979878E+03  0.00000000000E+00 0.  1.
         25    2    1    2    0    0 -0.26289538892E+03  0.61862754761E+02  0.26372005397E+02  0.29880518648E+03  0.12509224937E+03 0.  0.
          5    1    3    3  502    0 -0.10041256321E+02 -0.57401680639E+01  0.34791460334E+02  0.36901144563E+02  0.41800000000E+01 0.  1.
         -5    1    3    3    0  502 -0.25285413260E+03  0.67602922825E+02 -0.84194549375E+01  0.26190404191E+03  0.41800000000E+01 0.  1.
        -11    1    1    2    0    0  0.10039307004E+03  0.89656005720E+00  0.79135621285E+02  0.12783590610E+03  0.00000000000E+00 0.  1.
         11    1    1    2    0    0  0.16250231888E+03 -0.62759314818E+02  0.29333750601E+03  0.34116363768E+03  0.00000000000E+00 0. -1.
</event>
<event>
 7    1  0.2490079E-009  0.1243390E+03  0.7561462E-02  0.1236106E+00
          1   -1    0    0  501    0  0.00000000000E+00  0.00000000000E+00  0.22417275005E+02  0.22417275005E+02  0.00000000000E+00 0. -1.
         -1   -1    0    0    0  501 -0.00000000000E+00 -0.00000000000E+00 -0.14492504957E+04  0.14492504957E+04  0.00000000000E+00 0.  1.
         25    2    1    2    0    0 -0.40820293050E+02 -0.74888984982E+02 -0.12196713993E+04  0.12290320477E+04  0.12508715190E+03 0.  0.
          5    1    3    3  502    0  0.38398886347E+02 -0.12947297933E+02 -0.58630822137E+03  0.58772179630E+03  0.41800000000E+01 0. -1.
         -5    1    3    3    0  502 -0.79219179397E+02 -0.61941687049E+02 -0.63336317796E+03  0.64131025142E+03  0.41800000000E+01 0. -1.
        -11    1    1    2    0    0  0.58544343451E+02  0.62692241542E+02 -0.93216906460E+02  0.12667734190E+03  0.00000000000E+00 0. -1.
         11    1    1    2    0    0 -0.17724050401E+02  0.12196743440E+02 -0.11394491486E+03  0.11595838105E+03  0.00000000000E+00 0.  1.
</event>
<event>
 7    1  0.2490079E-009  0.9450037E+02  0.7561462E-02  0.1292305E+00
          1   -1    0    0  501    0  0.00000000000E+00  0.00000000000E+00  0.14342740493E+03  0.14342740493E+03  0.00000000000E+00 0. -1.
         -1   -1    0    0    0  501 -0.00000000000E+00 -0.00000000000E+00 -0.92381118017E+02  0.92381118017E+02  0.00000000000E+00 0.  1.
         25    2    1    2    0    0 -0.22000659429E+02  0.84493089630E+01 -0.89562396173E+01  0.12760397093E+03  0.12508852598E+03 0.  0.
          5    1    3    3  502    0 -0.53874767368E+02  0.35984931066E+02 -0.38965281409E+02  0.75717708484E+02  0.41800000000E+01 0. -1.
         -5    1    3    3    0  502  0.31874107939E+02 -0.27535622103E+02  0.30009041792E+02  0.51886262447E+02  0.41800000000E+01 0. -1.
        -11    1    1    2    0    0 -0.29654801955E+02 -0.34071671960E+01  0.45319373180E+02  0.54266579520E+02  0.00000000000E+00 0. -1.
         11    1    1    2    0    0  0.51655461384E+02 -0.50421417670E+01  0.14683153346E+02  0.53937972492E+02  0.00000000000E+00 0.  1.
</event>
<event>
 7    1  0.2490079E-009  0.2365942E+03  0.7561462E-02  0.1122083E+00
          2   -1    0    0  501    0  0.00000000000E+00  0.00000000000E+00  0.30824524733E+03  0.30824524733E+03  0.00000000000E+00 0.  1.
         -2   -1    0    0    0  501 -0.00000000000E+00 -0.00000000000E+00 -0.41965551654E+03  0.41965551654E+03  0.00000000000E+00 0. -1.
         25    2    1    2    0    0  0.16897898219E+03  0.13734070757E+03 -0.32434459347E+03  0.41019913229E+03  0.12509015325E+03 0.  0.
          5    1    3    3  502    0  0.32177379572E+02  0.92902758122E+02 -0.18681429133E+03  0.21114771622E+03  0.41800000000E+01 0. -1.
         -5    1    3    3    0  502  0.13680160262E+03  0.44437949450E+02 -0.13753030215E+03  0.19905141607E+03  0.41800000000E+01 0. -1.
        -11    1    1    2    0    0 -0.74145264287E+01 -0.43326157099E+02  0.17634579964E+02  0.47361476979E+02  0.00000000000E+00 0. -1.
         11    1    1    2    0    0 -0.16156445576E+03 -0.94014550473E+02  0.19529974430E+03  0.27034015460E+03  0.00000000000E+00 0.  1.
</event>
<event>
 7    1  0.2490079E-009  0.2711023E+03  0.7561462E-02  0.1100650E+00
          2   -1    0    0  501    0  0.00000000000E+00  0.00000000000E+00  0.48773566826E+03  0.48773566826E+03  0.00000000000E+00 0. -1.
         -2   -1    0    0    0  501 -0.00000000000E+00 -0.00000000000E+00 -0.16541228203E+03  0.16541228203E+03  0.00000000000E+00 0.  1.
         25    2    1    2    0    0  0.21390201882E+03 -0.13964755313E+03  0.98019523271E+02  0.30084826919E+03  0.12508533640E+03 0.  0.
          5    1    3    3  502    0  0.19554161844E+03 -0.69827499357E+02  0.95255330380E+02  0.22848075318E+03  0.41800000000E+01 0. -1.
         -5    1    3    3    0  502  0.18360400377E+02 -0.69820053772E+02  0.27641928913E+01  0.72367516007E+02  0.41800000000E+01 0. -1.
        -11    1    1    2    0    0 -0.92460465216E+02  0.95685044316E+02  0.15976910657E+03  0.20792001527E+03  0.00000000000E+00 0. -1.
         11    1    1    2    0    0 -0.12144155360E+03  0.43962508813E+02  0.64534756387E+02  0.14437966583E+03  0.00000000000E+00 0.  1.
</event>
<event>
 7    1  0.2490079E-009  0.9898429E+02  0.7561462E-02  0.1282446E+00
         -2   -1    0    0    0  501 -0.00000000000E+00  0.00000000000E+00  0.42376449196E+03  0.42376449196E+03  0.00000000000E+00 0.  1.
          2   -1    0    0  501    0  0.00000000000E+00 -0.00000000000E+00 -0.44208205427E+02  0.44208205427E+02  0.00000000000E+00 0. -1.
         25    2    1    2    0    0  0.12300982602E+02  0.79541905228E+02  0.23436502779E+03  0.27758448962E+03  0.12509178136E+03 0.  0.
          5    1    3    3  502    0  0.42679738856E+02  0.28251504842E+02  0.20107904724E+02  0.55149867335E+02  0.41800000000E+01 0. -1.
         -5    1    3    3    0  502 -0.30378756255E+02  0.51290400385E+02  0.21425712307E+03  0.22243462228E+03  0.41800000000E+01 0. -1.
        -11    1    1    2    0    0  0.11073120967E+02 -0.19483462239E+02 -0.83144133626E+01  0.23902903136E+02  0.00000000000E+00 0. -1.
         11    1    1    2    0    0 -0.23374103569E+02 -0.60058442989E+02  0.15350567210E+03  0.16648530463E+03  0.00000000000E+00 0.  1.
</event>
<event>
 7    1  0.2490079E-009  0.6712145E+02  0.7561462E-02  0.1370165E+00
         -1   -1    0    0    0  501 -0.00000000000E+00  0.00000000000E+00  0.19055463433E+03  0.19055463433E+03  0.00000000000E+00 0.  1.
          1   -1    0    0  501    0  0.00000000000E+00 -0.00000000000E+00 -0.74771011521E+02  0.74771011521E+02  0.00000000000E+00 0. -1.
         25    2    1    2    0    0  0.20530327673E+02 -0.44734591117E+02  0.76446949871E+02  0.15464214852E+03  0.12508948780E+03 0.  0.
          5    1    3    3  502    0  0.23728942318E+02 -0.73998768414E+01 -0.31475168271E+02  0.40323436095E+02  0.41800000000E+01 0.  1.
         -5    1    3    3    0  502 -0.31986146445E+01 -0.37334714275E+02  0.10792211814E+03  0.11431871242E+03  0.41800000000E+01 0.  1.
        -11    1    1    2    0    0 -0.27509431023E+02  0.15113568493E+01  0.57127419995E+02  0.63423931682E+02  0.00000000000E+00 0.  1.
         11    1    1    2    0    0  0.69791033504E+01  0.43223234267E+02 -0.17790747061E+02  0.47259565647E+02  0.00000000000E+00 0. -1.
</event>
<event>
 7    1  0.2490079E-009  0.1222476E+03  0.7561462E-02  0.1239435E+00
         -3   -1    0    0    0  501 -0.00000000000E+00  0.00000000000E+00  0.57178216900E+03  0.57178216900E+03  0.00000000000E+00 0.  1.
          3   -1    0    0  501    0  0.00000000000E+00 -0.00000000000E+00 -0.27108474362E+02  0.27108474362E+02  0.00000000000E+00 0. -1.
         25    2    1    2    0    0 -0.19479873439E+02 -0.54859064576E+02  0.34875389394E+03  0.37505406497E+03  0.12508913093E+03 0.  0.
          5    1    3    3  502    0  0.35720561327E+02  0.22180470706E+02  0.12752253005E+03  0.13434061133E+03  0.41800000000E+01 0. -1.
         -5    1    3    3    0  502 -0.55200434766E+02 -0.77039535282E+02  0.22123136390E+03  0.24071345365E+03  0.41800000000E+01 0. -1.
        -11    1    1    2    0    0 -0.35599813838E+02  0.11943849127E+02  0.82554054747E+02  0.90692746306E+02  0.00000000000E+00 0.  1.
         11    1    1    2    0    0  0.55079687277E+02  0.42915215449E+02  0.11336574594E+03  0.13314383208E+03  0.00000000000E+00 0. -1.
</event>
<event>
 7    1  0.2490079E-009  0.1565576E+03  0.7561462E-02  0.1192639E+00
         -3   -1    0    0    0  501 -0.00000000000E+00  0.00000000000E+00  0.77158374760E+02  0.77158374760E+02  0.00000000000E+00 0.  1.
          3   -1    0    0  501    0  0.00000000000E+00 -0.00000000000E+00 -0.38230611983E+03  0.38230611983E+03  0.00000000000E+00 0. -1.
         25    2    1    2    0    0  0.32744905274E+01  0.13090801415E+03 -0.13455933683E+03  0.22561307476E+03  0.12508962355E+03 0.  0.
          5    1    3    3  502    0  0.59751292281E+02  0.97924351825E+02 -0.75520244897E+02  0.13740515055E+03  0.41800000000E+01 0.  1.
         -5    1    3    3    0  502 -0.56476801754E+02  0.32983662320E+02 -0.59039091932E+02  0.88207924205E+02  0.41800000000E+01 0.  1.
        -11    1    1    2    0    0 -0.12451217031E+02 -0.59184648274E+02 -0.14507034114E+03  0.15717270525E+03  0.00000000000E+00 0. -1.
         11    1    1    2    0    0  0.91767265036E+01 -0.71723365872E+02 -0.25518067101E+02  0.76678714582E+02  0.00000000000E+00 0.  1.
</event>
<event>
 7    1  0.2490079E-009  0.5790901E+02  0.7561462E-02  0.1406822E+00
         -2   -1    0    0    0  501 -0.00000000000E+00  0.00000000000E+00  0.74169681567E+02  0.74169681567E+02  0.00000000000E+00 0.  1.
          2   -1    0    0  501    0  0.00000000000E+00 -0.00000000000E+00 -0.30443446381E+03  0.30443446381E+03  0.00000000000E+00 0. -1.
         25    2    1    2    0    0 -0.37170148170E+02  0.37779746649E+02 -0.23406070823E+03  0.27063096660E+03  0.12509106994E+03 0.  0.
          5    1    3    3  502    0 -0.37398005073E+02  0.41120730794E+02 -0.24879017866E+03  0.25495793904E+03  0.41800000000E+01 0. -1.
         -5    1    3    3    0  502  0.22785690349E+00 -0.33409841451E+01  0.14729470430E+02  0.15673027562E+02  0.41800000000E+01 0. -1.
        -11    1    1    2    0    0  0.12156258006E+02 -0.42255545540E+01  0.46459444445E+02  0.48209022995E+02  0.00000000000E+00 0.  1.
         11    1    1    2    0    0  0.25013890164E+02 -0.33554192095E+02 -0.42663518458E+02  0.59764155775E+02  0.00000000000E+00 0. -1.
</event>
<event>
 7    1  0.2490079E-009  0.1067421E+03  0.7561462E-02  0.1266725E+00
          2   -1    0    0  501    0  0.00000000000E+00  0.00000000000E+00  0.10654207288E+04  0.10654207288E+04  0.00000000000E+00 0. -1.
         -2   -1    0    0    0  501 -0.00000000000E+00 -0.00000000000E+00 -0.11379501234E+02  0.11379501234E+02  0.00000000000E+00 0.  1.
         25    2    1    2    0    0  0.54144811139E+02 -0.12157163517E+02  0.68460413461E+03  0.69814649546E+03  0.12508497428E+03 0.  0.
          5    1    3    3  502    0 -0.27428826724E+02 -0.39674030122E+02  0.30977239873E+03  0.31353274250E+03  0.41800000000E+01 0.  1.
         -5    1    3    3    0  502  0.81573637863E+02  0.27516866604E+02  0.37483173588E+03  0.38461375296E+03  0.41800000000E+01 0.  1.
        -11    1    1    2    0    0 -0.41440371714E+02  0.34005216471E+02  0.30018786366E+03  0.30493673548E+03  0.00000000000E+00 0. -1.
         11    1    1    2    0    0 -0.12704439425E+02 -0.21848052954E+02  0.69249229332E+02  0.73716999139E+02  0.00000000000E+00 0.  1.
</event>
<event>
 7    1  0.2490079E-009  0.8258286E+02  0.7561462E-02  0.1321877E+00
         -2   -1    0    0    0  501 -0.00000000000E+00  0.00000000000E+00  0.11082075503E+03  0.11082075503E+03  0.00000000000E+00 0.  1.
          2   -1    0    0  501    0  0.00000000000E+00 -0.00000000000E+00 -0.12632403427E+03  0.12632403427E+03  0.00000000000E+00 0. -1.
         25    2    1    2    0    0  0.73540857076E+01  0.14638257108E+02  0.34835151021E+02  0.13088517967E+03  0.12509628837E+03 0.  0.
          5    1    3    3  502    0  0.59053315762E+02  0.50140894420E+01  0.48153605098E+02  0.76476645320E+02  0.41800000000E+01 0.  1.
         -5    1    3    3    0  502 -0.51699230054E+02  0.96241676661E+01 -0.13318454077E+02  0.54408534353E+02  0.41800000000E+01 0.  1.
        -11    1    1    2    0    0 -0.28922410895E+02 -0.11833052600E+02  0.16945052029E+02  0.35548020677E+02  0.00000000000E+00 0.  1.
         11    1    1    2    0    0  0.21568325187E+02 -0.28052045085E+01 -0.67283482282E+02  0.70711588949E+02  0.00000000000E+00 0. -1.
</event>
<event>
 7    1  0.2490079E-009  0.8178684E+02  0.7561462E-02  0.1324056E+00
          1   -1    0    0  501    0  0.00000000000E+00  0.00000000000E+00  0.42608568267E+03  0.42608568267E+03  0.00000000000E+00 0. -1.
         -1   -1    0    0    0  501 -0.00000000000E+00 -0.00000000000E+00 -0.38070577286E+02  0.38070577286E+02  0.00000000000E+00 0.  1.
         25    2    1    2    0    0  0.52473503378E+02  0.38191198337E+02  0.22870832556E+03  0.26863980418E+03  0.12509120682E+03 0.  0.
          5    1    3    3  502    0  0.69470811440E+02  0.18590043980E+02  0.23127652716E+03  0.24223560389E+03  0.41800000000E+01 0. -1.
         -5    1    3    3    0  502 -0.16997308063E+02  0.19601154357E+02 -0.25682016035E+01  0.26404200290E+02  0.41800000000E+01 0. -1.
        -11    1    1    2    0    0 -0.27588854817E+02 -0.15859678281E+02 -0.92236566925E+00  0.31835908401E+02  0.00000000000E+00 0.  1.
         11    1    1    2    0    0 -0.24884648561E+02 -0.22331520056E+02  0.16022914549E+03  0.16368054737E+03  0.00000000000E+00 0. -1.
</event>
<event>
 7    1  0.2490079E-009  0.9764952E+02  0.7561462E-02  0.1285318E+00
          1   -1    0    0  501    0  0.00000000000E+00  0.00000000000E+00  0.36125780822E+03  0.36125780822E+03  0.00000000000E+00 0. -1.
         -1   -1    0    0    0  501 -0.00000000000E+00 -0.00000000000E+00 -0.48205848993E+02  0.48205848993E+02  0.00000000000E+00 0.  1.
         25    2    1    2    0    0  0.62580624267E+02 -0.38570833548E+02  0.20007871481E+03  0.24714990453E+03  0.12509012533E+03 0.  0.
          5    1    3    3  502    0  0.73485214058E+02 -0.33206419544E+02  0.21368570136E+03  0.22843334771E+03  0.41800000000E+01 0. -1.
         -5    1    3    3    0  502 -0.10904589791E+02 -0.53644140043E+01 -0.13606986545E+02  0.18716556814E+02  0.41800000000E+01 0. -1.
        -11    1    1    2    0    0 -0.55811137425E+02 -0.64411328808E+01  0.10046730323E+03  0.11510886270E+03  0.00000000000E+00 0. -1.
         11    1    1    2    0    0 -0.67694868418E+01  0.45011966429E+02  0.12505941191E+02  0.47204889990E+02  0.00000000000E+00 0.  1.
</event>
<event>
 7    1  0.2490079E-009  0.1068980E+03  0.7561462E-02  0.1266424E+00
         -1   -1    0    0    0  501 -0.00000000000E+00  0.00000000000E+00  0.12590012948E+03  0.12590012948E+03  0.00000000000E+00 0.  1.
          1   -1    0    0  501    0  0.00000000000E+00 -0.00000000000E+00 -0.14087255504E+03  0.14087255504E+03  0.00000000000E+00 0. -1.
         25    2    1    2    0    0  0.71305791671E+02  0.28118782408E+02  0.35831703408E+01  0.14674794795E+03  0.12508772628E+03 0.  0.
          5    1    3    3  502    0 -0.24555065007E+02  0.25219851007E+02 -0.28552594837E+02  0.45516097968E+02  0.41800000000E+01 0. -1.
         -5    1    3    3    0  502  0.95860856678E+02  0.28989314011E+01  0.32135765177E+02  0.10123184998E+03  0.41800000000E+01 0. -1.
        -11    1    1    2    0    0 -0.25831284739E+02 -0.26268753257E+02  0.34256846330E+02  0.50307396965E+02  0.00000000000E+00 0.  1.
         11    1    1    2    0    0 -0.45474506932E+02 -0.18500291511E+01 -0.52812442224E+02  0.69717339609E+02  0.00000000000E+00 0. -1.
</event>
<event>
 7    1  0.2490079E-009  0.1047611E+03  0.7561462E-02  0.1270591E+00
          3   -1    0    0  501    0  0.00000000000E+00  0.00000000000E+00  0.42833413757E+02  0.42833413757E+02  0.00000000000E+00 0. -1.
         -3   -1    0    0    0  501 -0.00000000000E+00 -0.00000000000E+00 -0.83440954377E+03  0.83440954377E+03  0.00000000000E+00 0.  1.
         25    2    1    2    0    0  0.46957328333E+02 -0.22306144668E+02 -0.75646970378E+03  0.76850246514E+03  0.12508825446E+03 0.  0.
          5    1    3    3  502    0 -0.37225767970E+02  0.11791391547E+02 -0.33770827854E+03  0.33998404155E+03  0.41800000000E+01 0.  1.
         -5    1    3    3    0  502  0.84183096304E+02 -0.34097536215E+02 -0.41876142525E+03  0.42851842359E+03  0.41800000000E+01 0.  1.
        -11    1    1    2    0    0 -0.56834551542E+02  0.21423317202E+01 -0.54722212624E+02  0.78925765050E+02  0.00000000000E+00 0.  1.
         11    1    1    2    0    0  0.98772232092E+01  0.20163812948E+02  0.19615786390E+02  0.29814727345E+02  0.00000000000E+00 0. -1.
</event>
<event>
 7    1  0.2490079E-009  0.9735044E+02  0.7561462E-02  0.1285968E+00
         -2   -1    0    0    0  501 -0.00000000000E+00  0.00000000000E+00  0.63282408737E+02  0.63282408737E+02  0.00000000000E+00 0.  1.
          2   -1    0    0  501    0  0.00000000000E+00 -0.00000000000E+00 -0.37068036466E+03  0.37068036466E+03  0.00000000000E+00 0. -1.
         25    2    1    2    0    0  0.86218072965E+02 -0.42590008957E+02 -0.11006460767E+03  0.19237659172E+03  0.12508824969E+03 0.  0.
          5    1    3    3  502    0  0.13334497226E+02 -0.10242524324E+02  0.27975283077E+02  0.32906032639E+02  0.41800000000E+01 0.  1.
         -5    1    3    3    0  502  0.72883575739E+02 -0.32347484634E+02 -0.13803989075E+03  0.15947055908E+03  0.41800000000E+01 0.  1.
        -11    1    1    2    0    0 -0.31254862627E+02  0.69478027789E+01  0.16867154887E+01  0.32062180375E+02  0.00000000000E+00 0.  1.
         11    1    1    2    0    0 -0.54963210339E+02  0.35642206178E+02 -0.19902006374E+03  0.20952400131E+03  0.00000000000E+00 0. -1.
</event>
<event>
 7    1  0.2490079E-009  0.2355201E+03  0.7561462E-02  0.1122814E+00
         -1   -1    0    0    0  501 -0.00000000000E+00  0.00000000000E+00  0.49194468432E+03  0.49194468432E+03  0.00000000000E+00 0.  1.
          1   -1    0    0  501    0  0.00000000000E+00 -0.00000000000E+00 -0.13325920939E+03  0.13325920939E+03  0.00000000000E+00 0. -1.
         25    2    1    2    0    0  0.24221388120E+02 -0.22421444054E+03  0.11296031513E+03  0.28154202389E+03  0.12508831853E+03 0.  0.
          5    1    3    3  502    0  0.46984186993E+02 -0.13168203950E+03  0.85701753021E+01  0.14013776671E+03  0.41800000000E+01 0. -1.
         -5    1    3    3    0  502 -0.22762798873E+02 -0.92532401039E+02  0.10439013983E+03  0.14140425718E+03  0.41800000000E+01 0. -1.
        -11    1    1    2    0    0  0.13099041589E+02  0.16673954626E+03  0.14231978896E+03  0.21961007151E+03  0.00000000000E+00 0. -1.
         11    1    1    2    0    0 -0.37320429709E+02  0.57474894280E+02  0.10340537084E+03  0.12405179831E+03  0.00000000000E+00 0.  1.
</event>
<event>
 7    1  0.2490079E-009  0.1086547E+03  0.7561462E-02  0.1263082E+00
          2   -1    0    0  501    0  0.00000000000E+00  0.00000000000E+00  0.57269111718E+02  0.57269111718E+02  0.00000000000E+00 0.  1.
         -2   -1    0    0    0  501 -0.00000000000E+00 -0.00000000000E+00 -0.28910250851E+03  0.28910250851E+03  0.00000000000E+00 0. -1.
         25    2    1    2    0    0 -0.31832375264E+02 -0.58033972199E+02 -0.13278696551E+03  0.19406913173E+03  0.12509679307E+03 0.  0.
          5    1    3    3  502    0 -0.56208152914E+02 -0.28071673811E+02 -0.14094516399E+03  0.15437093954E+03  0.41800000000E+01 0. -1.
         -5    1    3    3    0  502  0.24375777650E+02 -0.29962298388E+02  0.81581984748E+01  0.39698192189E+02  0.41800000000E+01 0. -1.
        -11    1    1    2    0    0  0.21940409875E+02  0.84465996969E+02 -0.78657102204E+02  0.11748542870E+03  0.00000000000E+00 0.  1.
         11    1    1    2    0    0  0.98919653893E+01 -0.26432024770E+02 -0.20389329079E+02  0.34817059799E+02  0.00000000000E+00 0. -1.
</event>
<event>
 7    1  0.2490079E-009  0.1167138E+03  0.7561462E-02  0.1248619E+00
          1   -1    0    0  501    0  0.00000000000E+00  0.00000000000E+00  0.89641847667E+02  0.89641847667E+02  0.00000000000E+00 0. -1.
         -1   -1    0    0    0  501 -0.00000000000E+00 -0.00000000000E+00 -0.20711940947E+03  0.20711940947E+03  0.00000000000E+00 0.  1.
         25    2    1    2    0    0  0.54839779964E+02 -0.34295762585E+02 -0.10982356010E+02  0.14124447773E+03  0.12508313055E+03 0.  0.
          5    1    3    3  502    0  0.42695031110E+00  0.33119217881E+02  0.30391841742E+02  0.45146443094E+02  0.41800000000E+01 0.  1.
         -5    1    3    3    0  502  0.54412829653E+02 -0.67414980466E+02 -0.41374197752E+02  0.96098034640E+02  0.41800000000E+01 0.  1.
        -11    1    1    2    0    0  0.47774750006E+01  0.51135151770E+02 -0.49890142060E+02  0.71600658437E+02  0.00000000000E+00 0.  1.
         11    1    1    2    0    0 -0.59617254964E+02 -0.16839389185E+02 -0.56605063733E+02  0.83916120965E+02  0.00000000000E+00 0. -1.
</event>
<event>
 7    1  0.2490079E-009  0.1143900E+03  0.7561462E-02  0.1252650E+00
         -1   -1    0    0    0  501 -0.00000000000E+00  0.00000000000E+00  0.18143322912E+03  0.18143322912E+03  0.00000000000E+00 0.  1.
          1   -1    0    0  501    0  0.00000000000E+00 -0.00000000000E+00 -0.92404737535E+02  0.92404737535E+02  0.00000000000E+00 0. -1.
         25    2    1    2    0    0  0.34668047744E+02 -0.54779418468E+02  0.21467787831E+02  0.14251720238E+03  0.12509048260E+03 0.  0.
          5    1    3    3  502    0  0.24538747628E+02 -0.92068116011E+02 -0.49844938535E+01  0.95503956462E+02  0.41800000000E+01 0.  1.
         -5    1    3    3    0  502  0.10129300117E+02  0.37288697542E+02  0.26452281685E+02  0.47013245917E+02  0.41800000000E+01 0.  1.
        -11    1    1    2    0    0  0.46175598008E+01  0.55060830781E+02  0.73113277047E+02  0.91643702595E+02  0.00000000000E+00 0.  1.
         11    1    1    2    0    0 -0.39285607545E+02 -0.28141231260E+00 -0.55525732981E+01  0.39677061677E+02  0.00000000000E+00 0. -1.
</event>
<event>
 7    1  0.2490079E-009  0.9544715E+02  0.7561462E-02  0.1290172E+00
          1   -1    0    0  501    0  0.00000000000E+00  0.00000000000E+00  0.57201125115E+03  0.57201125115E+03  0.00000000000E+00 0. -1.
         -1   -1    0    0    0  501 -0.00000000000E+00 -0.00000000000E+00 -0.25734196543E+02  0.25734196543E+02  0.00000000000E+00 0.  1.
         25    2    1    2    0    0  0.18036029687E+01 -0.36288504920E+02  0.19260966228E+03  0.23252044726E+03  0.12508863985E+03 0.  0.
          5    1    3    3  502    0 -0.41323136790E+02  0.63187693644E+01  0.14684806592E+02  0.44504431522E+02  0.41800000000E+01 0.  1.
         -5    1    3    3    0  502  0.43126739758E+02 -0.42607274284E+02  0.17792485569E+03  0.18801601574E+03  0.41800000000E+01 0.  1.
        -11    1    1    2    0    0  0.30525140202E+02  0.45234507049E+02  0.26175585805E+03  0.26738375799E+03  0.00000000000E+00 0. -1.
         11    1    1    2    0    0 -0.32328743170E+02 -0.89460021292E+01  0.91911534273E+02  0.97841242436E+02  0.00000000000E+00 0.  1.
</event>
<event>
 7    1  0.2490079E-009  0.7268021E+02  0.7561462E-02  0.1351209E+00
         -3   -1    0    0    0  501 -0.00000000000E+00  0.00000000000E+00  0.50782063561E+02  0.50782063561E+02  0.00000000000E+00 0.  1.
          3   -1    0    0  501    0  0.00000000000E+00 -0.00000000000E+00 -0.25587473208E+03  0.25587473208E+03  0.00000000000E+00 0. -1.
         25    2    1    2    0    0  0.20217047057E+02  0.38837992188E+01 -0.15120792895E+03  0.19731979470E+03  0.12508977061E+03 0.  0.
          5    1    3    3  502    0  0.58833434202E+02 -0.14309998559E+02 -0.14059297098E+03  0.15313394440E+03  0.41800000000E+01 0. -1.
         -5    1    3    3    0  502 -0.38616387146E+02  0.18193797778E+02 -0.10614957979E+02  0.44185850299E+02  0.41800000000E+01 0. -1.
        -11    1    1    2    0    0 -0.15055098825E+02 -0.19897105853E+02  0.20983545968E+02  0.32601534064E+02  0.00000000000E+00 0.  1.
         11    1    1    2    0    0 -0.51619482313E+01  0.16013306635E+02 -0.74868285535E+02  0.76735466884E+02  0.00000000000E+00 0. -1.
</event>
<event>
 7    1  0.2490079E-009  0.9966437E+02  0.7561462E-02  0.1281003E+00
         -2   -1    0    0    0  501 -0.00000000000E+00  0.00000000000E+00  0.48387303458E+03  0.48387303458E+03  0.00000000000E+00 0.  1.
          2   -1    0    0  501    0  0.00000000000E+00 -0.00000000000E+00 -0.45185621203E+02  0.45185621203E+02  0.00000000000E+00 0. -1.
         25    2    1    2    0    0 -0.64777664559E+02 -0.11513799167E+02  0.34201878934E+03  0.37007209303E+03  0.12509112032E+03 0.  0.
          5    1    3    3  502    0 -0.10230040081E+02 -0.59536199868E+02  0.95932106051E+02  0.11344449826E+03  0.41800000000E+01 0.  1.
         -5    1    3    3    0  502 -0.54547624478E+02  0.48022400701E+02  0.24608668329E+03  0.25662759477E+03  0.41800000000E+01 0.  1.
        -11    1    1    2    0    0  0.21232406172E+02  0.61587819255E+01  0.11072972717E+03  0.11291509264E+03  0.00000000000E+00 0.  1.
         11    1    1    2    0    0  0.43545258388E+02  0.53550172415E+01 -0.14061103126E+02  0.46071470118E+02  0.00000000000E+00 0. -1.
</event>
<event>
 7    1  0.2490079E-009  0.2131108E+03  0.7561462E-02  0.1139126E+00
          2   -1    0    0  501    0  0.00000000000E+00  0.00000000000E+00  0.53232682925E+03  0.53232682925E+03  0.00000000000E+00 0.  1.
         -2   -1    0    0    0  501 -0.00000000000E+00 -0.00000000000E+00 -0.95601307458E+02  0.95601307458E+02  0.00000000000E+00 0. -1.
         25    2    1    2    0    0  0.18787159743E+03  0.53560007039E+02  0.26697763885E+03  0.35368004844E+03  0.12509238805E+03 0.  0.
          5    1    3    3  502    0  0.20417957413E+03  0.59825015405E+02  0.23524595779E+03  0.31721674612E+03  0.41800000000E+01 0. -1.
         -5    1    3    3    0  502 -0.16307976699E+02 -0.62650083662E+01  0.31731681057E+02  0.36463302326E+02  0.41800000000E+01 0. -1.
        -11    1    1    2    0    0 -0.21931977643E+02 -0.42201545357E+01  0.72117690512E+02  0.75496904787E+02  0.00000000000E+00 0.  1.
         11    1    1    2    0    0 -0.16593961979E+03 -0.49339852503E+02  0.97630192429E+02  0.19875118348E+03  0.00000000000E+00 0. -1.
</event>
<event>
 7    1  0.2490079E-009  0.8984776E+02  0.7561462E-02  0.1303221E+00
          1   -1    0    0  501    0  0.00000000000E+00  0.00000000000E+00  0.10269551726E+03  0.10269551726E+03  0.00000000000E+00 0. -1.
         -1   -1    0    0    0  501 -0.00000000000E+00 -0.00000000000E+00 -0.12306358130E+03  0.12306358130E+03  0.00000000000E+00 0.  1.
         25    2    1    2    0    0 -0.64773057269E+01 -0.27295664734E+02 -0.13079234055E+02  0.12886204362E+03  0.12508937253E+03 0.  0.
          5    1    3    3  502    0  0.51373002088E+02 -0.42417912038E+02  0.29425203345E+01  0.66817628146E+02  0.41800000000E+01 0.  1.
         -5    1    3    3    0  502 -0.57850307815E+02  0.15122247304E+02 -0.16021754390E+02  0.62044415474E+02  0.41800000000E+01 0.  1.
        -11    1    1    2    0    0 -0.12085215089E+02  0.31699333117E+02 -0.43979065963E+02  0.55543301907E+02  0.00000000000E+00 0.  1.
         11    1    1    2    0    0  0.18562520816E+02 -0.44036683830E+01  0.36690235971E+02  0.41353753033E+02  0.00000000000E+00 0. -1.
</event>
<event>
 7    1  0.2490079E-009  0.1122018E+03  0.7561462E-02  0.1256546E+00
          2   -1    0    0  501    0  0.00000000000E+00  0.00000000000E+00  0.91990960508E+03  0.91990960508E+03  0.00000000000E+00 0. -1.
         -2   -1    0    0    0  501 -0.00000000000E+00 -0.00000000000E+00 -0.14556367339E+02  0.14556367339E+02  0.00000000000E+00 0.  1.
         25    2    1    2    0    0  0.31397966516E+02  0.87924359982E+01  0.41380860627E+03  0.43353008836E+03  0.12509050985E+03 0.  0.
          5    1    3    3  502    0 -0.24658955605E+02 -0.44173247768E+02  0.19465400922E+03  0.20116410121E+03  0.41800000000E+01 0.  1.
         -5    1    3    3    0  502  0.56056922121E+02  0.52965683766E+02  0.21915459705E+03  0.23236598715E+03  0.41800000000E+01 0.  1.
        -11    1    1    2    0    0 -0.44654891677E+02 -0.41595001272E+02  0.32382886456E+03  0.32952896231E+03  0.00000000000E+00 0. -1.
         11    1    1    2    0    0  0.13256925161E+02  0.32802565274E+02  0.16771576691E+03  0.17140692175E+03  0.00000000000E+00 0.  1.
</event>
<event>
 7    1  0.2490079E-009  0.2121417E+03  0.7561462E-02  0.1139881E+00
         -1   -1    0    0    0  501 -0.00000000000E+00  0.00000000000E+00  0.89704600498E+02  0.89704600498E+02  0.00000000000E+00 0.  1.
          1   -1    0    0  501    0  0.00000000000E+00 -0.00000000000E+00 -0.83702436196E+03  0.83702436196E+03  0.00000000000E+00 0. -1.
         25    2    1    2    0    0 -0.17213228152E+03 -0.11469056060E+03 -0.14216083794E+03  0.28042920538E+03  0.12508952137E+03 0.  0.
          5    1    3    3  502    0 -0.94079209541E+02 -0.29697162475E+02 -0.19135435842E+01  0.98762103947E+02  0.41800000000E+01 0. -1.
         -5    1    3    3    0  502 -0.78053071977E+02 -0.84993398128E+02 -0.14024729436E+03  0.18166710144E+03  0.41800000000E+01 0. -1.
        -11    1    1    2    0    0  0.56287529378E+02  0.58964025590E+02 -0.12500939368E+03  0.14923937411E+03  0.00000000000E+00 0.  1.
         11    1    1    2    0    0  0.11584475214E+03  0.55726535013E+02 -0.48014952984E+03  0.49706038296E+03  0.00000000000E+00 0. -1.
</event>
<event>
 7    1  0.2490079E-009  0.2300329E+03  0.7561462E-02  0.1126617E+00
          1   -1    0    0  501    0  0.00000000000E+00  0.00000000000E+00  0.21434702719E+03  0.21434702719E+03  0.00000000000E+00 0. -1.
         -1   -1    0    0    0  501 -0.00000000000E+00 -0.00000000000E+00 -0.32008508250E+03  0.32008508250E+03  0.00000000000E+00 0.  1.
         25    2    1    2    0    0  0.15080646549E+03  0.15164894267E+03 -0.16186229178E+03  0.29594922873E+03  0.12508618084E+03 0.  0.
          5    1    3    3  502    0 -0.95195758752E+01  0.10203969547E+02 -0.54992145069E+02  0.56888942147E+02  0.41800000000E+01 0. -1.
         -5    1    3    3    0  502  0.16032604136E+03  0.14144497312E+03 -0.10687014671E+03  0.23906028658E+03  0.41800000000E+01 0. -1.
        -11    1    1    2    0    0 -0.10611073521E+03 -0.43584772076E+02  0.31768344051E+02  0.11903087065E+03  0.00000000000E+00 0.  1.
         11    1    1    2    0    0 -0.44695730276E+02 -0.10806417060E+03  0.24355892422E+02  0.11945201031E+03  0.00000000000E+00 0. -1.
</event>
<event>
 7    1  0.2490079E-009  0.1021449E+03  0.7561462E-02  0.1275849E+00
         -1   -1    0    0    0  501 -0.00000000000E+00  0.00000000000E+00  0.51443616277E+02  0.51443616277E+02  0.00000000000E+00 0.  1.
          1   -1    0    0  501    0  0.00000000000E+00 -0.00000000000E+00 -0.29657230746E+03  0.29657230746E+03  0.00000000000E+00 0. -1.
         25    2    1    2    0    0  0.31901378095E+01  0.49742158572E+02 -0.92553943771E+02  0.16339606726E+03  0.12509029926E+03 0.  0.
          5    1    3    3  502    0  0.33434848443E+02 -0.32530386943E+02 -0.34625116293E+02  0.58245053381E+02  0.41800000000E+01 0. -1.
         -5    1    3    3    0  502 -0.30244710633E+02  0.82272545515E+02 -0.57928827478E+02  0.10515101388E+03  0.41800000000E+01 0. -1.
        -11    1    1    2    0    0  0.22064539885E+02 -0.31859314101E+02 -0.14842129820E+03  0.15339733236E+03  0.00000000000E+00 0. -1.
         11    1    1    2    0    0 -0.25254677694E+02 -0.17882844471E+02 -0.41534492078E+01  0.31222524115E+02  0.00000000000E+00 0.  1.
</event>
<event>
 7    1  0.2490079E-009  0.1738298E+03  0.7561462E-02  0.1173912E+00
          1   -1    0    0  501    0  0.00000000000E+00  0.00000000000E+00  0.57359821668E+03  0.57359821668E+03  0.00000000000E+00 0. -1.
         -1   -1    0    0    0  501 -0.00000000000E+00 -0.00000000000E+00 -0.60478801613E+02  0.60478801613E+02  0.00000000000E+00 0.  1.
         25    2    1    2    0    0  0.82317660609E+02  0.12598079852E+03  0.28648429041E+03  0.34693953239E+03  0.12508569717E+03 0.  0.
          5    1    3    3  502    0  0.81068095514E+02  0.16466624464E+02  0.15519671963E+03  0.17591668487E+03  0.41800000000E+01 0. -1.
         -5    1    3    3    0  502  0.12495650946E+01  0.10951417405E+03  0.13128757078E+03  0.17102284752E+03  0.41800000000E+01 0. -1.
        -11    1    1    2    0    0 -0.80421246074E+02 -0.96195987008E+02  0.22459347030E+03  0.25722261105E+03  0.00000000000E+00 0. -1.
         11    1    1    2    0    0 -0.18964145347E+01 -0.29784811508E+02  0.20416543525E+01  0.29914874848E+02  0.00000000000E+00 0.  1.
</event>
<event>
 7    1  0.2490079E-009  0.1606349E+03  0.7561462E-02  0.1187982E+00
         -1   -1    0    0    0  501 -0.00000000000E+00  0.00000000000E+00  0.27802336767E+02  0.27802336767E+02  0.00000000000E+00 0.  1.
          1   -1    0    0  501    0  0.00000000000E+00 -0.00000000000E+00 -0.13419748269E+04  0.13419748269E+04  0.00000000000E+00 0. -1.
         25    2    1    2    0    0 -0.56392647239E+02 -0.14913484808E+03 -0.71173657596E+03  0.74002681526E+03  0.12509756262E+03 0.  0.
          5    1    3    3  502    0 -0.21665842809E+02 -0.74949159091E+02 -0.57717843963E+03  0.58244245103E+03  0.41800000000E+01 0. -1.
         -5    1    3    3    0  502 -0.34726804430E+02 -0.74185688986E+02 -0.13455813633E+03  0.15758436423E+03  0.41800000000E+01 0. -1.
        -11    1    1    2    0    0  0.44170843970E+00  0.24507440347E+02 -0.20378126636E+02  0.31875975027E+02  0.00000000000E+00 0.  1.
         11    1    1    2    0    0  0.55950938799E+02  0.12462740773E+03 -0.58205778755E+03  0.59787437339E+03  0.00000000000E+00 0. -1.
</event>
<event>
 7    1  0.2490079E-009  0.1764241E+03  0.7561462E-02  0.1171309E+00
          3   -1    0    0  501    0  0.00000000000E+00  0.00000000000E+00  0.54059973639E+02  0.54059973639E+02  0.00000000000E+00 0. -1.
         -3   -1    0    0    0  501 -0.00000000000E+00 -0.00000000000E+00 -0.63721021325E+03  0.63721021325E+03  0.00000000000E+00 0.  1.
         25    2    1    2    0    0 -0.39687189066E+02  0.14458636406E+03 -0.31192459923E+03  0.36799868638E+03  0.12508312405E+03 0.  0.
          5    1    3    3  502    0  0.42676932695E+02  0.78573890341E+02 -0.14923426320E+03  0.17402159217E+03  0.41800000000E+01 0.  1.
         -5    1    3    3    0  502 -0.82364121761E+02  0.66012473720E+02 -0.16269033604E+03  0.19397709421E+03  0.41800000000E+01 0.  1.
        -11    1    1    2    0    0  0.15313082046E+02 -0.51617169044E+01  0.12698167120E+01  0.16209449023E+02  0.00000000000E+00 0. -1.
         11    1    1    2    0    0  0.24374107020E+02 -0.13942464716E+03 -0.27249545709E+03  0.30706205148E+03  0.00000000000E+00 0.  1.
</event>
<event>
 7    1  0.2490079E-009  0.9493384E+02  0.7561462E-02  0.1291325E+00
          2   -1    0    0  501    0  0.00000000000E+00  0.00000000000E+00  0.38172744276E+03  0.38172744276E+03  0.00000000000E+00 0. -1.
         -2   -1    0    0    0  501 -0.00000000000E+00 -0.00000000000E+00 -0.31481750368E+02  0.31481750368E+02  0.00000000000E+00 0.  1.
         25    2    1    2    0    0  0.12146001741E+02  0.13940465292E+02  0.20664444621E+03  0.24226234722E+03  0.12508899152E+03 0.  0.
          5    1    3    3  502    0 -0.31192702011E+02  0.43209462248E+02  0.37840421958E+02  0.65493604424E+02  0.41800000000E+01 0. -1.
         -5    1    3    3    0  502  0.43338703752E+02 -0.29268996956E+02  0.16880402426E+03  0.17676874280E+03  0.41800000000E+01 0. -1.
        -11    1    1    2    0    0  0.83213392705E+01 -0.45543168870E+02  0.11403253345E+03  0.12307251359E+03  0.00000000000E+00 0. -1.
         11    1    1    2    0    0 -0.20467341011E+02  0.31602703578E+02  0.29568712729E+02  0.47874332308E+02  0.00000000000E+00 0.  1.
</event>
<event>
 7    1  0.2490079E-009  0.9139818E+02  0.7561462E-02  0.1299501E+00
          1   -1    0    0  501    0  0.00000000000E+00  0.00000000000E+00  0.73226152222E+02  0.73226152222E+02  0.00000000000E+00 0. -1.
         -1   -1    0    0    0  501 -0.00000000000E+00 -0.00000000000E+00 -0.35737429773E+03  0.35737429773E+03  0.00000000000E+00 0.  1.
         25    2    1    2    0    0 -0.78350657367E+02  0.11792243837E+02 -0.26905673311E+03  0.30711056124E+03  0.12508992231E+03 0.  0.
          5    1    3    3  502    0  0.50506027478E+01  0.11595867607E+02  0.94641564848E+01  0.16340605608E+02  0.41800000000E+01 0.  1.
         -5    1    3    3    0  502 -0.83401260115E+02  0.19637622980E+00 -0.27852088960E+03  0.29076995563E+03  0.41800000000E+01 0.  1.
        -11    1    1    2    0    0  0.55708902664E+02  0.75147972810E+01 -0.51659087524E+02  0.76345368805E+02  0.00000000000E+00 0.  1.
         11    1    1    2    0    0  0.22641754704E+02 -0.19307041118E+02  0.36567675133E+02  0.47144519909E+02  0.00000000000E+00 0. -1.
</event>
<event>
 7    1  0.2490079E-009  0.5199640E+02  0.7561462E-02  0.1434862E+00
          2   -1    0    0  501    0  0.00000000000E+00  0.00000000000E+00  0.25051567567E+03  0.25051567567E+03  0.00000000000E+00 0. -1.
         -2   -1    0    0    0  501 -0.00000000000E+00 -0.00000000000E+00 -0.51426172478E+02  0.51426172478E+02  0.00000000000E+00 0.  1.
         25    2    1    2    0    0  0.86716680272E+01 -0.25306507173E+02  0.14169083861E+03  0.19088788990E+03  0.12508507359E+03 0.  0.
          5    1    3    3  502    0  0.22119833017E+02  0.11512439130E+01 -0.17727400755E+02  0.28676567312E+02  0.41800000000E+01 0.  1.
         -5    1    3    3    0  502 -0.13448164990E+02 -0.26457751086E+02  0.15941823937E+03  0.16221132259E+03  0.41800000000E+01 0.  1.
        -11    1    1    2    0    0 -0.26713106255E+02  0.16563246373E+02  0.76906091405E+02  0.83081153527E+02  0.00000000000E+00 0. -1.
         11    1    1    2    0    0  0.18041438228E+02  0.87432608000E+01 -0.19507426821E+02  0.27972804720E+02  0.00000000000E+00 0.  1.
</event>
<event>
 7    1  0.2490079E-009  0.1317277E+03  0.7561462E-02  0.1224914E+00
          3   -1    0    0  501    0  0.00000000000E+00  0.00000000000E+00  0.57632603623E+02  0.57632603623E+02  0.00000000000E+00 0.  1.
         -3   -1    0    0    0  501 -0.00000000000E+00 -0.00000000000E+00 -0.32082370908E+03  0.32082370908E+03  0.00000000000E+00 0. -1.
         25    2    1    2    0    0  0.73209443506E+02  0.47827508196E+02 -0.14425577012E+03  0.21000921234E+03  0.12508816450E+03 0.  0.
          5    1    3    3  502    0  0.10686150550E+03  0.44953361739E+02 -0.12644384655E+03  0.17159750820E+03  0.41800000000E+01 0.  1.
         -5    1    3    3    0  502 -0.33652061992E+02  0.28741464564E+01 -0.17811923568E+02  0.38411704145E+02  0.41800000000E+01 0.  1.
        -11    1    1    2    0    0  0.49153331472E+01 -0.33659974023E+02 -0.62086566520E+02  0.70794746228E+02  0.00000000000E+00 0.  1.
         11    1    1    2    0    0 -0.78124776653E+02 -0.14167534172E+02 -0.56848768816E+02  0.97652354132E+02  0.00000000000E+00 0. -1.
</event>
<event>
 7    1  0.2490079E-009  0.8313361E+02  0.7561462E-02  0.1320387E+00
          2   -1    0    0  501    0  0.00000000000E+00  0.00000000000E+00  0.17364933073E+03  0.17364933073E+03  0.00000000000E+00 0.  1.
         -2   -1    0    0    0  501 -0.00000000000E+00 -0.00000000000E+00 -0.11746216100E+03  0.11746216100E+03  0.00000000000E+00 0. -1.
         25    2    1    2    0    0  0.43393317122E+02  0.23760148238E+02  0.10904618042E+03  0.17316768487E+03  0.12509377684E+03 0.  0.
          5    1    3    3  502    0 -0.19136166771E+02  0.32827531905E+02  0.10263439107E+03  0.10952228249E+03  0.41800000000E+01 0. -1.
         -5    1    3    3    0  502  0.62529483893E+02 -0.90673836676E+01  0.64117893503E+01  0.63645402389E+02  0.41800000000E+01 0. -1.
        -11    1    1    2    0    0 -0.47470332608E+02 -0.76282060258E+01  0.13170050852E+02  0.49850498940E+02  0.00000000000E+00 0.  1.
         11    1    1    2    0    0  0.40770154860E+01 -0.16131942212E+02 -0.66029061547E+02  0.68093307921E+02  0.00000000000E+00 0. -1.
</event>
<event>
 7    1  0.2490079E-009  0.7187660E+02  0.7561462E-02  0.1353825E+00
         -2   -1    0    0    0  501 -0.00000000000E+00  0.00000000000E+00  0.68950889018E+02  0.68950889018E+02  0.00000000000E+00 0.  1.
          2   -1    0    0  501    0  0.00000000000E+00 -0.00000000000E+00 -0.18458462840E+03  0.18458462840E+03  0.00000000000E+00 0. -1.
         25    2    1    2    0    0  0.36795615985E+01 -0.13473089491E+02 -0.74972694255E+02  0.14650499042E+03  0.12509094300E+03 0.  0.
          5    1    3    3  502    0  0.22991661017E+02  0.11521217362E+02  0.28277543302E+02  0.38450575822E+02  0.41800000000E+01 0. -1.
         -5    1    3    3    0  502 -0.19312099419E+02 -0.24994306853E+02 -0.10325023756E+03  0.10805441460E+03  0.41800000000E+01 0. -1.
        -11    1    1    2    0    0 -0.36623942379E+01 -0.36089553227E+02 -0.44391393493E+02  0.57327696621E+02  0.00000000000E+00 0. -1.
         11    1    1    2    0    0 -0.17167360657E-01  0.49562642718E+02  0.37303483682E+01  0.49702830371E+02  0.00000000000E+00 0.  1.
</event>
<event>
 7    1  0.2490079E-009  0.8541068E+02  0.7561462E-02  0.1314362E+00
          1   -1    0    0  501    0  0.00000000000E+00  0.00000000000E+00  0.47857428175E+03  0.47857428175E+03  0.00000000000E+00 0. -1.
         -1   -1    0    0    0  501 -0.00000000000E+00 -0.00000000000E+00 -0.23344610693E+02  0.23344610693E+02  0.00000000000E+00 0.  1.
         25    2    1    2    0    0  0.34007015286E+01  0.16142240035E+01  0.35231523353E+03  0.37388421936E+03  0.12509682338E+03 0.  0.
          5    1    3    3  502    0 -0.57316216333E+02  0.72287097055E+01  0.11418380223E+03  0.12803443283E+03  0.41800000000E+01 0. -1.
         -5    1    3    3    0  502  0.60716917862E+02 -0.56144857020E+01  0.23813143130E+03  0.24584978653E+03  0.41800000000E+01 0. -1.
        -11    1    1    2    0    0 -0.23980125646E+01  0.25016628580E+02  0.38208170210E+01  0.25420086792E+02  0.00000000000E+00 0.  1.
         11    1    1    2    0    0 -0.10026889640E+01 -0.26630852584E+02  0.99093620508E+02  0.10261458629E+03  0.00000000000E+00 0. -1.
</event>
<event>
 7    1  0.3187973E-009  0.8224143E+02  0.7561462E-02  0.1322808E+00
          1   -1    0    0  501    0  0.00000000000E+00  0.00000000000E+00  0.61468497102E+03  0.61468497102E+03  0.00000000000E+00 0. -1.
         -1   -1    0    0    0  501 -0.00000000000E+00 -0.00000000000E+00 -0.23683834317E+02  0.23683834317E+02  0.00000000000E+00 0.  1.
         25    2    1    2    0    0 -0.48409549557E+02 -0.99876986772E+01  0.37512804056E+03  0.39851105866E+03  0.12508708344E+03 0.  0.
          5    1    3    3  502    0 -0.82473755075E+01  0.25074191485E+02  0.32207624520E+03  0.32318309733E+03  0.41800000000E+01 0.  1.
         -5    1    3    3    0  502 -0.40162174049E+02 -0.35061890162E+02  0.53051795365E+02  0.75327961326E+02  0.41800000000E+01 0.  1.
        -11    1    1    2    0    0 -0.13857549321E+02  0.16645721482E+02  0.85533113829E+01  0.23286709782E+02  0.00000000000E+00 0.  1.
         11    1    1    2    0    0  0.62267098878E+02 -0.66580228047E+01  0.20731978476E+03  0.21657103690E+03  0.00000000000E+00 0. -1.
</event>
<event>
 7    1  0.2490079E-009  0.1486849E+03  0.7561462E-02  0.1202098E+00
          1   -1    0    0  501    0  0.00000000000E+00  0.00000000000E+00  0.33571460217E+03  0.33571460217E+03  0.00000000000E+00 0. -1.
         -1   -1    0    0    0  501 -0.00000000000E+00 -0.00000000000E+00 -0.88293597352E+02  0.88293597352E+02  0.00000000000E+00 0.  1.
         25    2    1    2    0    0 -0.40528876836E+02  0.12757275095E+03  0.12035280212E+03  0.21919924601E+03  0.12508443482E+03 0.  0.
          5    1    3    3  502    0 -0.61725538068E+02  0.42559527029E+02  0.10662849599E+03  0.13041650182E+03  0.41800000000E+01 0.  1.
         -5    1    3    3    0  502  0.21196661232E+02  0.85013223916E+02  0.13724306131E+02  0.88782744195E+02  0.41800000000E+01 0.  1.
        -11    1    1    2    0    0  0.39466096935E+02 -0.10841492947E+03  0.50622493607E+02  0.12599208942E+03  0.00000000000E+00 0.  1.
         11    1    1    2    0    0  0.10627799008E+01 -0.19157821479E+02  0.76445709093E+02  0.78816864082E+02  0.00000000000E+00 0. -1.
</event>
<event>
 7    1  0.2490079E-009  0.1352141E+03  0.7561462E-02  0.1219918E+00
          3   -1    0    0  501    0  0.00000000000E+00  0.00000000000E+00  0.13283322193E+03  0.13283322193E+03  0.00000000000E+00 0. -1.
         -3   -1    0    0    0  501 -0.00000000000E+00 -0.00000000000E+00 -0.14768125046E+03  0.14768125046E+03  0.00000000000E+00 0.  1.
         25    2    1    2    0    0 -0.61035949572E+02  0.64051303652E+02 -0.11548959268E+02  0.15365148268E+03  0.12508973991E+03 0.  0.
          5    1    3    3  502    0 -0.41141127546E+02  0.99233024853E+02  0.94390515661E+01  0.10791827321E+03  0.41800000000E+01 0.  1.
         -5    1    3    3    0  502 -0.19894822027E+02 -0.35181721201E+02 -0.20988010834E+02  0.45733209475E+02  0.41800000000E+01 0.  1.
        -11    1    1    2    0    0  0.81886871576E+02 -0.58733224318E+02  0.10472557888E+02  0.10131498331E+03  0.00000000000E+00 0.  1.
         11    1    1    2    0    0 -0.20850922004E+02 -0.53180793338E+01 -0.13771627153E+02  0.25548006393E+02  0.00000000000E+00 0. -1.
</event>
<event>
 7    1  0.2490079E-009  0.1197174E+03  0.7561462E-02  0.1243564E+00
          2   -1    0    0  501    0  0.00000000000E+00  0.00000000000E+00  0.28238857867E+03  0.28238857867E+03  0.00000000000E+00 0. -1.
         -2   -1    0    0    0  501 -0.00000000000E+00 -0.00000000000E+00 -0.62686888145E+02  0.62686888145E+02  0.00000000000E+00 0.  1.
         25    2    1    2    0    0  0.23992580055E+02 -0.70769474495E+02  0.12926286745E+03  0.19478103909E+03  0.12508717707E+03 0.  0.
          5    1    3    3  502    0 -0.33618334800E+02  0.19014515510E+02  0.31347028334E+02  0.49918461717E+02  0.41800000000E+01 0.  1.
         -5    1    3    3    0  502  0.57610914856E+02 -0.89783990006E+02  0.97915839119E+02  0.14486257737E+03  0.41800000000E+01 0.  1.
        -11    1    1    2    0    0 -0.42760295005E+02  0.47002190253E+02  0.10004933381E+03  0.11852222540E+03  0.00000000000E+00 0. -1.
         11    1    1    2    0    0  0.18767714950E+02  0.23767284242E+02 -0.96105107329E+01  0.31772202335E+02  0.00000000000E+00 0.  1.
</event>
<event>
 7    1  0.2490079E-009  0.2584430E+03  0.7561462E-02  0.1108082E+00
         -1   -1    0    0    0  501 -0.00000000000E+00  0.00000000000E+00  0.82577774025E+02  0.82577774025E+02  0.00000000000E+00 0.  1.
          1   -1    0    0  501    0  0.00000000000E+00 -0.00000000000E+00 -0.10224848785E+04  0.10224848785E+04  0.00000000000E+00 0. -1.
         25    2    1    2    0    0 -0.71748752027E+02  0.24057469584E+03 -0.66782758671E+03  0.72433771828E+03  0.12508947541E+03 0.  0.
          5    1    3    3  502    0 -0.85979166193E+02  0.18232033546E+03 -0.37869946368E+03  0.42902666343E+03  0.41800000000E+01 0.  1.
         -5    1    3    3    0  502  0.14230414167E+02  0.58254360378E+02 -0.28912812303E+03  0.29531105485E+03  0.41800000000E+01 0.  1.
        -11    1    1    2    0    0  0.60577613617E+02 -0.12360212172E+03 -0.91518767944E+02  0.16529614832E+03  0.00000000000E+00 0. -1.
         11    1    1    2    0    0  0.11171138409E+02 -0.11697257412E+03 -0.18056074984E+03  0.21542878595E+03  0.00000000000E+00 0.  1.
</event>
<event>
 7    1  0.2490079E-009  0.7748708E+02  0.7561462E-02  0.1336338E+00
         -1   -1    0    0    0  501 -0.00000000000E+00  0.00000000000E+00  0.29602107924E+03  0.29602107924E+03  0.00000000000E+00 0.  1.
          1   -1    0    0  501    0  0.00000000000E+00 -0.00000000000E+00 -0.58522055034E+02  0.58522055034E+02  0.00000000000E+00 0. -1.
         25    2    1    2    0    0 -0.31971994432E+02 -0.46069737050E+02  0.65569992718E+02  0.15196270978E+03  0.12509441282E+03 0.  0.
          5    1    3    3  502    0  0.89501188172E+01 -0.13551998536E+02 -0.34851070399E+02  0.38675971857E+02  0.41800000000E+01 0. -1.
         -5    1    3    3    0  502 -0.40922113249E+02 -0.32517738514E+02  0.10042106312E+03  0.11328673792E+03  0.41800000000E+01 0. -1.
        -11    1    1    2    0    0 -0.13424797100E+01  0.51925885064E+02  0.15743139092E+03  0.16577919845E+03  0.00000000000E+00 0.  1.
         11    1    1    2    0    0  0.33314474142E+02 -0.58561480144E+01  0.14497640575E+02  0.36801226055E+02  0.00000000000E+00 0. -1.
</event>
<event>
 7    1  0.2984380E-009  0.9708856E+02  0.7561462E-02  0.1286540E+00
          2   -1    0    0  501    0  0.00000000000E+00  0.00000000000E+00  0.98337900797E+03  0.98337900797E+03  0.00000000000E+00 0. -1.
         -2   -1    0    0    0  501 -0.00000000000E+00 -0.00000000000E+00 -0.15796715609E+02  0.15796715609E+02  0.00000000000E+00 0.  1.
         25    2    1    2    0    0 -0.52492403004E+02 -0.27122679033E+02  0.47602077256E+03  0.49571618501E+03  0.12509063946E+03 0.  0.
          5    1    3    3  502    0  0.13880568996E+02  0.61014960048E+01  0.34276705702E+03  0.34312771125E+03  0.41800000000E+01 0.  1.
         -5    1    3    3    0  502 -0.66372972000E+02 -0.33224175038E+02  0.13325371554E+03  0.15258847376E+03  0.41800000000E+01 0.  1.
        -11    1    1    2    0    0  0.31899580769E+02 -0.29751214555E+02  0.13703286843E+03  0.14380794502E+03  0.00000000000E+00 0. -1.
         11    1    1    2    0    0  0.20592822235E+02  0.56873893589E+02  0.35452865138E+03  0.35965159356E+03  0.00000000000E+00 0.  1.
</event>
<event>
 7    1  0.2490079E-009  0.1295019E+03  0.7561462E-02  0.1228197E+00
         -1   -1    0    0    0  501 -0.00000000000E+00  0.00000000000E+00  0.50296996551E+02  0.50296996551E+02  0.00000000000E+00 0.  1.
          1   -1    0    0  501    0  0.00000000000E+00 -0.00000000000E+00 -0.69789401121E+03  0.69789401121E+03  0.00000000000E+00 0. -1.
         25    2    1    2    0    0 -0.37104153476E+02  0.63139828987E+02 -0.43773829651E+03  0.46111355025E+03  0.12509010266E+03 0.  0.
          5    1    3    3  502    0 -0.44504989748E+02  0.28722618752E+02 -0.41631505165E+03  0.41969200322E+03  0.41800000000E+01 0. -1.
         -5    1    3    3    0  502  0.74008362720E+01  0.34417210235E+02 -0.21423244865E+02  0.41421547031E+02  0.41800000000E+01 0. -1.
        -11    1    1    2    0    0 -0.43903021912E+02 -0.76611551119E+02 -0.37066171203E+02  0.95763803942E+02  0.00000000000E+00 0.  1.
         11    1    1    2    0    0  0.81007175387E+02  0.13471722132E+02 -0.17279254694E+03  0.19131365357E+03  0.00000000000E+00 0. -1.
</event>
<event>
 7    1  0.2490079E-009  0.1151683E+03  0.7561462E-02  0.1251288E+00
          2   -1    0    0  501    0  0.00000000000E+00  0.00000000000E+00  0.25476976013E+03  0.25476976013E+03  0.00000000000E+00 0. -1.
         -2   -1    0    0    0  501 -0.00000000000E+00 -0.00000000000E+00 -0.79197869716E+02  0.79197869716E+02  0.00000000000E+00 0.  1.
         25    2    1    2    0    0 -0.12962518509E+02 -0.78048430817E+02  0.14726062591E+03  0.20878812682E+03  0.12508879055E+03 0.  0.
          5    1    3    3  502    0 -0.19500326093E+02  0.92213148482E+01 -0.13439282745E+02  0.25756204805E+02  0.41800000000E+01 0.  1.
         -5    1    3    3    0  502  0.65378075840E+01 -0.87269745665E+02  0.16069990865E+03  0.18303192202E+03  0.41800000000E+01 0.  1.
        -11    1    1    2    0    0 -0.22394140259E+02  0.82158554214E+02  0.11898962499E+02  0.85983201017E+02  0.00000000000E+00 0. -1.
         11    1    1    2    0    0  0.35356658768E+02 -0.41101233971E+01  0.16412302004E+02  0.39196302002E+02  0.00000000000E+00 0.  1.
</event>
<event>
 7    1  0.2490079E-009  0.1100116E+03  0.7561462E-02  0.1260548E+00
          2   -1    0    0  501    0  0.00000000000E+00  0.00000000000E+00  0.20280845258E+02  0.20280845258E+02  0.00000000000E+00 0. -1.
         -2   -1    0    0    0  501 -0.00000000000E+00 -0.00000000000E+00 -0.78013771517E+03  0.78013771517E+03  0.00000000000E+00 0.  1.
         25    2    1    2    0    0  0.96659923828E+01 -0.41086473236E+02 -0.57225873960E+03  0.58728899063E+03  0.12508702481E+03 0.  0.
          5    1    3    3  502    0  0.75608340406E+01 -0.85964466232E+02 -0.39944266486E+03  0.40867954509E+03  0.41800000000E+01 0.  1.
         -5    1    3    3    0  502  0.21051583422E+01  0.44877992997E+02 -0.17281607474E+03  0.17860944554E+03  0.41800000000E+01 0.  1.
        -11    1    1    2    0    0  0.32486487765E+02  0.47104930327E+01 -0.12551593957E+03  0.12973747229E+03  0.00000000000E+00 0.  1.
         11    1    1    2    0    0 -0.42152480148E+02  0.36375980203E+02 -0.62082190748E+02  0.83392097506E+02  0.00000000000E+00 0. -1.
</event>
<event>
 7    1  0.2490079E-009  0.3094255E+03  0.7561462E-02  0.1080622E+00
          2   -1    0    0  501    0  0.00000000000E+00  0.00000000000E+00  0.80490622469E+03  0.80490622469E+03  0.00000000000E+00 0. -1.
         -2   -1    0    0    0  501 -0.00000000000E+00 -0.00000000000E+00 -0.12635425716E+03  0.12635425716E+03  0.00000000000E+00 0.  1.
         25    2    1    2    0    0 -0.93907001541E+01  0.29170956785E+03  0.24661021076E+03  0.40205319758E+03  0.12509004920E+03 0.  0.
          5    1    3    3  502    0 -0.40691319922E+02  0.27511123365E+02  0.22584326683E+02  0.54223331118E+02  0.41800000000E+01 0. -1.
         -5    1    3    3    0  502  0.31300619768E+02  0.26419844449E+03  0.22402588407E+03  0.34782986646E+03  0.41800000000E+01 0. -1.
        -11    1    1    2    0    0 -0.35348118623E+02 -0.17392605459E+03  0.28386148165E+03  0.33477918502E+03  0.00000000000E+00 0.  1.
         11    1    1    2    0    0  0.44738818777E+02 -0.11778351326E+03  0.14808027511E+03  0.19442809925E+03  0.00000000000E+00 0. -1.
</event>
<event>
 7    1  0.2490079E-009  0.8323778E+02  0.7561462E-02  0.1320106E+00
          1   -1    0    0  501    0  0.00000000000E+00  0.00000000000E+00  0.22669751602E+03  0.22669751602E+03  0.00000000000E+00 0. -1.
         -1   -1    0    0    0  501 -0.00000000000E+00 -0.00000000000E+00 -0.55113588024E+02  0.55113588024E+02  0.00000000000E+00 0.  1.
         25    2    1    2    0    0 -0.23143705260E+02 -0.54548870538E+01  0.67108983191E+02  0.14393031014E+03  0.12508769590E+03 0.  0.
          5    1    3    3  502    0  0.86015246157E+01 -0.33497282104E+02  0.89354256517E+02  0.95904690667E+02  0.41800000000E+01 0.  1.
         -5    1    3    3    0  502 -0.31745229876E+02  0.28042395051E+02 -0.22245273326E+02  0.48025619469E+02  0.41800000000E+01 0.  1.
        -11    1    1    2    0    0  0.49578638348E+02 -0.18971498579E+02  0.52503944879E+02  0.74663400450E+02  0.00000000000E+00 0.  1.
         11    1    1    2    0    0 -0.26434933088E+02  0.24426385633E+02  0.51970999927E+02  0.63217393460E+02  0.00000000000E+00 0. -1.
</event>
<event>
 7    1  0.2490079E-009  0.1278287E+03  0.7561462E-02  0.1230714E+00
         -2   -1    0    0    0  501 -0.00000000000E+00  0.00000000000E+00  0.93205606034E+02  0.93205606034E+02  0.00000000000E+00 0.  1.
          2   -1    0    0  501    0  0.00000000000E+00 -0.00000000000E+00 -0.23104398179E+03  0.23104398179E+03  0.00000000000E+00 0. -1.
         25    2    1    2    0    0  0.10412548870E+02 -0.96765678873E+02 -0.63539409011E+02  0.17075118367E+03  0.12508673969E+03 0.  0.
          5    1    3    3  502    0  0.45834617134E+02 -0.27426333366E+00  0.62379553807E+01  0.46446440505E+02  0.41800000000E+01 0. -1.
         -5    1    3    3    0  502 -0.35422068264E+02 -0.96491415539E+02 -0.69777364392E+02  0.12430474317E+03  0.41800000000E+01 0. -1.
        -11    1    1    2    0    0  0.17305391544E+02  0.40234529939E+02 -0.79035383541E+02  0.90359757787E+02  0.00000000000E+00 0. -1.
         11    1    1    2    0    0 -0.27717940414E+02  0.56531148934E+02  0.47364167956E+01  0.63138646364E+02  0.00000000000E+00 0.  1.
</event>
<event>
 7    1  0.2490079E-009  0.1347413E+03  0.7561462E-02  0.1220585E+00
          3   -1    0    0  501    0  0.00000000000E+00  0.00000000000E+00  0.13603996189E+03  0.13603996189E+03  0.00000000000E+00 0. -1.
         -3   -1    0    0    0  501 -0.00000000000E+00 -0.00000000000E+00 -0.21070711638E+03  0.21070711638E+03  0.00000000000E+00 0.  1.
         25    2    1    2    0    0 -0.11458582963E+03 -0.20393867307E+01 -0.10058337010E+03  0.19722714558E+03  0.12508981239E+03 0.  0.
          5    1    3    3  502    0 -0.87867481079E+01 -0.33969680957E+02 -0.76178586773E+02  0.83974970374E+02  0.41800000000E+01 0.  1.
         -5    1    3    3    0  502 -0.10579908152E+03  0.31930294226E+02 -0.24404783323E+02  0.11325217521E+03  0.41800000000E+01 0.  1.
        -11    1    1    2    0    0  0.10067575023E+03  0.18119892965E+02 -0.15021087868E+02  0.10339037811E+03  0.00000000000E+00 0.  1.
         11    1    1    2    0    0  0.13910079398E+02 -0.16080506234E+02  0.40937303475E+02  0.46129554576E+02  0.00000000000E+00 0. -1.
</event>
<event>
 7    1  0.2723647E-009  0.1475276E+03  0.7561462E-02  0.1203544E+00
         -1   -1    0    0    0  501 -0.00000000000E+00  0.00000000000E+00  0.38595566635E+02  0.38595566635E+02  0.00000000000E+00 0.  1.
          1   -1    0    0  501    0  0.00000000000E+00 -0.00000000000E+00 -0.63878270391E+03  0.63878270391E+03  0.00000000000E+00 0. -1.
         25    2    1    2    0    0 -0.47586458870E+02  0.10161900433E+03 -0.29126029773E+03  0.33626069575E+03  0.12509117221E+03 0.  0.
          5    1    3    3  502    0  0.79007279781E+01 -0.17185035323E+02 -0.30661712336E+01  0.19611750245E+02  0.41800000000E+01 0. -1.
         -5    1    3    3    0  502 -0.55487186848E+02  0.11880403965E+03 -0.28819412650E+03  0.31664894551E+03  0.41800000000E+01 0. -1.
        -11    1    1    2    0    0  0.54031032849E+02 -0.12909708574E+02 -0.12668034585E+03  0.13832542468E+03  0.00000000000E+00 0.  1.
         11    1    1    2    0    0 -0.64445739797E+01 -0.88709295754E+02 -0.18224649369E+03  0.20279215012E+03  0.00000000000E+00 0. -1.
</event>
<event>
 7    1  0.2490079E-009  0.1134606E+03  0.7561462E-02  0.1254292E+00
         -2   -1    0    0    0  501 -0.00000000000E+00  0.00000000000E+00  0.11182115322E+02  0.11182115322E+02  0.00000000000E+00 0.  1.
          2   -1    0    0  501    0  0.00000000000E+00 -0.00000000000E+00 -0.16480858565E+04  0.16480858565E+04  0.00000000000E+00 0. -1.
         25    2    1    2    0    0 -0.41642354514E+02 -0.45978283536E+02 -0.12271076368E+04  0.12350255699E+04  0.12508764073E+03 0.  0.
          5    1    3    3  502    0  0.37097030554E+02 -0.27378817552E+01 -0.63763658567E+03  0.63873435281E+03  0.41800000000E+01 0.  1.
         -5    1    3    3    0  502 -0.78739385068E+02 -0.43240401780E+02 -0.58947105108E+03  0.59629121708E+03  0.41800000000E+01 0.  1.
        -11    1    1    2    0    0  0.35370842354E+02  0.68007768873E+02 -0.37378357346E+03  0.38156298681E+03  0.00000000000E+00 0.  1.
         11    1    1    2    0    0  0.62715121602E+01 -0.22029485337E+02 -0.36012531011E+02  0.42679415165E+02  0.00000000000E+00 0. -1.
</event>
<event>
 7    1  0.2490079E-009  0.1053640E+03  0.7561462E-02  0.1269404E+00
         -1   -1    0    0    0  501 -0.00000000000E+00  0.00000000000E+00  0.77193160189E+02  0.77193160189E+02  0.00000000000E+00 0.  1.
          1   -1    0    0  501    0  0.00000000000E+00 -0.00000000000E+00 -0.29300342707E+03  0.29300342707E+03  0.00000000000E+00 0. -1.
         25    2    1    2    0    0  0.72107611516E+01  0.72586047084E+02 -0.35141220639E+02  0.14900953509E+03  0.12509279296E+03 0.  0.
          5    1    3    3  502    0  0.64036951934E+01 -0.15449486682E+02  0.33247364856E+02  0.37450682514E+02  0.41800000000E+01 0.  1.
         -5    1    3    3    0  502  0.80706595818E+00  0.88035533767E+02 -0.68388585495E+02  0.11155885257E+03  0.41800000000E+01 0.  1.
        -11    1    1    2    0    0 -0.41463554129E+02 -0.46461727054E+02 -0.16324339928E+03  0.17471784629E+03  0.00000000000E+00 0. -1.
         11    1    1    2    0    0  0.34252792977E+02 -0.26124320030E+02 -0.17425646959E+02  0.46469205886E+02  0.00000000000E+00 0.  1.
</event>
<event>
 7    1  0.2490079E-009  0.1915441E+03  0.7561462E-02  0.1157076E+00
         -1   -1    0    0    0  501 -0.00000000000E+00  0.00000000000E+00  0.64824053909E+02  0.64824053909E+02  0.00000000000E+00 0.  1.
          1   -1    0    0  501    0  0.00000000000E+00 -0.00000000000E+00 -0.71477794842E+03  0.71477794842E+03  0.00000000000E+00 0. -1.
         25    2    1    2    0    0 -0.25648052142E+02  0.17998004607E+03 -0.27371527597E+03  0.35159444752E+03  0.12509182095E+03 0.  0.
          5    1    3    3  502    0 -0.46692034313E+02  0.71294447625E+02 -0.42753533258E+02  0.95437840171E+02  0.41800000000E+01 0. -1.
         -5    1    3    3    0  502  0.21043982172E+02  0.10868559844E+03 -0.23096174271E+03  0.25615660735E+03  0.41800000000E+01 0. -1.
        -11    1    1    2    0    0  0.49567163581E+00 -0.13828005802E+03 -0.18682079196E+03  0.23242983553E+03  0.00000000000E+00 0.  1.
         11    1    1    2    0    0  0.25152380506E+02 -0.41699988045E+02 -0.18941782658E+03  0.19557771927E+03  0.00000000000E+00 0. -1.
</event>
<event>
 7    1  0.2490079E-009  0.1357297E+03  0.7561462E-02  0.1219193E+00
         -1   -1    0    0    0  501 -0.00000000000E+00  0.00000000000E+00  0.16273463567E+02  0.16273463567E+02  0.00000000000E+00 0.  1.
          1   -1    0    0  501    0  0.00000000000E+00 -0.00000000000E+00 -0.12129572678E+04  0.12129572678E+04  0.00000000000E+00 0. -1.
         25    2    1    2    0    0 -0.10020771269E+03 -0.41381037967E+02 -0.79552075797E+03  0.81256038545E+03  0.12508847933E+03 0.  0.
          5    1    3    3  502    0 -0.12758513884E+03 -0.42375481994E+02 -0.58739405001E+03  0.60259679016E+03  0.41800000000E+01 0.  1.
         -5    1    3    3    0  502  0.27377426147E+02  0.99444402696E+00 -0.20812670796E+03  0.20996359529E+03  0.41800000000E+01 0.  1.
        -11    1    1    2    0    0  0.67478504904E+02  0.20928804170E+02 -0.20745604493E+03  0.21915604954E+03  0.00000000000E+00 0.  1.
         11    1    1    2    0    0  0.32729207791E+02  0.20452233796E+02 -0.19370700128E+03  0.19751429633E+03  0.00000000000E+00 0. -1.
</event>
<event>
 7    1  0.2490079E-009  0.1169026E+03  0.7561462E-02  0.1248296E+00
         -2   -1    0    0    0  501 -0.00000000000E+00  0.00000000000E+00  0.49840118354E+02  0.49840118354E+02  0.00000000000E+00 0.  1.
          2   -1    0    0  501    0  0.00000000000E+00 -0.00000000000E+00 -0.43812821658E+03  0.43812821658E+03  0.00000000000E+00 0. -1.
         25    2    1    2    0    0 -0.73310639953E+02  0.19714112862E+02 -0.10523896143E+03  0.18023260523E+03  0.12508180047E+03 0.  0.
          5    1    3    3  502    0 -0.40319913719E+02 -0.51082479269E+02 -0.65777161058E+02  0.92624092154E+02  0.41800000000E+01 0. -1.
         -5    1    3    3    0  502 -0.32990726234E+02  0.70796592131E+02 -0.39461800370E+02  0.87608513075E+02  0.41800000000E+01 0. -1.
        -11    1    1    2    0    0  0.23907951881E+02 -0.31539876544E+02 -0.23330312171E+03  0.23663621991E+03  0.00000000000E+00 0. -1.
         11    1    1    2    0    0  0.49402688072E+02  0.11825763683E+02 -0.49746015089E+02  0.71099509792E+02  0.00000000000E+00 0.  1.
</event>
<event>
 7    1  0.2490079E-009  0.8533107E+02  0.7561462E-02  0.1314569E+00
         -1   -1    0    0    0  501 -0.00000000000E+00  0.00000000000E+00  0.48030549560E+02  0.48030549560E+02  0.00000000000E+00 0.  1.
          1   -1    0    0  501    0  0.00000000000E+00 -0.00000000000E+00 -0.24336727427E+03  0.24336727427E+03  0.00000000000E+00 0. -1.
         25    2    1    2    0    0 -0.98182674214E+00 -0.58284401852E+01 -0.95614134998E+02  0.15755782691E+03  0.12508985295E+03 0.  0.
          5    1    3    3  502    0 -0.38536441890E+02 -0.23417821802E+02  0.78968732862E+01  0.45970476822E+02  0.41800000000E+01 0. -1.
         -5    1    3    3    0  502  0.37554615148E+02  0.17589381617E+02 -0.10351100828E+03  0.11158735009E+03  0.41800000000E+01 0. -1.
        -11    1    1    2    0    0  0.28254863588E+02  0.34185887906E+02 -0.29248237075E+02  0.53126938744E+02  0.00000000000E+00 0.  1.
         11    1    1    2    0    0 -0.27273036846E+02 -0.28357447721E+02 -0.70474352637E+02  0.80713058173E+02  0.00000000000E+00 0. -1.
</event>
<event>
 7    1  0.2490079E-009  0.1539860E+03  0.7561462E-02  0.1195659E+00
         -1   -1    0    0    0  501 -0.00000000000E+00  0.00000000000E+00  0.42384532549E+02  0.42384532549E+02  0.00000000000E+00 0.  1.
          1   -1    0    0  501    0  0.00000000000E+00 -0.00000000000E+00 -0.81991371692E+03  0.81991371692E+03  0.00000000000E+00 0. -1.
         25    2    1    2    0    0 -0.60698657708E+02 -0.11735101579E+03 -0.24111906222E+03  0.30206051741E+03  0.12508623449E+03 0.  0.
          5    1    3    3  502    0 -0.83257336208E+02 -0.12158552851E+03 -0.23586677196E+03  0.27814642059E+03  0.41800000000E+01 0. -1.
         -5    1    3    3    0  502  0.22558678500E+02  0.42345127181E+01 -0.52522902616E+01  0.23914096818E+02  0.41800000000E+01 0. -1.
        -11    1    1    2    0    0 -0.35816663794E+01  0.21610132112E+02 -0.15799764838E+02  0.27008493348E+02  0.00000000000E+00 0.  1.
         11    1    1    2    0    0  0.64280324087E+02  0.95740883680E+02 -0.52061035731E+03  0.53322923871E+03  0.00000000000E+00 0. -1.
</event>
<event>
 7    1  0.2490079E-009  0.1244917E+03  0.7561462E-02  0.1235866E+00
         -2   -1    0    0    0  501 -0.00000000000E+00  0.00000000000E+00  0.11787157807E+03  0.11787157807E+03  0.00000000000E+00 0.  1.
          2   -1    0    0  501    0  0.00000000000E+00 -0.00000000000E+00 -0.13807424324E+03  0.13807424324E+03  0.00000000000E+00 0. -1.
         25    2    1    2    0    0 -0.73043164321E+01 -0.70236406899E+02  0.18016567472E+00  0.14364832066E+03  0.12509317198E+03 0.  0.
          5    1    3    3  502    0  0.53626635676E+02 -0.55061302339E+02 -0.16111896239E+02  0.78642410121E+02  0.41800000000E+01 0. -1.
         -5    1    3    3    0  502 -0.60930952108E+02 -0.15175104560E+02  0.16292061914E+02  0.65005910536E+02  0.41800000000E+01 0. -1.
        -11    1    1    2    0    0 -0.37669147804E+02  0.39640159174E+02 -0.14517001581E+01  0.54702964718E+02  0.00000000000E+00 0.  1.
         11    1    1    2    0    0  0.44973464236E+02  0.30596247725E+02 -0.18931130693E+02  0.57594535935E+02  0.00000000000E+00 0. -1.
</event>
<event>
 7    1  0.2490079E-009  0.9905278E+02  0.7561462E-02  0.1282301E+00
          2   -1    0    0  501    0  0.00000000000E+00  0.00000000000E+00  0.27735388037E+02  0.27735388037E+02  0.00000000000E+00 0. -1.
         -2   -1    0    0    0  501 -0.00000000000E+00 -0.00000000000E+00 -0.47974878923E+03  0.47974878923E+03  0.00000000000E+00 0.  1.
         25    2    1    2    0    0 -0.50112046476E+01 -0.22010253335E+02 -0.17968328795E+03  0.22010270097E+03  0.12509816778E+03 0.  0.
          5    1    3    3  502    0 -0.23786754633E+02 -0.60953207837E+02 -0.47488135973E+02  0.80954917700E+02  0.41800000000E+01 0.  1.
         -5    1    3    3    0  502  0.18775549985E+02  0.38942954502E+02 -0.13219515198E+03  0.13914778327E+03  0.41800000000E+01 0.  1.
        -11    1    1    2    0    0  0.33677771180E+00  0.55395605072E+02 -0.20087300971E+03  0.20837166917E+03  0.00000000000E+00 0. -1.
         11    1    1    2    0    0  0.46744269358E+01 -0.33385351737E+02 -0.71457103530E+02  0.79009807130E+02  0.00000000000E+00 0.  1.
</event>
<event>
 7    1  0.2822361E-009  0.1173050E+03  0.7561462E-02  0.1247610E+00
         -1   -1    0    0    0  501 -0.00000000000E+00  0.00000000000E+00  0.31474598697E+02  0.31474598697E+02  0.00000000000E+00 0.  1.
          1   -1    0    0  501    0  0.00000000000E+00 -0.00000000000E+00 -0.10288217376E+04  0.10288217376E+04  0.00000000000E+00 0. -1.
         25    2    1    2    0    0  0.82714258979E+02  0.62408281938E+02 -0.81657192635E+03  0.83257008863E+03  0.12508716675E+03 0.  0.
          5    1    3    3  502    0 -0.12658372866E+01  0.31858457332E+02 -0.42239419303E+02  0.53086764741E+02  0.41800000000E+01 0. -1.
         -5    1    3    3    0  502  0.83980096265E+02  0.30549824606E+02 -0.77433250705E+03  0.77948332389E+03  0.41800000000E+01 0. -1.
        -11    1    1    2    0    0 -0.36600076219E+02 -0.15462311749E+01 -0.61625950480E+01  0.37147462737E+02  0.00000000000E+00 0.  1.
         11    1    1    2    0    0 -0.46114182760E+02 -0.60862050763E+02 -0.17461261755E+03  0.19057878497E+03  0.00000000000E+00 0. -1.
</event>
<event>
 7    1  0.2490079E-009  0.1059002E+03  0.7561462E-02  0.1268356E+00
         -2   -1    0    0    0  501 -0.00000000000E+00  0.00000000000E+00  0.22360336204E+03  0.22360336204E+03  0.00000000000E+00 0. -1.
          2   -1    0    0  501    0  0.00000000000E+00 -0.00000000000E+00 -0.58759601296E+02  0.58759601296E+02  0.00000000000E+00 0.  1.
         25    2    1    2    0    0 -0.21581250081E+02 -0.25781156885E+02  0.10028967212E+03  0.16380183249E+03  0.12507039453E+03 0.  0.
          5    1    3    3  502    0  0.76903601133E+01 -0.65414998324E+02  0.92670739039E+02  0.11376995174E+03  0.41800000000E+01 0.  1.
         -5    1    3    3    0  502 -0.29271610195E+02  0.39633841439E+02  0.76189330835E+01  0.50031880755E+02  0.41800000000E+01 0.  1.
        -11    1    1    2    0    0 -0.15852895201E+02 -0.27199960546E+02  0.35592748780E+02  0.47518374400E+02  0.00000000000E+00 0. -1.
         11    1    1    2    0    0  0.37434145282E+02  0.52981117431E+02  0.28961339839E+02  0.71042756440E+02  0.00000000000E+00 0.  1.
</event>
<event>
 7    1  0.2490079E-009  0.2635187E+03  0.7561462E-02  0.1105047E+00
         -2   -1    0    0    0  501 -0.00000000000E+00  0.00000000000E+00  0.12162442930E+03  0.12162442930E+03  0.00000000000E+00 0.  1.
          2   -1    0    0  501    0  0.00000000000E+00 -0.00000000000E+00 -0.59076322869E+03  0.59076322869E+03  0.00000000000E+00 0. -1.
         25    2    1    2    0    0  0.13647812177E+03 -0.20285532834E+03 -0.22421551170E+03  0.35453659765E+03  0.12508813465E+03 0.  0.
          5    1    3    3  502    0 -0.14680306710E+02  0.59483357567E+01 -0.89168198690E+01  0.18651439085E+02  0.41800000000E+01 0. -1.
         -5    1    3    3    0  502  0.15115842848E+03 -0.20880366410E+03 -0.21529869183E+03  0.33588515857E+03  0.41800000000E+01 0. -1.
        -11    1    1    2    0    0 -0.45775781773E+02  0.22584765254E+02 -0.17876963788E+02  0.54084005517E+02  0.00000000000E+00 0. -1.
         11    1    1    2    0    0 -0.90702340001E+02  0.18027056308E+03 -0.22704632390E+03  0.30376705482E+03  0.00000000000E+00 0.  1.
</event>
<event>
 7    1  0.3604430E-009  0.1170006E+03  0.7561462E-02  0.1248129E+00
          1   -1    0    0  501    0  0.00000000000E+00  0.00000000000E+00  0.31366340990E+03  0.31366340990E+03  0.00000000000E+00 0. -1.
         -1   -1    0    0    0  501 -0.00000000000E+00 -0.00000000000E+00 -0.77612255997E+02  0.77612255997E+02  0.00000000000E+00 0.  1.
         25    2    1    2    0    0  0.69356388656E+02 -0.53983199242E+02  0.40321143683E+02  0.15810617495E+03  0.12508906220E+03 0.  0.
          5    1    3    3  502    0  0.88972508266E+02 -0.75241096879E+01  0.55572404273E+02  0.10525437744E+03  0.41800000000E+01 0. -1.
         -5    1    3    3    0  502 -0.19616119610E+02 -0.46459089554E+02 -0.15251260590E+02  0.52851797513E+02  0.41800000000E+01 0. -1.
        -11    1    1    2    0    0 -0.14864403532E+02  0.31937833055E+02  0.75571917322E+01  0.36028971946E+02  0.00000000000E+00 0.  1.
         11    1    1    2    0    0 -0.54491985124E+02  0.22045366186E+02  0.18817281849E+03  0.19714051900E+03  0.00000000000E+00 0. -1.
</event>
<event>
 7    1  0.2490079E-009  0.1345281E+03  0.7561462E-02  0.1220887E+00
         -1   -1    0    0    0  501 -0.00000000000E+00  0.00000000000E+00  0.51260957688E+02  0.51260957688E+02  0.00000000000E+00 0.  1.
          1   -1    0    0  501    0  0.00000000000E+00 -0.00000000000E+00 -0.40949764563E+03  0.40949764563E+03  0.00000000000E+00 0. -1.
         25    2    1    2    0    0  0.84946794187E+02  0.42709591096E+00 -0.12402463235E+03  0.19556215242E+03  0.12508519407E+03 0.  0.
          5    1    3    3  502    0  0.66624626629E+02  0.56484934753E+02 -0.96866467902E+02  0.13049894149E+03  0.41800000000E+01 0. -1.
         -5    1    3    3    0  502  0.18322167558E+02 -0.56057838842E+02 -0.27158164445E+02  0.65063210923E+02  0.41800000000E+01 0. -1.
        -11    1    1    2    0    0  0.12466259306E+02 -0.19576124497E+02 -0.28286115895E+02  0.36588749963E+02  0.00000000000E+00 0. -1.
         11    1    1    2    0    0 -0.97413053493E+02  0.19149028586E+02 -0.20592593970E+03  0.22860770094E+03  0.00000000000E+00 0.  1.
</event>
<event>
 7    1  0.2490079E-009  0.2590400E+03  0.7561462E-02  0.1107721E+00
         -2   -1    0    0    0  501 -0.00000000000E+00  0.00000000000E+00  0.12487088726E+04  0.12487088726E+04  0.00000000000E+00 0.  1.
          2   -1    0    0  501    0  0.00000000000E+00 -0.00000000000E+00 -0.58466754910E+02  0.58466754910E+02  0.00000000000E+00 0. -1.
         25    2    1    2    0    0 -0.22925468766E+03 -0.90570912292E+02  0.60703267153E+03  0.66700625405E+03  0.12509147321E+03 0.  0.
          5    1    3    3  502    0 -0.85270044761E+02 -0.94114667754E+02  0.34984229567E+03  0.37220378217E+03  0.41800000000E+01 0.  1.
         -5    1    3    3    0  502 -0.14398464290E+03  0.35437554617E+01  0.25719037586E+03  0.29480247188E+03  0.41800000000E+01 0.  1.
        -11    1    1    2    0    0  0.11198494507E+03  0.52045239742E+02  0.17848125003E+03  0.21703661330E+03  0.00000000000E+00 0. -1.
         11    1    1    2    0    0  0.11726974259E+03  0.38525672550E+02  0.40472819609E+03  0.42313276012E+03  0.00000000000E+00 0.  1.
</event>
<event>
 7    1  0.2490079E-009  0.1319357E+03  0.7561462E-02  0.1224612E+00
         -2   -1    0    0    0  501 -0.00000000000E+00  0.00000000000E+00  0.18697733902E+02  0.18697733902E+02  0.00000000000E+00 0. -1.
          2   -1    0    0  501    0  0.00000000000E+00 -0.00000000000E+00 -0.14902821166E+04  0.14902821166E+04  0.00000000000E+00 0.  1.
         25    2    1    2    0    0  0.88874748544E+02  0.54944004598E+02 -0.10781013853E+04  0.10903524268E+04  0.12509297783E+03 0.  0.
          5    1    3    3  502    0  0.10068535579E+03  0.45683889530E+02 -0.10627038152E+04  0.10684481409E+04  0.41800000000E+01 0.  1.
         -5    1    3    3    0  502 -0.11810607245E+02  0.92601150682E+01 -0.15397570083E+02  0.21904285860E+02  0.41800000000E+01 0.  1.
        -11    1    1    2    0    0  0.18438045086E+02 -0.40448797840E+01 -0.10445831591E+03  0.10615018758E+03  0.00000000000E+00 0.  1.
         11    1    1    2    0    0 -0.10731279363E+03 -0.50899124814E+02 -0.28902468156E+03  0.31247723618E+03  0.00000000000E+00 0. -1.
</event>
<event>
 7    1  0.2490079E-009  0.1609522E+03  0.7561462E-02  0.1187626E+00
         -2   -1    0    0    0  501 -0.00000000000E+00  0.00000000000E+00  0.56185687408E+02  0.56185687408E+02  0.00000000000E+00 0.  1.
          2   -1    0    0  501    0  0.00000000000E+00 -0.00000000000E+00 -0.53055585097E+03  0.53055585097E+03  0.00000000000E+00 0. -1.
         25    2    1    2    0    0  0.33349512478E+02 -0.12871783182E+03 -0.26895293240E+03  0.32505967076E+03  0.12509052519E+03 0.  0.
          5    1    3    3  502    0 -0.31204782993E+02 -0.45557086653E+02 -0.27945269399E+02  0.62029002150E+02  0.41800000000E+01 0.  1.
         -5    1    3    3    0  502  0.64554295471E+02 -0.83160745169E+02 -0.24100766300E+03  0.26303066861E+03  0.41800000000E+01 0.  1.
        -11    1    1    2    0    0 -0.23853833841E+02  0.14247175121E+03 -0.19185955585E+03  0.24016097612E+03  0.00000000000E+00 0.  1.
         11    1    1    2    0    0 -0.94956786373E+01 -0.13753919384E+02 -0.13557675313E+02  0.21520891503E+02  0.00000000000E+00 0. -1.
</event>
<event>
 7    1  0.2490079E-009  0.1062192E+03  0.7561462E-02  0.1267736E+00
          3   -1    0    0  501    0  0.00000000000E+00  0.00000000000E+00  0.42564844727E+02  0.42564844727E+02  0.00000000000E+00 0. -1.
         -3   -1    0    0    0  501 -0.00000000000E+00 -0.00000000000E+00 -0.28635513750E+03  0.28635513750E+03  0.00000000000E+00 0.  1.
         25    2    1    2    0    0  0.55440270596E+01  0.13676903219E+02 -0.17615107291E+03  0.21654976653E+03  0.12508719750E+03 0.  0.
          5    1    3    3  502    0  0.60758737217E+02  0.29532098656E+02 -0.83958036647E+02  0.10784337401E+03  0.41800000000E+01 0.  1.
         -5    1    3    3    0  502 -0.55214710157E+02 -0.15855195437E+02 -0.92193036261E+02  0.10870639252E+03  0.41800000000E+01 0.  1.
        -11    1    1    2    0    0 -0.44027274526E+02 -0.19646759534E+02 -0.23914615555E+02  0.53817328989E+02  0.00000000000E+00 0.  1.
         11    1    1    2    0    0  0.38483247466E+02  0.59698563150E+01 -0.43724604308E+02  0.58552886709E+02  0.00000000000E+00 0. -1.
</event>
<event>
 7    1  0.2490079E-009  0.1602437E+03  0.7561462E-02  0.1188422E+00
          2   -1    0    0  501    0  0.00000000000E+00  0.00000000000E+00  0.17914460539E+04  0.17914460539E+04  0.00000000000E+00 0. -1.
         -2   -1    0    0    0  501 -0.00000000000E+00 -0.00000000000E+00 -0.17423492379E+02  0.17423492379E+02  0.00000000000E+00 0.  1.
         25    2    1    2    0    0  0.81114509462E+02  0.87564029527E+02  0.13039998043E+04  0.13154126081E+04  0.12509123474E+03 0.  0.
          5    1    3    3  502    0 -0.11193982316E+02  0.79209415566E+02  0.59539194497E+03  0.60075658739E+03  0.41800000000E+01 0. -1.
         -5    1    3    3    0  502  0.92308491778E+02  0.83546139609E+01  0.70860785934E+03  0.71465602072E+03  0.41800000000E+01 0. -1.
        -11    1    1    2    0    0 -0.97906864234E+02 -0.58548902772E+02  0.39777995885E+03  0.41381472151E+03  0.00000000000E+00 0.  1.
         11    1    1    2    0    0  0.16792354772E+02 -0.29015126755E+02  0.72242798353E+02  0.79642216652E+02  0.00000000000E+00 0. -1.
</event>
<event>
 7    1  0.4456744E-009  0.1303502E+03  0.7561462E-02  0.1226937E+00
         -1   -1    0    0    0  501 -0.00000000000E+00  0.00000000000E+00  0.30955858793E+02  0.30955858793E+02  0.00000000000E+00 0.  1.
          1   -1    0    0  501    0  0.00000000000E+00 -0.00000000000E+00 -0.73834063062E+03  0.73834063062E+03  0.00000000000E+00 0. -1.
         25    2    1    2    0    0  0.18133201872E+02 -0.10132914851E+03 -0.42935915522E+03  0.45890550444E+03  0.12509423842E+03 0.  0.
          5    1    3    3  502    0 -0.39534525067E+02 -0.65902286298E+02 -0.32832736701E+03  0.33722755276E+03  0.41800000000E+01 0.  1.
         -5    1    3    3    0  502  0.57667726939E+02 -0.35426862215E+02 -0.10103178821E+03  0.12167795168E+03  0.41800000000E+01 0.  1.
        -11    1    1    2    0    0 -0.34535739111E+02  0.42021452622E+02 -0.21705413453E+03  0.22376554041E+03  0.00000000000E+00 0. -1.
         11    1    1    2    0    0  0.16402537239E+02  0.59307695891E+02 -0.60971482074E+02  0.86625444565E+02  0.00000000000E+00 0.  1.
</event>
<event>
 7    1  0.2490079E-009  0.8562162E+02  0.7561462E-02  0.1313815E+00
         -1   -1    0    0    0  501 -0.00000000000E+00  0.00000000000E+00  0.35251862038E+02  0.35251862038E+02  0.00000000000E+00 0.  1.
          1   -1    0    0  501    0  0.00000000000E+00 -0.00000000000E+00 -0.49364129229E+03  0.49364129229E+03  0.00000000000E+00 0. -1.
         25    2    1    2    0    0  0.23328104344E+02  0.57424253237E+02 -0.16852987179E+03  0.21884071279E+03  0.12508874681E+03 0.  0.
          5    1    3    3  502    0  0.15750318508E+02  0.75900402972E+02 -0.17957782017E+03  0.19563897771E+03  0.41800000000E+01 0. -1.
         -5    1    3    3    0  502  0.75777858364E+01 -0.18476149735E+02  0.11047948380E+02  0.23201735078E+02  0.41800000000E+01 0. -1.
        -11    1    1    2    0    0  0.10823677911E+02 -0.97595769465E+01 -0.26004965617E+00  0.14576315430E+02  0.00000000000E+00 0.  1.
         11    1    1    2    0    0 -0.34151782255E+02 -0.47664676291E+02 -0.28959950881E+03  0.29547612611E+03  0.00000000000E+00 0. -1.
</event>
<event>
 7    1  0.2490079E-009  0.9223132E+02  0.7561462E-02  0.1297536E+00
          1   -1    0    0  501    0  0.00000000000E+00  0.00000000000E+00  0.24497232425E+03  0.24497232425E+03  0.00000000000E+00 0. -1.
         -1   -1    0    0    0  501 -0.00000000000E+00 -0.00000000000E+00 -0.73609704406E+02  0.73609704406E+02  0.00000000000E+00 0.  1.
         25    2    1    2    0    0 -0.49512784083E+02 -0.13967592155E+02  0.16299086529E+03  0.21179888270E+03  0.12508451194E+03 0.  0.
          5    1    3    3  502    0  0.15042613176E+02  0.94433310123E+01  0.13707342609E+03  0.13828251246E+03  0.41800000000E+01 0. -1.
         -5    1    3    3    0  502 -0.64555397259E+02 -0.23410923167E+02  0.25917439201E+02  0.73516370242E+02  0.41800000000E+01 0. -1.
        -11    1    1    2    0    0 -0.21809236836E+02 -0.72932991099E+01 -0.16511347125E+02  0.28310061942E+02  0.00000000000E+00 0.  1.
         11    1    1    2    0    0  0.71322020919E+02  0.21260891265E+02  0.24883101678E+02  0.78473084013E+02  0.00000000000E+00 0. -1.
</event>
<event>
 7    1  0.2490079E-009  0.8860843E+02  0.7561462E-02  0.1306257E+00
          2   -1    0    0  501    0  0.00000000000E+00  0.00000000000E+00  0.16505770402E+03  0.16505770402E+03  0.00000000000E+00 0. -1.
         -2   -1    0    0    0  501 -0.00000000000E+00 -0.00000000000E+00 -0.11050403942E+03  0.11050403942E+03  0.00000000000E+00 0.  1.
         25    2    1    2    0    0  0.43784870736E+02 -0.48119545075E+02  0.78537446454E+02  0.16139467584E+03  0.12508998909E+03 0.  0.
          5    1    3    3  502    0 -0.14810253221E+01 -0.34902249873E+02  0.10247455858E+03  0.10834605687E+03  0.41800000000E+01 0. -1.
         -5    1    3    3    0  502  0.45265896058E+02 -0.13217295201E+02 -0.23937112125E+02  0.53048618976E+02  0.41800000000E+01 0. -1.
        -11    1    1    2    0    0 -0.95433515416E+01 -0.17920782946E+02  0.19374260034E+02  0.28064069055E+02  0.00000000000E+00 0. -1.
         11    1    1    2    0    0 -0.34241519194E+02  0.66040328021E+02 -0.43358041887E+02  0.86102998543E+02  0.00000000000E+00 0.  1.
</event>
<event>
 7    1  0.2490079E-009  0.1355291E+03  0.7561462E-02  0.1219475E+00
         -1   -1    0    0    0  501 -0.00000000000E+00  0.00000000000E+00  0.55177724766E+03  0.55177724766E+03  0.00000000000E+00 0.  1.
          1   -1    0    0  501    0  0.00000000000E+00 -0.00000000000E+00 -0.43531312973E+02  0.43531312973E+02  0.00000000000E+00 0. -1.
         25    2    1    2    0    0  0.15215652691E+02  0.10355227144E+03  0.20145031036E+03  0.25919921024E+03  0.12508962402E+03 0.  0.
          5    1    3    3  502    0  0.54894135033E+02  0.82401564947E+02  0.73121153127E+02  0.12315664579E+03  0.41800000000E+01 0. -1.
         -5    1    3    3    0  502 -0.39678482342E+02  0.21150706492E+02  0.12832915724E+03  0.13604256445E+03  0.41800000000E+01 0. -1.
        -11    1    1    2    0    0  0.28637383954E+02 -0.49602493045E+02  0.76611209422E+02  0.95654505828E+02  0.00000000000E+00 0.  1.
         11    1    1    2    0    0 -0.43853036645E+02 -0.53949778394E+02  0.23018441490E+03  0.24045484457E+03  0.00000000000E+00 0. -1.
</event>
<event>
 7    1  0.2490079E-009  0.1111707E+03  0.7561462E-02  0.1258417E+00
         -1   -1    0    0    0  501 -0.00000000000E+00  0.00000000000E+00  0.24376097474E+02  0.24376097474E+02  0.00000000000E+00 0.  1.
          1   -1    0    0  501    0  0.00000000000E+00 -0.00000000000E+00 -0.57242338900E+03  0.57242338900E+03  0.00000000000E+00 0. -1.
         25    2    1    2    0    0 -0.22540991278E+02  0.23824289809E+02 -0.39771571523E+03  0.41821157669E+03  0.12508972646E+03 0.  0.
          5    1    3    3  502    0  0.24742797551E+02  0.60829495907E+02 -0.25435601810E+03  0.26272968988E+03  0.41800000000E+01 0.  1.
         -5    1    3    3    0  502 -0.47283788829E+02 -0.37005206098E+02 -0.14335969713E+03  0.15548188681E+03  0.41800000000E+01 0.  1.
        -11    1    1    2    0    0  0.49424439272E+02 -0.41197326730E+02 -0.97535524524E+02  0.11684679487E+03  0.00000000000E+00 0.  1.
         11    1    1    2    0    0 -0.26883447994E+02  0.17373036921E+02 -0.52796051770E+02  0.61741114910E+02  0.00000000000E+00 0. -1.
</event>
<event>
 7    1  0.2490079E-009  0.1164601E+03  0.7561462E-02  0.1249054E+00
         -3   -1    0    0    0  501 -0.00000000000E+00  0.00000000000E+00  0.59443611686E+03  0.59443611686E+03  0.00000000000E+00 0.  1.
          3   -1    0    0  501    0  0.00000000000E+00 -0.00000000000E+00 -0.35239046009E+02  0.35239046009E+02  0.00000000000E+00 0. -1.
         25    2    1    2    0    0  0.74897066231E+02  0.41647202211E+02  0.20438759688E+03  0.25449052618E+03  0.12508828153E+03 0.  0.
          5    1    3    3  502    0 -0.27067013658E+02  0.12299969160E+02  0.77392065906E+01  0.31004518838E+02  0.41800000000E+01 0. -1.
         -5    1    3    3    0  502  0.10196407989E+03  0.29347233052E+02  0.19664839029E+03  0.22348600734E+03  0.41800000000E+01 0. -1.
        -11    1    1    2    0    0 -0.17835907929E+02  0.93891313107E+01  0.11014825365E+02  0.22969583720E+02  0.00000000000E+00 0. -1.
         11    1    1    2    0    0 -0.57061158301E+02 -0.51036333522E+02  0.34379464861E+03  0.35221505297E+03  0.00000000000E+00 0.  1.
</event>
<event>
 7    1  0.2490079E-009  0.1588474E+03  0.7561462E-02  0.1190004E+00
         -2   -1    0    0    0  501 -0.00000000000E+00  0.00000000000E+00  0.27295620562E+03  0.27295620562E+03  0.00000000000E+00 0. -1.
          2   -1    0    0  501    0  0.00000000000E+00 -0.00000000000E+00 -0.14445471346E+03  0.14445471346E+03  0.00000000000E+00 0.  1.
         25    2    1    2    0    0 -0.64711110108E+02 -0.13417570825E+03  0.14199222577E+03  0.24083346969E+03  0.12509324318E+03 0.  0.
          5    1    3    3  502    0 -0.33662395757E+02 -0.21389484891E+02  0.11347625730E+03  0.12035364690E+03  0.41800000000E+01 0. -1.
         -5    1    3    3    0  502 -0.31048714351E+02 -0.11278622336E+03  0.28515968471E+02  0.12047982279E+03  0.41800000000E+01 0. -1.
        -11    1    1    2    0    0 -0.32463622618E+01  0.59420682230E+02  0.29932712002E+02  0.66613238867E+02  0.00000000000E+00 0.  1.
         11    1    1    2    0    0  0.67957472370E+02  0.74755026020E+02 -0.43423445618E+02  0.10996421052E+03  0.00000000000E+00 0. -1.
</event>
<event>
 7    1  0.2490079E-009  0.9417824E+02  0.7561462E-02  0.1293038E+00
          1   -1    0    0  501    0  0.00000000000E+00  0.00000000000E+00  0.15538524281E+03  0.15538524281E+03  0.00000000000E+00 0. -1.
         -1   -1    0    0    0  501 -0.00000000000E+00 -0.00000000000E+00 -0.87145514299E+02  0.87145514299E+02  0.00000000000E+00 0.  1.
         25    2    1    2    0    0 -0.47888821106E+02  0.30973213191E+01  0.30028617409E+02  0.13730477366E+03  0.12509176800E+03 0.  0.
          5    1    3    3  502    0 -0.25562910370E+02  0.61686241171E+02 -0.16695756581E+01  0.66924693643E+02  0.41800000000E+01 0. -1.
         -5    1    3    3    0  502 -0.22325910736E+02 -0.58588919852E+02  0.31698193067E+02  0.70380080018E+02  0.41800000000E+01 0. -1.
        -11    1    1    2    0    0  0.44899200194E+01 -0.13296089637E+02 -0.24528960785E+02  0.28259782353E+02  0.00000000000E+00 0.  1.
         11    1    1    2    0    0  0.43398901087E+02  0.10198768318E+02  0.62740071886E+02  0.76966201095E+02  0.00000000000E+00 0. -1.
</event>
<event>
 7    1  0.2490079E-009  0.9802392E+02  0.7561462E-02  0.1284507E+00
         -2   -1    0    0    0  501 -0.00000000000E+00  0.00000000000E+00  0.73091310197E+02  0.73091310197E+02  0.00000000000E+00 0. -1.
          2   -1    0    0  501    0  0.00000000000E+00 -0.00000000000E+00 -0.17129504536E+03  0.17129504536E+03  0.00000000000E+00 0.  1.
         25    2    1    2    0    0 -0.24749343581E+02 -0.45603415735E+01 -0.70399219775E+02  0.14572594225E+03  0.12508666346E+03 0.  0.
          5    1    3    3  502    0 -0.54850283159E+02  0.39338760973E+02 -0.61865783238E+02  0.91656637584E+02  0.41800000000E+01 0. -1.
         -5    1    3    3    0  502  0.30100939578E+02 -0.43899102547E+02 -0.85334365376E+01  0.54069304666E+02  0.41800000000E+01 0. -1.
        -11    1    1    2    0    0 -0.20303504217E+02  0.18909509636E+02  0.17803429900E+02  0.32966103112E+02  0.00000000000E+00 0. -1.
         11    1    1    2    0    0  0.45052847798E+02 -0.14349168063E+02 -0.45607945287E+02  0.65694310196E+02  0.00000000000E+00 0.  1.
</event>
<event>
 7    1  0.2490079E-009  0.9774111E+02  0.7561462E-02  0.1285119E+00
         -2   -1    0    0    0  501 -0.00000000000E+00  0.00000000000E+00  0.26704825390E+03  0.26704825390E+03  0.00000000000E+00 0.  1.
          2   -1    0    0  501    0  0.00000000000E+00 -0.00000000000E+00 -0.86139328860E+02  0.86139328860E+02  0.00000000000E+00 0. -1.
         25    2    1    2    0    0 -0.55234711753E+01 -0.94011644072E+02  0.33890749114E+02  0.16020220769E+03  0.12508983379E+03 0.  0.
          5    1    3    3  502    0 -0.65015879345E+00 -0.56344117158E+02 -0.45204844022E+02  0.72360435099E+02  0.41800000000E+01 0.  1.
         -5    1    3    3    0  502 -0.48733123819E+01 -0.37667526915E+02  0.79095593136E+02  0.87841772586E+02  0.41800000000E+01 0.  1.
        -11    1    1    2    0    0 -0.15204410741E+02  0.46783098528E+02  0.15279611257E+02  0.51510182818E+02  0.00000000000E+00 0. -1.
         11    1    1    2    0    0  0.20727881916E+02  0.47228545545E+02  0.13173856467E+03  0.14147519225E+03  0.00000000000E+00 0.  1.
</event>
<event>
 7    1  0.2490079E-009  0.8748470E+02  0.7561462E-02  0.1309060E+00
         -1   -1    0    0    0  501 -0.00000000000E+00  0.00000000000E+00  0.40481696568E+02  0.40481696568E+02  0.00000000000E+00 0.  1.
          1   -1    0    0  501    0  0.00000000000E+00 -0.00000000000E+00 -0.44178049128E+03  0.44178049128E+03  0.00000000000E+00 0. -1.
         25    2    1    2    0    0 -0.39111999584E+02 -0.49449444714E+02 -0.13821910249E+03  0.19679222922E+03  0.12509062752E+03 0.  0.
          5    1    3    3  502    0 -0.16307427497E+02 -0.84350777729E+00 -0.14182153013E+03  0.14281968529E+03  0.41800000000E+01 0. -1.
         -5    1    3    3    0  502 -0.22804572087E+02 -0.48605936936E+02  0.36024276354E+01  0.53972543931E+02  0.41800000000E+01 0. -1.
        -11    1    1    2    0    0 -0.14745091226E+02  0.48183862835E+02 -0.17601864273E+03  0.18308922673E+03  0.00000000000E+00 0.  1.
         11    1    1    2    0    0  0.53857090810E+02  0.12655818785E+01 -0.87061049480E+02  0.10238073190E+03  0.00000000000E+00 0. -1.
</event>
<event>
 7    1  0.4533633E-009  0.1565757E+03  0.7561462E-02  0.1192618E+00
          2   -1    0    0  501    0  0.00000000000E+00  0.00000000000E+00  0.16941227600E+04  0.16941227600E+04  0.00000000000E+00 0. -1.
         -2   -1    0    0    0  501 -0.00000000000E+00 -0.00000000000E+00 -0.19338379426E+02  0.19338379426E+02  0.00000000000E+00 0.  1.
         25    2    1    2    0    0  0.36015757844E+02  0.11673857112E+03  0.12477192732E+04  0.12599125891E+04  0.12510523024E+03 0.  0.
          5    1    3    3  502    0 -0.32227401162E+02  0.86768740098E+02  0.86751418175E+03  0.87244813460E+03  0.41800000000E+01 0.  1.
         -5    1    3    3    0  502  0.68243159005E+02  0.29969831019E+02  0.38020509145E+03  0.38746445448E+03  0.41800000000E+01 0.  1.
        -11    1    1    2    0    0 -0.61220742179E+02 -0.72125387042E+02  0.20696023627E+03  0.22755788302E+03  0.00000000000E+00 0.  1.
         11    1    1    2    0    0  0.25204984335E+02 -0.44613184075E+02  0.22010487111E+03  0.22599066732E+03  0.00000000000E+00 0. -1.
</event>
<event>
 7    1  0.2791635E-009  0.1358583E+03  0.7561462E-02  0.1219013E+00
         -2   -1    0    0    0  501 -0.00000000000E+00  0.00000000000E+00  0.22864273146E+02  0.22864273146E+02  0.00000000000E+00 0.  1.
          2   -1    0    0  501    0  0.00000000000E+00 -0.00000000000E+00 -0.84730744060E+03  0.84730744060E+03  0.00000000000E+00 0. -1.
         25    2    1    2    0    0 -0.69306018524E+02 -0.51715995118E+02 -0.42522226991E+03  0.45159441712E+03  0.12508265426E+03 0.  0.
          5    1    3    3  502    0 -0.57720156515E+02 -0.92692337653E+02 -0.30664336402E+03  0.32553204301E+03  0.41800000000E+01 0. -1.
         -5    1    3    3    0  502 -0.11585862009E+02  0.40976342535E+02 -0.11857890588E+03  0.12606237411E+03  0.41800000000E+01 0. -1.
        -11    1    1    2    0    0  0.35106648250E+02  0.71850237348E+02 -0.19910291623E+03  0.21456212296E+03  0.00000000000E+00 0.  1.
         11    1    1    2    0    0  0.34199370274E+02 -0.20134242230E+02 -0.20011798132E+03  0.20401517366E+03  0.00000000000E+00 0. -1.
</event>
<event>
 7    1  0.2490079E-009  0.1061569E+03  0.7561462E-02  0.1267857E+00
         -2   -1    0    0    0  501 -0.00000000000E+00  0.00000000000E+00  0.23196864482E+02  0.23196864482E+02  0.00000000000E+00 0.  1.
          2   -1    0    0  501    0  0.00000000000E+00 -0.00000000000E+00 -0.62048713827E+03  0.62048713827E+03  0.00000000000E+00 0. -1.
         25    2    1    2    0    0 -0.17535177433E+02 -0.44506393031E+02 -0.38859320588E+03  0.41102458854E+03  0.12509289054E+03 0.  0.
          5    1    3    3  502    0  0.34037233122E+02 -0.49869677738E+02 -0.31584618670E+03  0.32159260571E+03  0.41800000000E+01 0.  1.
         -5    1    3    3    0  502 -0.51572410555E+02  0.53632847077E+01 -0.72747019181E+02  0.89431982830E+02  0.41800000000E+01 0.  1.
        -11    1    1    2    0    0 -0.13833503950E+02  0.62225902658E+02 -0.10447986565E+03  0.12239064964E+03  0.00000000000E+00 0. -1.
         11    1    1    2    0    0  0.31368681383E+02 -0.17719509627E+02 -0.10421720225E+03  0.11026876457E+03  0.00000000000E+00 0.  1.
</event>
<event>
 7    1  0.2490079E-009  0.8786327E+02  0.7561462E-02  0.1308110E+00
         -1   -1    0    0    0  501 -0.00000000000E+00  0.00000000000E+00  0.25477040085E+02  0.25477040085E+02  0.00000000000E+00 0.  1.
          1   -1    0    0  501    0  0.00000000000E+00 -0.00000000000E+00 -0.60483618734E+03  0.60483618734E+03  0.00000000000E+00 0. -1.
         25    2    1    2    0    0 -0.59087718070E+01  0.18166723583E+02 -0.38758227308E+03  0.40771643350E+03  0.12509088020E+03 0.  0.
          5    1    3    3  502    0 -0.14462196526E+01  0.50337116919E+02 -0.59748875712E+02  0.78251628991E+02  0.41800000000E+01 0. -1.
         -5    1    3    3    0  502 -0.44625521544E+01 -0.32170393336E+02 -0.32783339737E+03  0.32946480451E+03  0.41800000000E+01 0. -1.
        -11    1    1    2    0    0  0.82655464657E+01 -0.54961219169E+02 -0.17200157587E+03  0.18075839392E+03  0.00000000000E+00 0. -1.
         11    1    1    2    0    0 -0.23567746587E+01  0.36794495586E+02 -0.19775298310E+02  0.41838400010E+02  0.00000000000E+00 0.  1.
</event>
<event>
 7    1  0.2490079E-009  0.1670761E+03  0.7561462E-02  0.1180932E+00
          1   -1    0    0  501    0  0.00000000000E+00  0.00000000000E+00  0.61330269346E+02  0.61330269346E+02  0.00000000000E+00 0. -1.
         -1   -1    0    0    0  501 -0.00000000000E+00 -0.00000000000E+00 -0.76788260383E+03  0.76788260383E+03  0.00000000000E+00 0.  1.
         25    2    1    2    0    0 -0.13246430069E+03  0.61359783942E+02 -0.59248757424E+03  0.62289587665E+03  0.12508370587E+03 0.  0.
          5    1    3    3  502    0 -0.11754641942E+03 -0.71779366931E+01 -0.30570497652E+03  0.32763041459E+03  0.41800000000E+01 0. -1.
         -5    1    3    3    0  502 -0.14917881270E+02  0.68537720635E+02 -0.28678259771E+03  0.29526546205E+03  0.41800000000E+01 0. -1.
        -11    1    1    2    0    0  0.65389709722E+02 -0.32597665530E+02 -0.26316319343E+01  0.73111882906E+02  0.00000000000E+00 0. -1.
         11    1    1    2    0    0  0.67074590972E+02 -0.28762118412E+02 -0.11143312831E+03  0.13320511362E+03  0.00000000000E+00 0.  1.
</event>
<event>
 7    1  0.2490079E-009  0.2187809E+03  0.7561462E-02  0.1134795E+00
         -2   -1    0    0    0  501 -0.00000000000E+00  0.00000000000E+00  0.14274442174E+03  0.14274442174E+03  0.00000000000E+00 0.  1.
          2   -1    0    0  501    0  0.00000000000E+00 -0.00000000000E+00 -0.41383018143E+03  0.41383018143E+03  0.00000000000E+00 0. -1.
         25    2    1    2    0    0  0.20962534179E+03 -0.13775933541E+01 -0.20443619149E+03  0.31841251352E+03  0.12509072986E+03 0.  0.
          5    1    3    3  502    0  0.11398942621E+03 -0.39166126176E+00 -0.27649897626E+02  0.11737006401E+03  0.41800000000E+01 0. -1.
         -5    1    3    3    0  502  0.95635915577E+02 -0.98593209235E+00 -0.17678629386E+03  0.20104244952E+03  0.41800000000E+01 0. -1.
        -11    1    1    2    0    0 -0.69011260560E+01  0.22883130458E+02 -0.13647464355E+02  0.27523017344E+02  0.00000000000E+00 0. -1.
         11    1    1    2    0    0 -0.20272421573E+03 -0.21505537104E+02 -0.53002103843E+02  0.21063907230E+03  0.00000000000E+00 0.  1.
</event>
<event>
 7    1  0.2490079E-009  0.1213903E+03  0.7561462E-02  0.1240821E+00
          1   -1    0    0  501    0  0.00000000000E+00  0.00000000000E+00  0.33039896153E+02  0.33039896153E+02  0.00000000000E+00 0. -1.
         -1   -1    0    0    0  501 -0.00000000000E+00 -0.00000000000E+00 -0.56016139166E+03  0.56016139166E+03  0.00000000000E+00 0.  1.
         25    2    1    2    0    0  0.19636516326E+02 -0.78720243724E+02 -0.31449512130E+03  0.34804862505E+03  0.12509274371E+03 0.  0.
          5    1    3    3  502    0  0.60152950512E+02 -0.53501200225E+02 -0.10090190359E+03  0.12914883828E+03  0.41800000000E+01 0. -1.
         -5    1    3    3    0  502 -0.40516434185E+02 -0.25219043498E+02 -0.21359321771E+03  0.21889978676E+03  0.41800000000E+01 0. -1.
        -11    1    1    2    0    0 -0.47360305513E+02  0.24400105380E+02 -0.57090384016E+02  0.78087615074E+02  0.00000000000E+00 0. -1.
         11    1    1    2    0    0  0.27723789187E+02  0.54320138343E+02 -0.15553599019E+03  0.16706504769E+03  0.00000000000E+00 0.  1.
</event>
<event>
 7    1  0.2490079E-009  0.8647751E+02  0.7561462E-02  0.1311613E+00
         -1   -1    0    0    0  501 -0.00000000000E+00  0.00000000000E+00  0.94571439401E+02  0.94571439401E+02  0.00000000000E+00 0.  1.
          1   -1    0    0  501    0  0.00000000000E+00 -0.00000000000E+00 -0.15272273583E+03  0.15272273583E+03  0.00000000000E+00 0. -1.
         25    2    1    2    0    0  0.27955161377E+02  0.38470595121E+02 -0.56751337303E+02  0.14535876845E+03  0.12508788727E+03 0.  0.
          5    1    3    3  502    0 -0.21057415611E+01 -0.37166839545E+02 -0.51509827450E+02  0.63690994915E+02  0.41800000000E+01 0. -1.
         -5    1    3    3    0  502  0.30060902938E+02  0.75637434666E+02 -0.52415098528E+01  0.81667773533E+02  0.41800000000E+01 0. -1.
        -11    1    1    2    0    0 -0.32242927854E+02 -0.28085557894E+02  0.40294205079E+02  0.58753960903E+02  0.00000000000E+00 0.  1.
         11    1    1    2    0    0  0.42877664779E+01 -0.10385037227E+02 -0.41694164207E+02  0.43181445883E+02  0.00000000000E+00 0. -1.
</event>
<event>
 7    1  0.2490079E-009  0.1207452E+03  0.7561462E-02  0.1241873E+00
          2   -1    0    0  501    0  0.00000000000E+00  0.00000000000E+00  0.80232840763E+03  0.80232840763E+03  0.00000000000E+00 0. -1.
         -2   -1    0    0    0  501 -0.00000000000E+00 -0.00000000000E+00 -0.27537442222E+02  0.27537442222E+02  0.00000000000E+00 0.  1.
         25    2    1    2    0    0 -0.99210272285E+02  0.12206960202E+02  0.39532339282E+03  0.42652541575E+03  0.12510658403E+03 0.  0.
          5    1    3    3  502    0 -0.87629683990E+02  0.22313473770E+02  0.39984782621E+03  0.40996659516E+03  0.41800000000E+01 0.  1.
         -5    1    3    3    0  502 -0.11580588295E+02 -0.10106513568E+02 -0.45244333873E+01  0.16558820587E+02  0.41800000000E+01 0.  1.
        -11    1    1    2    0    0  0.43325117160E+02 -0.51068274088E+02  0.21960132181E+03  0.22958609482E+03  0.00000000000E+00 0. -1.
         11    1    1    2    0    0  0.55885155126E+02  0.38861313886E+02  0.15986625078E+03  0.17375433928E+03  0.00000000000E+00 0.  1.
</event>
<event>
 7    1  0.2490079E-009  0.4432360E+03  0.7561462E-02  0.1029759E+00
         -1   -1    0    0    0  501 -0.00000000000E+00  0.00000000000E+00  0.73724632544E+02  0.73724632544E+02  0.00000000000E+00 0.  1.
          1   -1    0    0  501    0  0.00000000000E+00 -0.00000000000E+00 -0.28523462039E+04  0.28523462039E+04  0.00000000000E+00 0. -1.
         25    2    1    2    0    0  0.31284092115E+03 -0.31042012079E+03 -0.16052467679E+04  0.16693394496E+04  0.12508764399E+03 0.  0.
          5    1    3    3  502    0  0.92595845985E+02 -0.11898322016E+03 -0.76841058579E+03  0.78307298391E+03  0.41800000000E+01 0. -1.
         -5    1    3    3    0  502  0.22024507517E+03 -0.19143690063E+03 -0.83683618216E+03  0.88626646570E+03  0.41800000000E+01 0. -1.
        -11    1    1    2    0    0 -0.21522036059E+03  0.17802633329E+03 -0.83534207868E+03  0.88080052643E+03  0.00000000000E+00 0. -1.
         11    1    1    2    0    0 -0.97620560566E+02  0.13239378750E+03 -0.33803272474E+03  0.37593086041E+03  0.00000000000E+00 0.  1.
</event>
<event>
 7    1  0.2490079E-009  0.7828341E+02  0.7561462E-02  0.1333995E+00
          2   -1    0    0  501    0  0.00000000000E+00  0.00000000000E+00  0.15545496969E+03  0.15545496969E+03  0.00000000000E+00 0. -1.
         -2   -1    0    0    0  501 -0.00000000000E+00 -0.00000000000E+00 -0.97555652463E+02  0.97555652463E+02  0.00000000000E+00 0.  1.
         25    2    1    2    0    0  0.23640127560E+02  0.47650665272E+02  0.75079831584E+01  0.13613396624E+03  0.12508655172E+03 0.  0.
          5    1    3    3  502    0  0.16805367668E+02  0.47854396889E+02  0.62478538680E+02  0.80582280184E+02  0.41800000000E+01 0. -1.
         -5    1    3    3    0  502  0.68347598925E+01 -0.20373161688E+00 -0.54970555522E+02  0.55551686057E+02  0.41800000000E+01 0. -1.
        -11    1    1    2    0    0  0.28739009181E+02 -0.31137532936E+01 -0.40354523797E+01  0.29187514183E+02  0.00000000000E+00 0.  1.
         11    1    1    2    0    0 -0.52379136742E+02 -0.44536911978E+02  0.54426786453E+02  0.87689141733E+02  0.00000000000E+00 0. -1.
</event>
<event>
 7    1  0.2490079E-009  0.9154805E+02  0.7561462E-02  0.1299146E+00
         -1   -1    0    0    0  501 -0.00000000000E+00  0.00000000000E+00  0.66921297458E+02  0.66921297458E+02  0.00000000000E+00 0.  1.
          1   -1    0    0  501    0  0.00000000000E+00 -0.00000000000E+00 -0.23904801064E+03  0.23904801064E+03  0.00000000000E+00 0. -1.
         25    2    1    2    0    0  0.37740211905E+02  0.51890807783E+02 -0.90165591976E+02  0.16701648368E+03  0.12509073633E+03 0.  0.
          5    1    3    3  502    0  0.37239059567E+01 -0.32400643565E+01 -0.10099687318E+03  0.10120378592E+03  0.41800000000E+01 0. -1.
         -5    1    3    3    0  502  0.34016305948E+02  0.55130872140E+02  0.10831281206E+02  0.65812697755E+02  0.41800000000E+01 0. -1.
        -11    1    1    2    0    0 -0.85690574558E+01  0.26615950628E+02 -0.15045564758E+02  0.31752269091E+02  0.00000000000E+00 0.  1.
         11    1    1    2    0    0 -0.29171154449E+02 -0.78506758411E+02 -0.66915556443E+02  0.10720055533E+03  0.00000000000E+00 0. -1.
</event>
<event>
 7    1  0.2490079E-009  0.1141566E+03  0.7561462E-02  0.1253060E+00
          1   -1    0    0  501    0  0.00000000000E+00  0.00000000000E+00  0.13448808467E+04  0.13448808467E+04  0.00000000000E+00 0. -1.
         -1   -1    0    0    0  501 -0.00000000000E+00 -0.00000000000E+00 -0.15966767155E+02  0.15966767155E+02  0.00000000000E+00 0.  1.
         25    2    1    2    0    0 -0.58368895521E+02  0.47587711716E+02  0.10129369546E+04  0.10234065777E+04  0.12509288929E+03 0.  0.
          5    1    3    3  502    0 -0.83386985617E+02  0.11398724643E+02  0.86267148386E+03  0.86677729652E+03  0.41800000000E+01 0. -1.
         -5    1    3    3    0  502  0.25018090097E+02  0.36188987072E+02  0.15026547078E+03  0.15662928119E+03  0.41800000000E+01 0. -1.
        -11    1    1    2    0    0  0.50857412000E+02  0.82301671453E+00  0.25079698791E+03  0.25590287778E+03  0.00000000000E+00 0. -1.
         11    1    1    2    0    0  0.75114835212E+01 -0.48410728430E+02  0.65180137017E+02  0.81538158388E+02  0.00000000000E+00 0.  1.
</event>
<event>
 7    1  0.2490079E-009  0.8265599E+02  0.7561462E-02  0.1321679E+00
         -2   -1    0    0    0  501 -0.00000000000E+00  0.00000000000E+00  0.77529962944E+02  0.77529962944E+02  0.00000000000E+00 0.  1.
          2   -1    0    0  501    0  0.00000000000E+00 -0.00000000000E+00 -0.15332189424E+03  0.15332189424E+03  0.00000000000E+00 0. -1.
         25    2    1    2    0    0  0.18232089336E+02 -0.10067084547E+02 -0.34744483656E+02  0.13148436599E+03  0.12508878480E+03 0.  0.
          5    1    3    3  502    0 -0.42158354054E+02 -0.31260084944E+02 -0.41434916242E+02  0.66998838880E+02  0.41800000000E+01 0.  1.
         -5    1    3    3    0  502  0.60390443390E+02  0.21193000398E+02  0.66904325855E+01  0.64485527111E+02  0.41800000000E+01 0.  1.
        -11    1    1    2    0    0 -0.30747148798E+02  0.16015244122E+02  0.17758001493E+02  0.38951531684E+02  0.00000000000E+00 0.  1.
         11    1    1    2    0    0  0.12515059462E+02 -0.59481595757E+01 -0.58805449130E+02  0.60415959506E+02  0.00000000000E+00 0. -1.
</event>
<event>
 7    1  0.2490079E-009  0.1363820E+03  0.7561462E-02  0.1218282E+00
         -3   -1    0    0    0  501 -0.00000000000E+00  0.00000000000E+00  0.54682833822E+02  0.54682833822E+02  0.00000000000E+00 0.  1.
          3   -1    0    0  501    0  0.00000000000E+00 -0.00000000000E+00 -0.34396834468E+03  0.34396834468E+03  0.00000000000E+00 0. -1.
         25    2    1    2    0    0  0.83089766383E+02  0.34971503644E+01 -0.15815563067E+03  0.21811882884E+03  0.12508589306E+03 0.  0.
          5    1    3    3  502    0  0.58780791606E+01  0.55834267383E+02 -0.50688635778E+02  0.75755048848E+02  0.41800000000E+01 0.  1.
         -5    1    3    3    0  502  0.77211687223E+02 -0.52337117019E+02 -0.10746699489E+03  0.14236377999E+03  0.41800000000E+01 0.  1.
        -11    1    1    2    0    0  0.31315834887E+01  0.30317565939E+02 -0.23143554016E+02  0.38269906090E+02  0.00000000000E+00 0.  1.
         11    1    1    2    0    0 -0.86221349872E+02 -0.33814716304E+02 -0.10798632618E+03  0.14226244358E+03  0.00000000000E+00 0. -1.
</event>
<event>
 7    1  0.2490079E-009  0.1137215E+03  0.7561462E-02  0.1253829E+00
          3   -1    0    0  501    0  0.00000000000E+00  0.00000000000E+00  0.13513392782E+03  0.13513392782E+03  0.00000000000E+00 0. -1.
         -3   -1    0    0    0  501 -0.00000000000E+00 -0.00000000000E+00 -0.10909906098E+03  0.10909906098E+03  0.00000000000E+00 0.  1.
         25    2    1    2    0    0  0.37145004329E+02  0.41888041735E+02  0.71499174622E+01  0.13722995179E+03  0.12508628607E+03 0.  0.
          5    1    3    3  502    0 -0.93115533016E+01  0.71702791063E+02  0.28589942763E+02  0.77864321087E+02  0.41800000000E+01 0. -1.
         -5    1    3    3    0  502  0.46456557630E+02 -0.29814749328E+02 -0.21440025301E+02  0.59365630707E+02  0.41800000000E+01 0. -1.
        -11    1    1    2    0    0 -0.59626781404E+02 -0.97212580430E+01 -0.57182254316E+01  0.60684050793E+02  0.00000000000E+00 0. -1.
         11    1    1    2    0    0  0.22481777075E+02 -0.32166783692E+02  0.24603174805E+02  0.46318986216E+02  0.00000000000E+00 0.  1.
</event>
<event>
 7    1  0.2490079E-009  0.1311008E+03  0.7561462E-02  0.1225831E+00
          1   -1    0    0  501    0  0.00000000000E+00  0.00000000000E+00  0.10079021746E+04  0.10079021746E+04  0.00000000000E+00 0. -1.
         -1   -1    0    0    0  501 -0.00000000000E+00 -0.00000000000E+00 -0.18857073145E+02  0.18857073145E+02  0.00000000000E+00 0.  1.
         25    2    1    2    0    0 -0.83850227655E+02  0.17229546859E+02  0.52012127236E+03  0.54175767253E+03  0.12509004686E+03 0.  0.
          5    1    3    3  502    0 -0.94316985781E+02  0.50100261001E+02  0.29080987854E+03  0.30982831990E+03  0.41800000000E+01 0.  1.
         -5    1    3    3    0  502  0.10466758126E+02 -0.32870714142E+02  0.22931139383E+03  0.23192935263E+03  0.41800000000E+01 0.  1.
        -11    1    1    2    0    0 -0.58995796640E+01 -0.29414121060E+02  0.17109121520E+03  0.17370146654E+03  0.00000000000E+00 0.  1.
         11    1    1    2    0    0  0.89749807319E+02  0.12184574200E+02  0.29783261384E+03  0.31130010862E+03  0.00000000000E+00 0. -1.
</event>
<event>
 7    1  0.2490079E-009  0.2767082E+03  0.7561462E-02  0.1097501E+00
         -1   -1    0    0    0  501 -0.00000000000E+00  0.00000000000E+00  0.12226263089E+03  0.12226263089E+03  0.00000000000E+00 0.  1.
          1   -1    0    0  501    0  0.00000000000E+00 -0.00000000000E+00 -0.97787635127E+03  0.97787635127E+03  0.00000000000E+00 0. -1.
         25    2    1    2    0    0 -0.25467013199E+03 -0.60239146569E+02 -0.12004881743E+03  0.31391873178E+03  0.12509045003E+03 0.  0.
          5    1    3    3  502    0 -0.70954537016E+02 -0.77080527410E+02 -0.33286551340E+02  0.11000645858E+03  0.41800000000E+01 0.  1.
         -5    1    3    3    0  502 -0.18371559497E+03  0.16841380842E+02 -0.86762266086E+02  0.20391227320E+03  0.41800000000E+01 0.  1.
        -11    1    1    2    0    0  0.18548359975E+03  0.59668355076E+02 -0.63448338780E+03  0.66372708831E+03  0.00000000000E+00 0. -1.
         11    1    1    2    0    0  0.69186532243E+02  0.57079149299E+00 -0.10108151516E+03  0.12249316207E+03  0.00000000000E+00 0.  1.
</event>
<event>
 7    1  0.2490079E-009  0.1271993E+03  0.7561462E-02  0.1231672E+00
         -1   -1    0    0    0  501 -0.00000000000E+00  0.00000000000E+00  0.86505040297E+02  0.86505040297E+02  0.00000000000E+00 0.  1.
          1   -1    0    0  501    0  0.00000000000E+00 -0.00000000000E+00 -0.41734783160E+03  0.41734783160E+03  0.00000000000E+00 0. -1.
         25    2    1    2    0    0 -0.99792599719E+02 -0.44826402561E+02 -0.32572596620E+03  0.36566750229E+03  0.12508935945E+03 0.  0.
          5    1    3    3  502    0 -0.30854595181E+02 -0.44829276327E+02 -0.30612156419E+02  0.62579921544E+02  0.41800000000E+01 0.  1.
         -5    1    3    3    0  502 -0.68938004538E+02  0.28737662311E-02 -0.29511380978E+03  0.30308758075E+03  0.41800000000E+01 0.  1.
        -11    1    1    2    0    0  0.47101301049E+02 -0.16491867782E+02  0.19642703747E+02  0.53631614501E+02  0.00000000000E+00 0.  1.
         11    1    1    2    0    0  0.52691298670E+02  0.61318270343E+02 -0.24759528844E+02  0.84553755103E+02  0.00000000000E+00 0. -1.
</event>
<event>
 7    1  0.2490079E-009  0.1286701E+03  0.7561462E-02  0.1229443E+00
         -1   -1    0    0    0  501 -0.00000000000E+00  0.00000000000E+00  0.58634695115E+02  0.58634695115E+02  0.00000000000E+00 0.  1.
          1   -1    0    0  501    0  0.00000000000E+00 -0.00000000000E+00 -0.43901476679E+03  0.43901476679E+03  0.00000000000E+00 0. -1.
         25    2    1    2    0    0  0.77936959785E+02  0.56560458700E+02 -0.98187593695E+02  0.18590954311E+03  0.12509316318E+03 0.  0.
          5    1    3    3  502    0  0.43676678214E+02 -0.32288047152E+02 -0.86967943029E+01  0.55165902873E+02  0.41800000000E+01 0.  1.
         -5    1    3    3    0  502  0.34260281571E+02  0.88848505852E+02 -0.89490799392E+02  0.13074364023E+03  0.41800000000E+01 0.  1.
        -11    1    1    2    0    0 -0.51530560436E+02 -0.61966547113E+02 -0.27069217707E+03  0.28243495950E+03  0.00000000000E+00 0. -1.
         11    1    1    2    0    0 -0.26406399349E+02  0.54060884125E+01 -0.11500300909E+02  0.29304959299E+02  0.00000000000E+00 0.  1.
</event>
<event>
 7    1  0.2490079E-009  0.8511361E+02  0.7561462E-02  0.1315136E+00
          2   -1    0    0  501    0  0.00000000000E+00  0.00000000000E+00  0.27969989324E+03  0.27969989324E+03  0.00000000000E+00 0.  1.
         -2   -1    0    0    0  501 -0.00000000000E+00 -0.00000000000E+00 -0.50283940916E+02  0.50283940916E+02  0.00000000000E+00 0. -1.
         25    2    1    2    0    0  0.36323704094E+02 -0.25355896841E+02  0.10405420364E+03  0.16864129090E+03  0.12510105802E+03 0.  0.
          5    1    3    3  502    0 -0.30068197038E+01  0.30991411956E+02 -0.12061061211E+02  0.33651897083E+02  0.41800000000E+01 0.  1.
         -5    1    3    3    0  502  0.39330523798E+02 -0.56347308797E+02  0.11611526486E+03  0.13498939382E+03  0.41800000000E+01 0.  1.
        -11    1    1    2    0    0 -0.24955531820E+02  0.42565944088E+02  0.18798772339E+02  0.52801818207E+02  0.00000000000E+00 0. -1.
         11    1    1    2    0    0 -0.11368172274E+02 -0.17210047247E+02  0.10656297634E+03  0.10854072505E+03  0.00000000000E+00 0.  1.
</event>
<event>
 7    1  0.2490079E-009  0.1181635E+03  0.7561462E-02  0.1246158E+00
         -2   -1    0    0    0  501 -0.00000000000E+00  0.00000000000E+00  0.53412247290E+02  0.53412247290E+02  0.00000000000E+00 0.  1.
          2   -1    0    0  501    0  0.00000000000E+00 -0.00000000000E+00 -0.27614828627E+03  0.27614828627E+03  0.00000000000E+00 0. -1.
         25    2    1    2    0    0  0.47582688318E+02  0.29103609642E+02 -0.11814144394E+03  0.18087566220E+03  0.12508985601E+03 0.  0.
          5    1    3    3  502    0 -0.34643013657E+02 -0.15152527288E+02 -0.13023654761E+02  0.40209768238E+02  0.41800000000E+01 0.  1.
         -5    1    3    3    0  502  0.82225701975E+02  0.44256136930E+02 -0.10511778918E+03  0.14066589396E+03  0.41800000000E+01 0.  1.
        -11    1    1    2    0    0 -0.67212636240E+02  0.28919353192E+01 -0.75990598067E+02  0.10149124472E+03  0.00000000000E+00 0. -1.
         11    1    1    2    0    0  0.19629947922E+02 -0.31995544961E+02 -0.28603996970E+02  0.47193626640E+02  0.00000000000E+00 0.  1.
</event>
<event>
 7    1  0.2490079E-009  0.7380602E+02  0.7561462E-02  0.1347609E+00
         -2   -1    0    0    0  501 -0.00000000000E+00  0.00000000000E+00  0.67411132996E+02  0.67411132996E+02  0.00000000000E+00 0.  1.
          2   -1    0    0  501    0  0.00000000000E+00 -0.00000000000E+00 -0.28425454273E+03  0.28425454273E+03  0.00000000000E+00 0. -1.
         25    2    1    2    0    0 -0.36892975051E+02 -0.75178426112E+01 -0.21659539179E+03  0.25294154983E+03  0.12509298270E+03 0.  0.
          5    1    3    3  502    0 -0.39870576201E+02  0.15491948173E+02 -0.88718199923E+01  0.43884449350E+02  0.41800000000E+01 0.  1.
         -5    1    3    3    0  502  0.29776011503E+01 -0.23009790784E+02 -0.20772357179E+03  0.20905710048E+03  0.41800000000E+01 0.  1.
        -11    1    1    2    0    0  0.54005550104E+02 -0.11770400197E+02 -0.27045761303E+02  0.61535477306E+02  0.00000000000E+00 0. -1.
         11    1    1    2    0    0 -0.17112575053E+02  0.19288242808E+02  0.26797743353E+02  0.37188648596E+02  0.00000000000E+00 0.  1.
</event>
<event>
 7    1  0.2490079E-009  0.9978204E+02  0.7561462E-02  0.1280755E+00
          1   -1    0    0  501    0  0.00000000000E+00  0.00000000000E+00  0.63436911947E+03  0.63436911947E+03  0.00000000000E+00 0.  1.
         -1   -1    0    0    0  501 -0.00000000000E+00 -0.00000000000E+00 -0.19982890239E+02  0.19982890239E+02  0.00000000000E+00 0. -1.
         25    2    1    2    0    0  0.11958481476E+02 -0.20437567242E+02  0.41357831750E+03  0.43272855340E+03  0.12508507820E+03 0.  0.
          5    1    3    3  502    0 -0.63702570417E+01  0.50642591419E+02  0.21386407627E+03  0.21991036301E+03  0.41800000000E+01 0.  1.
         -5    1    3    3    0  502  0.18328738518E+02 -0.71080158661E+02  0.19971424123E+03  0.21281819039E+03  0.41800000000E+01 0.  1.
        -11    1    1    2    0    0  0.29379249592E+02  0.16640507842E+01  0.15256415335E+03  0.15537609295E+03  0.00000000000E+00 0.  1.
         11    1    1    2    0    0 -0.41337731069E+02  0.18773516457E+02  0.48243758388E+02  0.66247363370E+02  0.00000000000E+00 0. -1.
</event>
<event>
 7    1  0.2490079E-009  0.1114535E+03  0.7561462E-02  0.1257902E+00
         -2   -1    0    0    0  501 -0.00000000000E+00  0.00000000000E+00  0.40151719009E+02  0.40151719009E+02  0.00000000000E+00 0.  1.
          2   -1    0    0  501    0  0.00000000000E+00 -0.00000000000E+00 -0.43076897321E+03  0.43076897321E+03  0.00000000000E+00 0. -1.
         25    2    1    2    0    0 -0.42945592203E+02 -0.61074957521E+02 -0.21669866103E+03  0.26111374420E+03  0.12509038089E+03 0.  0.
          5    1    3    3  502    0 -0.40902315808E+02 -0.84531887782E+02 -0.83331221287E+02  0.12561928328E+03  0.41800000000E+01 0. -1.
         -5    1    3    3    0  502 -0.20432763952E+01  0.23456930261E+02 -0.13336743974E+03  0.13549446092E+03  0.41800000000E+01 0. -1.
        -11    1    1    2    0    0  0.51078937647E+02  0.84868655849E+01 -0.13286464920E+03  0.14259768499E+03  0.00000000000E+00 0. -1.
         11    1    1    2    0    0 -0.81333454432E+01  0.52588091936E+02 -0.41053943975E+02  0.67209263033E+02  0.00000000000E+00 0.  1.
</event>
<event>
 7    1  0.2490079E-009  0.1843634E+03  0.7561462E-02  0.1163646E+00
          2   -1    0    0  501    0  0.00000000000E+00  0.00000000000E+00  0.17067243884E+04  0.17067243884E+04  0.00000000000E+00 0. -1.
         -2   -1    0    0    0  501 -0.00000000000E+00 -0.00000000000E+00 -0.24621459523E+02  0.24621459523E+02  0.00000000000E+00 0.  1.
         25    2    1    2    0    0 -0.16531448618E+03  0.28017678221E+02  0.10655923806E+04  0.10859313625E+04  0.12508370339E+03 0.  0.
          5    1    3    3  502    0 -0.11702232809E+03  0.49326379891E+02  0.95388167341E+03  0.96230714239E+03  0.41800000000E+01 0.  1.
         -5    1    3    3    0  502 -0.48292158088E+02 -0.21308701670E+02  0.11171070720E+03  0.12362422013E+03  0.41800000000E+01 0.  1.
        -11    1    1    2    0    0  0.16197235223E+03 -0.14916141483E+01  0.48893883838E+03  0.51507131106E+03  0.00000000000E+00 0.  1.
         11    1    1    2    0    0  0.33421339482E+01 -0.26526064073E+02  0.12757170985E+03  0.13034317430E+03  0.00000000000E+00 0. -1.
</event>
<event>
 7    1  0.2490079E-009  0.1578705E+03  0.7561462E-02  0.1191122E+00
          1   -1    0    0  501    0  0.00000000000E+00  0.00000000000E+00  0.40707722869E+03  0.40707722869E+03  0.00000000000E+00 0. -1.
         -1   -1    0    0    0  501 -0.00000000000E+00 -0.00000000000E+00 -0.70071441958E+02  0.70071441958E+02  0.00000000000E+00 0.  1.
         25    2    1    2    0    0  0.11304822721E+03  0.62148438666E+02  0.15110586832E+03  0.23478175495E+03  0.12508860425E+03 0.  0.
          5    1    3    3  502    0  0.12155600368E+03  0.25210474571E+02  0.64082224758E+02  0.13976921688E+03  0.41800000000E+01 0.  1.
         -5    1    3    3    0  502 -0.85077764675E+01  0.36937964095E+02  0.87023643558E+02  0.95012538067E+02  0.41800000000E+01 0.  1.
        -11    1    1    2    0    0  0.97995419038E+01 -0.22111449265E+02  0.16338765948E+02  0.29187368550E+02  0.00000000000E+00 0. -1.
         11    1    1    2    0    0 -0.12284776911E+03 -0.40036989400E+02  0.16956115247E+03  0.21317954715E+03  0.00000000000E+00 0.  1.
</event>
<event>
 7    1  0.2490079E-009  0.4085392E+03  0.7561462E-02  0.1040862E+00
          2   -1    0    0  501    0  0.00000000000E+00  0.00000000000E+00  0.16321446628E+03  0.16321446628E+03  0.00000000000E+00 0. -1.
         -2   -1    0    0    0  501 -0.00000000000E+00 -0.00000000000E+00 -0.14251889910E+04  0.14251889910E+04  0.00000000000E+00 0.  1.
         25    2    1    2    0    0  0.21154918675E+03  0.33967787048E+03 -0.10364061999E+04  0.11179977414E+04  0.12508806746E+03 0.  0.
          5    1    3    3  502    0  0.20502009053E+03  0.34355210482E+03 -0.10344285643E+04  0.11091082965E+04  0.41800000000E+01 0.  1.
         -5    1    3    3    0  502  0.65290962252E+01 -0.38742343368E+01 -0.19776355464E+01  0.88894449528E+01  0.41800000000E+01 0.  1.
        -11    1    1    2    0    0 -0.16231451975E+03 -0.31234105095E+03 -0.16857211752E+03  0.39028130142E+03  0.00000000000E+00 0. -1.
         11    1    1    2    0    0 -0.49234667000E+02 -0.27336819532E+02 -0.56996207355E+02  0.80124414442E+02  0.00000000000E+00 0.  1.
</event>
<event>
 7    1  0.2490079E-009  0.1077519E+03  0.7561462E-02  0.1264791E+00
          2   -1    0    0  501    0  0.00000000000E+00  0.00000000000E+00  0.17776870489E+03  0.17776870489E+03  0.00000000000E+00 0.  1.
         -2   -1    0    0    0  501 -0.00000000000E+00 -0.00000000000E+00 -0.87802456097E+02  0.87802456097E+02  0.00000000000E+00 0. -1.
         25    2    1    2    0    0 -0.61060687761E+02  0.13016079938E+02  0.56183805359E+02  0.15067079344E+03  0.12508893670E+03 0.  0.
          5    1    3    3  502    0 -0.56672613869E+02 -0.41438850909E+02  0.64285282991E+02  0.95283962641E+02  0.41800000000E+01 0. -1.
         -5    1    3    3    0  502 -0.43880738919E+01  0.54454930847E+02 -0.81014776329E+01  0.55386830798E+02  0.41800000000E+01 0. -1.
        -11    1    1    2    0    0  0.58527546036E+02 -0.35038523764E+02 -0.69083271654E+01  0.68563086109E+02  0.00000000000E+00 0. -1.
         11    1    1    2    0    0  0.25331417248E+01  0.22022443826E+02  0.40690770595E+02  0.46337281434E+02  0.00000000000E+00 0.  1.
</event>
<event>
 7    1  0.2490079E-009  0.1116470E+03  0.7561462E-02  0.1257550E+00
         -1   -1    0    0    0  501 -0.00000000000E+00  0.00000000000E+00  0.42318669259E+02  0.42318669259E+02  0.00000000000E+00 0.  1.
          1   -1    0    0  501    0  0.00000000000E+00 -0.00000000000E+00 -0.41387524802E+03  0.41387524802E+03  0.00000000000E+00 0. -1.
         25    2    1    2    0    0  0.21060411952E+02 -0.35964978737E+02 -0.99222236544E+02  0.16501533676E+03  0.12509192017E+03 0.  0.
          5    1    3    3  502    0  0.49364319830E+02  0.27729852846E+02 -0.21952384763E+02  0.60870028815E+02  0.41800000000E+01 0.  1.
         -5    1    3    3    0  502 -0.28303907879E+02 -0.63694831583E+02 -0.77269851782E+02  0.10414530794E+03  0.41800000000E+01 0.  1.
        -11    1    1    2    0    0 -0.19158078633E+02 -0.27327268616E+02 -0.50876212953E+02  0.60845711693E+02  0.00000000000E+00 0.  1.
         11    1    1    2    0    0 -0.19023333190E+01  0.63292247353E+02 -0.22145812926E+03  0.23033286883E+03  0.00000000000E+00 0. -1.
</event>
<event>
 7    1  0.2649615E-009  0.8615681E+02  0.7561462E-02  0.1312435E+00
         -2   -1    0    0    0  501 -0.00000000000E+00  0.00000000000E+00  0.41203121696E+02  0.41203121696E+02  0.00000000000E+00 0. -1.
          2   -1    0    0  501    0  0.00000000000E+00 -0.00000000000E+00 -0.39149264828E+03  0.39149264828E+03  0.00000000000E+00 0.  1.
         25    2    1    2    0    0 -0.36761090466E+02 -0.11888459928E+02 -0.28653725645E+03  0.31502394993E+03  0.12507508325E+03 0.  0.
          5    1    3    3  502    0 -0.72519052620E+02 -0.32721124556E+02 -0.12510059558E+03  0.14831492305E+03  0.41800000000E+01 0.  1.
         -5    1    3    3    0  502  0.35757962154E+02  0.20832664628E+02 -0.16143666086E+03  0.16670902688E+03  0.41800000000E+01 0.  1.
        -11    1    1    2    0    0  0.29314346459E+02 -0.75187148732E+01  0.16708509098E+02  0.34569296463E+02  0.00000000000E+00 0. -1.
         11    1    1    2    0    0  0.74467440070E+01  0.19407174801E+02 -0.80460779236E+02  0.83102523580E+02  0.00000000000E+00 0.  1.
</event>
<event>
 7    1  0.3265996E-009  0.1317983E+03  0.7561462E-02  0.1224812E+00
          1   -1    0    0  501    0  0.00000000000E+00  0.00000000000E+00  0.74836520552E+03  0.74836520552E+03  0.00000000000E+00 0. -1.
         -1   -1    0    0    0  501 -0.00000000000E+00 -0.00000000000E+00 -0.37886069615E+02  0.37886069615E+02  0.00000000000E+00 0.  1.
         25    2    1    2    0    0  0.30000124174E+02  0.95639496090E+02  0.19090949816E+03  0.24928089404E+03  0.12509039524E+03 0.  0.
          5    1    3    3  502    0 -0.19366296892E+02  0.70026344851E+02  0.17761482587E+03  0.19194593301E+03  0.41800000000E+01 0.  1.
         -5    1    3    3    0  502  0.49366421066E+02  0.25613151238E+02  0.13294672289E+02  0.57334961032E+02  0.41800000000E+01 0.  1.
        -11    1    1    2    0    0 -0.46811622253E+02 -0.10120061342E+02  0.16193453497E+03  0.16886840212E+03  0.00000000000E+00 0.  1.
         11    1    1    2    0    0  0.16811498079E+02 -0.85519434747E+02  0.35763510277E+03  0.36810197897E+03  0.00000000000E+00 0. -1.
</event>
<event>
 7    1  0.2490079E-009  0.1593098E+03  0.7561462E-02  0.1189478E+00
         -2   -1    0    0    0  501 -0.00000000000E+00  0.00000000000E+00  0.15146635764E+03  0.15146635764E+03  0.00000000000E+00 0.  1.
          2   -1    0    0  501    0  0.00000000000E+00 -0.00000000000E+00 -0.18160028874E+03  0.18160028874E+03  0.00000000000E+00 0. -1.
         25    2    1    2    0    0 -0.11376053265E+03 -0.42383824284E+02  0.13762169238E+02  0.17485599802E+03  0.12508946955E+03 0.  0.
          5    1    3    3  502    0  0.22342643927E+02  0.68027271850E+01  0.18365885011E+02  0.30004149163E+02  0.41800000000E+01 0. -1.
         -5    1    3    3    0  502 -0.13610317657E+03 -0.49186551469E+02 -0.46037157725E+01  0.14485184886E+03  0.41800000000E+01 0. -1.
        -11    1    1    2    0    0  0.19638750158E+02  0.51920862724E+02 -0.28373526990E+02  0.62341908277E+02  0.00000000000E+00 0. -1.
         11    1    1    2    0    0  0.94121782490E+02 -0.95370384398E+01 -0.15522573352E+02  0.95868740081E+02  0.00000000000E+00 0.  1.
</event>
<event>
 7    1  0.2490079E-009  0.1111371E+03  0.7561462E-02  0.1258478E+00
          2   -1    0    0  501    0  0.00000000000E+00  0.00000000000E+00  0.10317556563E+03  0.10317556563E+03  0.00000000000E+00 0.  1.
         -2   -1    0    0    0  501 -0.00000000000E+00 -0.00000000000E+00 -0.15231810845E+03  0.15231810845E+03  0.00000000000E+00 0. -1.
         25    2    1    2    0    0 -0.50331551292E+02 -0.78395555887E+00 -0.72389222476E+02  0.15303854736E+03  0.12508684105E+03 0.  0.
          5    1    3    3  502    0  0.15872293906E+02  0.49052833888E+02 -0.24439811469E+02  0.57209151461E+02  0.41800000000E+01 0. -1.
         -5    1    3    3    0  502 -0.66203845198E+02 -0.49836789447E+02 -0.47949411007E+02  0.95829395894E+02  0.41800000000E+01 0. -1.
        -11    1    1    2    0    0  0.42706122352E+02 -0.32351273807E+02 -0.10448905848E+02  0.54585688937E+02  0.00000000000E+00 0. -1.
         11    1    1    2    0    0  0.76254289399E+01  0.33135229366E+02  0.33695585507E+02  0.47869437790E+02  0.00000000000E+00 0.  1.
</event>
<event>
 7    1  0.2490079E-009  0.1746407E+03  0.7561462E-02  0.1173093E+00
          1   -1    0    0  501    0  0.00000000000E+00  0.00000000000E+00  0.21249085692E+03  0.21249085692E+03  0.00000000000E+00 0. -1.
         -1   -1    0    0    0  501 -0.00000000000E+00 -0.00000000000E+00 -0.22551018317E+03  0.22551018317E+03  0.00000000000E+00 0.  1.
         25    2    1    2    0    0 -0.28967349962E+02 -0.15469604637E+03 -0.10990831146E+03  0.22912107475E+03  0.12508659338E+03 0.  0.
          5    1    3    3  502    0 -0.78644812228E+01 -0.13432577437E+03 -0.22066063957E+02  0.13641718111E+03  0.41800000000E+01 0.  1.
         -5    1    3    3    0  502 -0.21102868739E+02 -0.20370272005E+02 -0.87842247499E+02  0.92703893642E+02  0.41800000000E+01 0.  1.
        -11    1    1    2    0    0 -0.33097925574E+02  0.25772950940E+02  0.20826316085E+02  0.46834315615E+02  0.00000000000E+00 0. -1.
         11    1    1    2    0    0  0.62065275536E+02  0.12892309543E+03  0.76062669122E+02  0.16204564973E+03  0.00000000000E+00 0.  1.
</event>
<event>
 7    1  0.2490079E-009  0.7056975E+02  0.7561462E-02  0.1358166E+00
         -2   -1    0    0    0  501 -0.00000000000E+00  0.00000000000E+00  0.15494799712E+03  0.15494799712E+03  0.00000000000E+00 0.  1.
          2   -1    0    0  501    0  0.00000000000E+00 -0.00000000000E+00 -0.12034714593E+03  0.12034714593E+03  0.00000000000E+00 0. -1.
         25    2    1    2    0    0  0.23381321827E+02 -0.55772655825E+02  0.75756621787E+02  0.15825314261E+03  0.12509083121E+03 0.  0.
          5    1    3    3  502    0  0.20924962863E+02 -0.31912927548E+02  0.10984644109E+03  0.11636151441E+03  0.41800000000E+01 0. -1.
         -5    1    3    3    0  502  0.24563589635E+01 -0.23859728277E+02 -0.34089819305E+02  0.41891628198E+02  0.41800000000E+01 0. -1.
        -11    1    1    2    0    0 -0.17040998880E+02  0.65005681364E+02  0.70325454569E+01  0.67569156781E+02  0.00000000000E+00 0.  1.
         11    1    1    2    0    0 -0.63403229464E+01 -0.92330255394E+01 -0.48188316059E+02  0.49472843665E+02  0.00000000000E+00 0. -1.
</event>
<event>
 7    1  0.2490079E-009  0.1276397E+03  0.7561462E-02  0.1231001E+00
          4   -1    0    0  501    0  0.00000000000E+00  0.00000000000E+00  0.30891980964E+03  0.30891980964E+03  0.00000000000E+00 0.  1.
         -4   -1    0    0    0  501 -0.00000000000E+00 -0.00000000000E+00 -0.80290392835E+02  0.80290392835E+02  0.00000000000E+00 0. -1.
         25    2    1    2    0    0 -0.83992130527E+02 -0.26380262883E+02  0.21906732235E+03  0.26718544849E+03  0.12508787272E+03 0.  0.
          5    1    3    3  502    0 -0.90444617422E+02  0.22692864479E+02  0.93349631366E+02  0.13201068515E+03  0.41800000000E+01 0. -1.
         -5    1    3    3    0  502  0.64524868947E+01 -0.49073127362E+02  0.12571769099E+03  0.13517476334E+03  0.41800000000E+01 0. -1.
        -11    1    1    2    0    0  0.46897116304E+01  0.32398021987E+02  0.24773075941E+02  0.41052777195E+02  0.00000000000E+00 0.  1.
         11    1    1    2    0    0  0.79302418897E+02 -0.60177591048E+01 -0.15210981486E+02  0.80971976790E+02  0.00000000000E+00 0. -1.
</event>
<event>
 7    1  0.2490079E-009  0.1330464E+03  0.7561462E-02  0.1223004E+00
         -4   -1    0    0    0  501 -0.00000000000E+00  0.00000000000E+00  0.32971624187E+03  0.32971624187E+03  0.00000000000E+00 0.  1.
          4   -1    0    0  501    0  0.00000000000E+00 -0.00000000000E+00 -0.75480416272E+02  0.75480416272E+02  0.00000000000E+00 0. -1.
         25    2    1    2    0    0  0.70252300547E+02  0.75782953643E+02  0.20208756186E+03  0.25916326834E+03  0.12509106764E+03 0.  0.
          5    1    3    3  502    0  0.25762038240E+02  0.96521775313E+02  0.17837853993E+03  0.20449085953E+03  0.41800000000E+01 0.  1.
         -5    1    3    3    0  502  0.44490262307E+02 -0.20738821670E+02  0.23709021930E+02  0.54672408812E+02  0.41800000000E+01 0.  1.
        -11    1    1    2    0    0 -0.30616497131E+02 -0.70491290596E+02  0.68386888748E+02  0.10287447934E+03  0.00000000000E+00 0. -1.
         11    1    1    2    0    0 -0.39635803417E+02 -0.52916630475E+01 -0.16238625008E+02  0.43158910464E+02  0.00000000000E+00 0.  1.
</event>
<event>
 7    1  0.2490079E-009  0.1158723E+03  0.7561462E-02  0.1250066E+00
          3   -1    0    0  501    0  0.00000000000E+00  0.00000000000E+00  0.66398465836E+02  0.66398465836E+02  0.00000000000E+00 0. -1.
         -3   -1    0    0    0  501 -0.00000000000E+00 -0.00000000000E+00 -0.24486246049E+03  0.24486246049E+03  0.00000000000E+00 0.  1.
         25    2    1    2    0    0  0.61528285388E+02 -0.44363961131E+00 -0.75129868199E+02  0.15835829121E+03  0.12508766758E+03 0.  0.
          5    1    3    3  502    0  0.43095225891E+02  0.60668570873E+02 -0.31440813177E+02  0.80894197070E+02  0.41800000000E+01 0.  1.
         -5    1    3    3    0  502  0.18433059497E+02 -0.61112210484E+02 -0.43689055022E+02  0.77464094143E+02  0.41800000000E+01 0.  1.
        -11    1    1    2    0    0 -0.77266066435E+02  0.28642784801E+01 -0.11096475836E+03  0.13524580108E+03  0.00000000000E+00 0.  1.
         11    1    1    2    0    0  0.15737781047E+02 -0.24206388688E+01  0.76306318998E+01  0.17656834031E+02  0.00000000000E+00 0. -1.
</event>
<event>
 7    1  0.2490079E-009  0.1324649E+03  0.7561462E-02  0.1223843E+00
         -4   -1    0    0    0  501 -0.00000000000E+00  0.00000000000E+00  0.16899244382E+03  0.16899244382E+03  0.00000000000E+00 0. -1.
          4   -1    0    0  501    0  0.00000000000E+00 -0.00000000000E+00 -0.13659317209E+03  0.13659317209E+03  0.00000000000E+00 0.  1.
         25    2    1    2    0    0 -0.90160302625E+02  0.45275152212E+02  0.52618122778E+02  0.16909689827E+03  0.12508546911E+03 0.  0.
          5    1    3    3  502    0  0.16059837210E+02  0.71893293581E+01 -0.25880414882E+02  0.31573297299E+02  0.41800000000E+01 0.  1.
         -5    1    3    3    0  502 -0.10622013983E+03  0.38085822854E+02  0.78498537661E+02  0.13752360097E+03  0.41800000000E+01 0.  1.
        -11    1    1    2    0    0  0.94158491528E+02 -0.64601937477E+02 -0.11037666449E+02  0.11472167159E+03  0.00000000000E+00 0. -1.
         11    1    1    2    0    0 -0.39981889036E+01  0.19326785265E+02 -0.91811846013E+01  0.21767046053E+02  0.00000000000E+00 0.  1.
</event>
<event>
 7    1  0.2490079E-009  0.8009656E+02  0.7561462E-02  0.1328778E+00
          2   -1    0    0  501    0  0.00000000000E+00  0.00000000000E+00  0.14741387510E+03  0.14741387510E+03  0.00000000000E+00 0.  1.
         -2   -1    0    0    0  501 -0.00000000000E+00 -0.00000000000E+00 -0.11725017084E+03  0.11725017084E+03  0.00000000000E+00 0. -1.
         25    2    1    2    0    0  0.10824354805E+02  0.40480683080E+02  0.74592105638E+02  0.15154744560E+03  0.12508714437E+03 0.  0.
          5    1    3    3  502    0  0.38661321073E+02  0.40886871569E+02 -0.14378408425E+02  0.58229245596E+02  0.41800000000E+01 0. -1.
         -5    1    3    3    0  502 -0.27836966268E+02 -0.40618848899E+00  0.88970514063E+02  0.93318200008E+02  0.41800000000E+01 0. -1.
        -11    1    1    2    0    0  0.24748153735E+02 -0.47576022412E+01  0.19383269630E+02  0.31793348894E+02  0.00000000000E+00 0.  1.
         11    1    1    2    0    0 -0.35572508539E+02 -0.35723080839E+02 -0.63811671013E+02  0.81323251447E+02  0.00000000000E+00 0. -1.
</event>
<event>
 7    1  0.2490079E-009  0.1413503E+03  0.7561462E-02  0.1211524E+00
         -2   -1    0    0    0  501 -0.00000000000E+00  0.00000000000E+00  0.99343917019E+02  0.99343917019E+02  0.00000000000E+00 0.  1.
          2   -1    0    0  501    0  0.00000000000E+00 -0.00000000000E+00 -0.36964434021E+03  0.36964434021E+03  0.00000000000E+00 0. -1.
         25    2    1    2    0    0 -0.54855286436E+02 -0.12483402571E+03 -0.23478758207E+03  0.29894298891E+03  0.12509622496E+03 0.  0.
          5    1    3    3  502    0 -0.41630164984E+02 -0.10244505520E+03 -0.24643888392E+03  0.27014376891E+03  0.41800000000E+01 0. -1.
         -5    1    3    3    0  502 -0.13225121452E+02 -0.22388970510E+02  0.11651301849E+02  0.28799220002E+02  0.41800000000E+01 0. -1.
        -11    1    1    2    0    0  0.21003685925E+02  0.55713325461E+01  0.24128539543E+02  0.32471233257E+02  0.00000000000E+00 0.  1.
         11    1    1    2    0    0  0.33851600511E+02  0.11926269316E+03 -0.59641380664E+02  0.13757403507E+03  0.00000000000E+00 0. -1.
</event>
<event>
 7    1  0.2490079E-009  0.9456829E+02  0.7561462E-02  0.1292151E+00
          1   -1    0    0  501    0  0.00000000000E+00  0.00000000000E+00  0.31649251525E+03  0.31649251525E+03  0.00000000000E+00 0. -1.
         -1   -1    0    0    0  501 -0.00000000000E+00 -0.00000000000E+00 -0.42304811929E+02  0.42304811929E+02  0.00000000000E+00 0.  1.
         25    2    1    2    0    0  0.10115667677E+02 -0.51046423206E+02  0.14879493719E+03  0.20123826807E+03  0.12509533623E+03 0.  0.
          5    1    3    3  502    0  0.56668015624E+02 -0.12076922601E+01  0.30178354941E+02  0.64350042909E+02  0.41800000000E+01 0. -1.
         -5    1    3    3    0  502 -0.46552347948E+02 -0.49838730946E+02  0.11861658225E+03  0.13688822516E+03  0.41800000000E+01 0. -1.
        -11    1    1    2    0    0 -0.18992765473E+02  0.90275705727E+01 -0.38403636617E+01  0.21376869832E+02  0.00000000000E+00 0.  1.
         11    1    1    2    0    0  0.88770977970E+01  0.42018852633E+02  0.12923312979E+03  0.13618218928E+03  0.00000000000E+00 0. -1.
</event>
<event>
 7    1  0.2490079E-009  0.1206209E+03  0.7561462E-02  0.1242076E+00
         -1   -1    0    0    0  501 -0.00000000000E+00  0.00000000000E+00  0.26250699763E+03  0.26250699763E+03  0.00000000000E+00 0. -1.
          1   -1    0    0  501    0  0.00000000000E+00 -0.00000000000E+00 -0.80050602432E+02  0.80050602432E+02  0.00000000000E+00 0.  1.
         25    2    1    2    0    0  0.61299797922E+02 -0.72810059924E+02  0.11435608441E+03  0.19437188447E+03  0.12507655806E+03 0.  0.
          5    1    3    3  502    0  0.86431550405E+02 -0.24034267055E+02  0.10564285676E+03  0.13865765209E+03  0.41800000000E+01 0.  1.
         -5    1    3    3    0  502 -0.25131752483E+02 -0.48775792869E+02  0.87132276496E+01  0.55714232373E+02  0.41800000000E+01 0.  1.
        -11    1    1    2    0    0 -0.33528204553E+02  0.51266077532E+02  0.88435505817E+02  0.10757876136E+03  0.00000000000E+00 0. -1.
         11    1    1    2    0    0 -0.27771593369E+02  0.21543982392E+02 -0.20335195034E+02  0.40606954240E+02  0.00000000000E+00 0.  1.
</event>
<event>
 7    1  0.2490079E-009  0.6557749E+02  0.7561462E-02  0.1375812E+00
         -1   -1    0    0    0  501 -0.00000000000E+00  0.00000000000E+00  0.24192398636E+03  0.24192398636E+03  0.00000000000E+00 0.  1.
          1   -1    0    0  501    0  0.00000000000E+00 -0.00000000000E+00 -0.50662407062E+02  0.50662407062E+02  0.00000000000E+00 0. -1.
         25    2    1    2    0    0  0.10240391267E+02  0.68430977750E+01  0.13611940894E+03  0.18527647262E+03  0.12508870539E+03 0.  0.
          5    1    3    3  502    0  0.10319017082E+02 -0.14210931490E+02 -0.20429418620E+02  0.27262909465E+02  0.41800000000E+01 0.  1.
         -5    1    3    3    0  502 -0.78625814870E-01  0.21054029265E+02  0.15654882756E+03  0.15801356316E+03  0.41800000000E+01 0.  1.
        -11    1    1    2    0    0 -0.87281659340E+00 -0.48718674437E+02  0.24187160207E+02  0.54399354469E+02  0.00000000000E+00 0. -1.
         11    1    1    2    0    0 -0.93675746736E+01  0.41875576662E+02  0.30955010145E+02  0.52910566328E+02  0.00000000000E+00 0.  1.
</event>
<event>
 7    1  0.2490079E-009  0.8335627E+02  0.7561462E-02  0.1319788E+00
          2   -1    0    0  501    0  0.00000000000E+00  0.00000000000E+00  0.94407110253E+02  0.94407110253E+02  0.00000000000E+00 0. -1.
         -2   -1    0    0    0  501 -0.00000000000E+00 -0.00000000000E+00 -0.16000167753E+03  0.16000167753E+03  0.00000000000E+00 0.  1.
         25    2    1    2    0    0 -0.11714943620E+02 -0.24360594608E-01  0.22126263431E+02  0.12757771835E+03  0.12509701111E+03 0.  0.
          5    1    3    3  502    0 -0.63253497977E+02 -0.13484784050E+02 -0.94783832642E+01  0.65499286687E+02  0.41800000000E+01 0.  1.
         -5    1    3    3    0  502  0.51538554357E+02  0.13460423455E+02  0.31604646695E+02  0.62078431661E+02  0.41800000000E+01 0.  1.
        -11    1    1    2    0    0 -0.12493288009E+02  0.15371748634E+02  0.11941046444E+02  0.23129234564E+02  0.00000000000E+00 0. -1.
         11    1    1    2    0    0  0.24208231629E+02 -0.15347388039E+02 -0.99661877150E+02  0.10370183487E+03  0.00000000000E+00 0.  1.
</event>
<event>
 7    1  0.2490079E-009  0.7831640E+02  0.7561462E-02  0.1333898E+00
          1   -1    0    0  501    0  0.00000000000E+00  0.00000000000E+00  0.20270242734E+03  0.20270242734E+03  0.00000000000E+00 0. -1.
         -1   -1    0    0    0  501 -0.00000000000E+00 -0.00000000000E+00 -0.48292622247E+02  0.48292622247E+02  0.00000000000E+00 0.  1.
         25    2    1    2    0    0  0.15398696658E+02  0.19132551567E+02  0.10164694656E+03  0.16304521467E+03  0.12509382836E+03 0.  0.
          5    1    3    3  502    0  0.33319294553E+01  0.51347640682E+02 -0.40778636961E+01  0.51785937568E+02  0.41800000000E+01 0.  1.
         -5    1    3    3    0  502  0.12066767203E+02 -0.32215089115E+02  0.10572481026E+03  0.11125927710E+03  0.41800000000E+01 0.  1.
        -11    1    1    2    0    0 -0.36502400076E+02  0.65788983420E+01  0.28604964733E+02  0.46839631959E+02  0.00000000000E+00 0. -1.
         11    1    1    2    0    0  0.21103703418E+02 -0.25711449909E+02  0.24157893801E+02  0.41110202958E+02  0.00000000000E+00 0.  1.
</event>
<event>
 7    1  0.2490079E-009  0.2391996E+03  0.7561462E-02  0.1120327E+00
          2   -1    0    0  501    0  0.00000000000E+00  0.00000000000E+00  0.18612749076E+04  0.18612749076E+04  0.00000000000E+00 0. -1.
         -2   -1    0    0    0  501 -0.00000000000E+00 -0.00000000000E+00 -0.36486952483E+02  0.36486952483E+02  0.00000000000E+00 0.  1.
         25    2    1    2    0    0 -0.22835453688E+03 -0.20920562618E+02  0.11524620276E+04  0.11816943063E+04  0.12509693801E+03 0.  0.
          5    1    3    3  502    0 -0.11869397825E+03  0.31176485971E+02  0.36960668857E+03  0.38946990947E+03  0.41800000000E+01 0.  1.
         -5    1    3    3    0  502 -0.10966055863E+03 -0.52097048589E+02  0.78285533906E+03  0.79222439680E+03  0.41800000000E+01 0.  1.
        -11    1    1    2    0    0  0.55424847148E+02  0.25789596258E+02  0.29073870538E+03  0.29709596390E+03  0.00000000000E+00 0. -1.
         11    1    1    2    0    0  0.17292968973E+03 -0.48690336392E+01  0.38158722211E+03  0.41897158992E+03  0.00000000000E+00 0.  1.
</event>
<event>
 7    1  0.2490079E-009  0.1245425E+03  0.7561462E-02  0.1235786E+00
         -4   -1    0    0    0  501 -0.00000000000E+00  0.00000000000E+00  0.63927310136E+02  0.63927310136E+02  0.00000000000E+00 0.  1.
          4   -1    0    0  501    0  0.00000000000E+00 -0.00000000000E+00 -0.28231877874E+03  0.28231877874E+03  0.00000000000E+00 0. -1.
         25    2    1    2    0    0 -0.48998610882E+02 -0.53579250759E+02 -0.15793210198E+03  0.21414556297E+03  0.12507666978E+03 0.  0.
          5    1    3    3  502    0  0.15279529905E+02 -0.74778675320E+02 -0.91324710965E+02  0.11909235723E+03  0.41800000000E+01 0.  1.
         -5    1    3    3    0  502 -0.64278140787E+02  0.21199424561E+02 -0.66607391011E+02  0.95053205743E+02  0.41800000000E+01 0.  1.
        -11    1    1    2    0    0  0.45708224108E+02 -0.51638331771E+01 -0.56886142625E+02  0.73156955561E+02  0.00000000000E+00 0.  1.
         11    1    1    2    0    0  0.32903867744E+01  0.58743083936E+02 -0.35732240039E+01  0.58943570347E+02  0.00000000000E+00 0. -1.
</event>
<event>
 7    1  0.2490079E-009  0.9714430E+02  0.7561462E-02  0.1286418E+00
         -2   -1    0    0    0  501 -0.00000000000E+00  0.00000000000E+00  0.44840756489E+02  0.44840756489E+02  0.00000000000E+00 0.  1.
          2   -1    0    0  501    0  0.00000000000E+00 -0.00000000000E+00 -0.31425724903E+03  0.31425724903E+03  0.00000000000E+00 0. -1.
         25    2    1    2    0    0 -0.40136739023E+02  0.24966583376E+02 -0.13281610686E+03  0.18847259736E+03  0.12509002202E+03 0.  0.
          5    1    3    3  502    0 -0.67232590331E+02  0.47757303169E+02 -0.45775127891E+02  0.94413007271E+02  0.41800000000E+01 0.  1.
         -5    1    3    3    0  502  0.27095851308E+02 -0.22790719794E+02 -0.87040978973E+02  0.94059590087E+02  0.41800000000E+01 0.  1.
        -11    1    1    2    0    0  0.54612033683E+02 -0.10528474674E+02 -0.32250756058E+02  0.64291790053E+02  0.00000000000E+00 0.  1.
         11    1    1    2    0    0 -0.14475294660E+02 -0.14438108702E+02 -0.10434962961E+03  0.10633361810E+03  0.00000000000E+00 0. -1.
</event>
<event>
 7    1  0.2490079E-009  0.8586365E+02  0.7561462E-02  0.1313189E+00
         -2   -1    0    0    0  501 -0.00000000000E+00  0.00000000000E+00  0.19294646524E+02  0.19294646524E+02  0.00000000000E+00 0.  1.
          2   -1    0    0  501    0  0.00000000000E+00 -0.00000000000E+00 -0.65507046889E+03  0.65507046889E+03  0.00000000000E+00 0. -1.
         25    2    1    2    0    0  0.26070436605E+02  0.50818281592E+01 -0.35954272775E+03  0.38160593011E+03  0.12508645079E+03 0.  0.
          5    1    3    3  502    0  0.25592180719E+02 -0.36061765331E+02 -0.32412700717E+03  0.32715623150E+03  0.41800000000E+01 0. -1.
         -5    1    3    3    0  502  0.47825588581E+00  0.41143593490E+02 -0.35415720584E+02  0.54449698608E+02  0.41800000000E+01 0. -1.
        -11    1    1    2    0    0 -0.37793688614E+02 -0.36424194422E+02 -0.95684541203E+02  0.10913576986E+03  0.00000000000E+00 0.  1.
         11    1    1    2    0    0  0.11723252009E+02  0.31342366263E+02 -0.18054855341E+03  0.18362341544E+03  0.00000000000E+00 0. -1.
</event>
<event>
 7    1  0.2490079E-009  0.1416553E+03  0.7561462E-02  0.1211119E+00
          2   -1    0    0  501    0  0.00000000000E+00  0.00000000000E+00  0.18908684982E+03  0.18908684982E+03  0.00000000000E+00 0. -1.
         -2   -1    0    0    0  501 -0.00000000000E+00 -0.00000000000E+00 -0.14540773285E+03  0.14540773285E+03  0.00000000000E+00 0.  1.
         25    2    1    2    0    0  0.11373795899E+03  0.51829058122E+02  0.16321787264E+02  0.17758580565E+03  0.12509093911E+03 0.  0.
          5    1    3    3  502    0  0.51807271134E+02  0.46589838667E+02  0.67399566587E+02  0.97029791227E+02  0.41800000000E+01 0. -1.
         -5    1    3    3    0  502  0.61930687859E+02  0.52392194553E+01 -0.51077779323E+02  0.80556014423E+02  0.41800000000E+01 0. -1.
        -11    1    1    2    0    0 -0.46464160682E+02  0.21936855621E+02 -0.58053986905E+01  0.51709249815E+02  0.00000000000E+00 0.  1.
         11    1    1    2    0    0 -0.67273798311E+02 -0.73765913743E+02  0.33162728400E+02  0.10519952721E+03  0.00000000000E+00 0. -1.
</event>
<event>
 7    1  0.2747633E-009  0.1935404E+03  0.7561462E-02  0.1155306E+00
         -1   -1    0    0    0  501 -0.00000000000E+00  0.00000000000E+00  0.35379110675E+02  0.35379110675E+02  0.00000000000E+00 0.  1.
          1   -1    0    0  501    0  0.00000000000E+00 -0.00000000000E+00 -0.12492281644E+04  0.12492281644E+04  0.00000000000E+00 0. -1.
         25    2    1    2    0    0 -0.19436654576E+02 -0.17128585814E+03 -0.78591828459E+03  0.81426795233E+03  0.12509244341E+03 0.  0.
          5    1    3    3  502    0  0.37699260543E+02 -0.14324965725E+03 -0.51134795878E+03  0.53238698885E+03  0.41800000000E+01 0.  1.
         -5    1    3    3    0  502 -0.57135915119E+02 -0.28036200885E+02 -0.27457032581E+03  0.28188096348E+03  0.41800000000E+01 0.  1.
        -11    1    1    2    0    0 -0.77739455654E+01  0.62255090296E+02 -0.64702993533E+02  0.90125511758E+02  0.00000000000E+00 0.  1.
         11    1    1    2    0    0  0.27210600141E+02  0.10903076784E+03 -0.36322777558E+03  0.38021381096E+03  0.00000000000E+00 0. -1.
</event>
<event>
 7    1  0.2490079E-009  0.3829718E+03  0.7561462E-02  0.1049841E+00
          2   -1    0    0  501    0  0.00000000000E+00  0.00000000000E+00  0.12525454914E+04  0.12525454914E+04  0.00000000000E+00 0. -1.
         -2   -1    0    0    0  501 -0.00000000000E+00 -0.00000000000E+00 -0.21748227343E+03  0.21748227343E+03  0.00000000000E+00 0.  1.
         25    2    1    2    0    0  0.30008065279E+03 -0.21944751320E+03  0.28587615628E+02  0.39328112104E+03  0.12508868523E+03 0.  0.
          5    1    3    3  502    0  0.27092892117E+03 -0.23523485886E+03  0.25891853486E+02  0.35975794589E+03  0.41800000000E+01 0. -1.
         -5    1    3    3    0  502  0.29151731613E+02  0.15787345657E+02  0.26957621415E+01  0.33523175155E+02  0.41800000000E+01 0. -1.
        -11    1    1    2    0    0 -0.18364075361E+03  0.11097968083E+03  0.46019187839E+03  0.50775681274E+03  0.00000000000E+00 0.  1.
         11    1    1    2    0    0 -0.11643989917E+03  0.10846783237E+03  0.54628372400E+03  0.56898983109E+03  0.00000000000E+00 0. -1.
</event>
<event>
 7    1  0.2490079E-009  0.6716084E+02  0.7561462E-02  0.1370023E+00
          3   -1    0    0  501    0  0.00000000000E+00  0.00000000000E+00  0.12431493707E+04  0.12431493707E+04  0.00000000000E+00 0. -1.
         -3   -1    0    0    0  501 -0.00000000000E+00 -0.00000000000E+00 -0.10356650062E+02  0.10356650062E+02  0.00000000000E+00 0.  1.
         25    2    1    2    0    0 -0.30012162376E+02  0.73257215151E+01  0.78464794693E+03  0.79515648247E+03  0.12508810857E+03 0.  0.
          5    1    3    3  502    0 -0.29667983619E+02 -0.61169601582E+00  0.78556136676E+03  0.78613274755E+03  0.41800000000E+01 0. -1.
         -5    1    3    3    0  502 -0.34417875663E+00  0.79374175309E+01 -0.91341983245E+00  0.90237349178E+01  0.41800000000E+01 0. -1.
        -11    1    1    2    0    0 -0.32230664031E+02  0.26519109399E+01  0.12514892075E+03  0.12925981858E+03  0.00000000000E+00 0.  1.
         11    1    1    2    0    0  0.62242826407E+02 -0.99776324550E+01  0.32299585292E+03  0.32908971967E+03  0.00000000000E+00 0. -1.
</event>
<event>
 7    1  0.2490079E-009  0.1427816E+03  0.7561462E-02  0.1209634E+00
          1   -1    0    0  501    0  0.00000000000E+00  0.00000000000E+00  0.19907336411E+04  0.19907336411E+04  0.00000000000E+00 0. -1.
         -1   -1    0    0    0  501 -0.00000000000E+00 -0.00000000000E+00 -0.17001524778E+02  0.17001524778E+02  0.00000000000E+00 0.  1.
         25    2    1    2    0    0  0.98532405959E+02 -0.60460336480E+02  0.15413870405E+04  0.15507690800E+04  0.12508654470E+03 0.  0.
          5    1    3    3  502    0  0.12424265354E+03 -0.69302424152E+02  0.12452123178E+04  0.12533196926E+04  0.41800000000E+01 0. -1.
         -5    1    3    3    0  502 -0.25710247583E+02  0.88420876720E+01  0.29617472262E+03  0.29744938740E+03  0.41800000000E+01 0. -1.
        -11    1    1    2    0    0 -0.36344297018E+02  0.25392362224E+02  0.45279382373E+02  0.63371148428E+02  0.00000000000E+00 0.  1.
         11    1    1    2    0    0 -0.62188108941E+02  0.35067974256E+02  0.38706569347E+03  0.39359493743E+03  0.00000000000E+00 0. -1.
</event>
<event>
 7    1  0.2490079E-009  0.9171416E+02  0.7561462E-02  0.1298753E+00
         -2   -1    0    0    0  501 -0.00000000000E+00  0.00000000000E+00  0.84271969340E+02  0.84271969340E+02  0.00000000000E+00 0.  1.
          2   -1    0    0  501    0  0.00000000000E+00 -0.00000000000E+00 -0.48491865767E+03  0.48491865767E+03  0.00000000000E+00 0. -1.
         25    2    1    2    0    0  0.34772394155E+02 -0.47069053776E+02 -0.43526263448E+03  0.45664544876E+03  0.12508752808E+03 0.  0.
          5    1    3    3  502    0 -0.11810083103E+02  0.20686404205E+02 -0.15141140554E+02  0.28532997023E+02  0.41800000000E+01 0. -1.
         -5    1    3    3    0  502  0.46582477258E+02 -0.67755457981E+02 -0.42012149393E+03  0.42811245174E+03  0.41800000000E+01 0. -1.
        -11    1    1    2    0    0  0.12687763279E+02  0.14944806685E+02  0.49578872343E+02  0.53314080379E+02  0.00000000000E+00 0.  1.
         11    1    1    2    0    0 -0.47460157433E+02  0.32124247091E+02 -0.14962926193E+02  0.59231097871E+02  0.00000000000E+00 0. -1.
</event>
<event>
 7    1  0.2490079E-009  0.1096651E+03  0.7561462E-02  0.1261191E+00
         -4   -1    0    0    0  501 -0.00000000000E+00  0.00000000000E+00  0.61233641111E+03  0.61233641111E+03  0.00000000000E+00 0.  1.
          4   -1    0    0  501    0  0.00000000000E+00 -0.00000000000E+00 -0.32099302923E+02  0.32099302923E+02  0.00000000000E+00 0. -1.
         25    2    1    2    0    0  0.80568573458E+02 -0.35951170050E+02  0.33123186996E+03  0.36489091095E+03  0.12508814318E+03 0.  0.
          5    1    3    3  502    0  0.75986124785E+02 -0.79546295902E+01  0.32708706108E+03  0.33591752740E+03  0.41800000000E+01 0.  1.
         -5    1    3    3    0  502  0.45824486732E+01 -0.27996540460E+02  0.41448088771E+01  0.28973383548E+02  0.41800000000E+01 0.  1.
        -11    1    1    2    0    0 -0.51689743039E+02 -0.16503350597E+02  0.18088704385E+03  0.18884997419E+03  0.00000000000E+00 0.  1.
         11    1    1    2    0    0 -0.28878830420E+02  0.52454520647E+02  0.68118194372E+02  0.90694828889E+02  0.00000000000E+00 0. -1.
</event>
<event>
 7    1  0.2490079E-009  0.3230150E+03  0.7561462E-02  0.1074270E+00
          2   -1    0    0  501    0  0.00000000000E+00  0.00000000000E+00  0.16155154883E+04  0.16155154883E+04  0.00000000000E+00 0.  1.
         -2   -1    0    0    0  501 -0.00000000000E+00 -0.00000000000E+00 -0.67966166971E+02  0.67966166971E+02  0.00000000000E+00 0. -1.
         25    2    1    2    0    0 -0.30404698811E+03 -0.60751587667E+02  0.68226145330E+03  0.75977865266E+03  0.12509030338E+03 0.  0.
          5    1    3    3  502    0 -0.83907726454E+01 -0.28176456036E+02  0.12062537263E+03  0.12422669062E+03  0.41800000000E+01 0. -1.
         -5    1    3    3    0  502 -0.29565621547E+03 -0.32575131631E+02  0.56163608066E+03  0.63555196204E+03  0.41800000000E+01 0. -1.
        -11    1    1    2    0    0  0.19270029255E+03  0.14483073640E+01  0.59490082832E+03  0.62533390751E+03  0.00000000000E+00 0.  1.
         11    1    1    2    0    0  0.11134669556E+03  0.59303280303E+02  0.27038703969E+03  0.29836909508E+03  0.00000000000E+00 0. -1.
</event>
<event>
 7    1  0.2490079E-009  0.9276668E+02  0.7561462E-02  0.1296287E+00
         -1   -1    0    0    0  501 -0.00000000000E+00  0.00000000000E+00  0.16781679773E+02  0.16781679773E+02  0.00000000000E+00 0.  1.
          1   -1    0    0  501    0  0.00000000000E+00 -0.00000000000E+00 -0.74062084400E+03  0.74062084400E+03  0.00000000000E+00 0. -1.
         25    2    1    2    0    0  0.18123260015E+02 -0.12328843412E+02 -0.45748588271E+03  0.47478572938E+03  0.12509077906E+03 0.  0.
          5    1    3    3  502    0 -0.40542055416E+02 -0.18178245473E+02 -0.71381204567E+02  0.84183464120E+02  0.41800000000E+01 0.  1.
         -5    1    3    3    0  502  0.58665315430E+02  0.58494020610E+01 -0.38610467814E+03  0.39060226526E+03  0.41800000000E+01 0.  1.
        -11    1    1    2    0    0 -0.48344918443E+02 -0.19345092760E+01 -0.22127074171E+03  0.22649881810E+03  0.00000000000E+00 0. -1.
         11    1    1    2    0    0  0.30221658429E+02  0.14263352688E+02 -0.45082539813E+02  0.56117976301E+02  0.00000000000E+00 0.  1.
</event>
<event>
 7    1  0.2490079E-009  0.1215769E+03  0.7561462E-02  0.1240518E+00
          2   -1    0    0  501    0  0.00000000000E+00  0.00000000000E+00  0.44792022856E+03  0.44792022856E+03  0.00000000000E+00 0. -1.
         -2   -1    0    0    0  501 -0.00000000000E+00 -0.00000000000E+00 -0.46154842099E+02  0.46154842099E+02  0.00000000000E+00 0.  1.
         25    2    1    2    0    0  0.43442977419E+02 -0.21508146514E+01  0.10383279498E+03  0.16828844623E+03  0.12509130077E+03 0.  0.
          5    1    3    3  502    0  0.44084625723E+02  0.55439285321E+02  0.76701413735E+02  0.10448707026E+03  0.41800000000E+01 0.  1.
         -5    1    3    3    0  502 -0.64164830389E+00 -0.57590099972E+02  0.27131381248E+02  0.63801375971E+02  0.41800000000E+01 0.  1.
        -11    1    1    2    0    0 -0.68788162816E+02 -0.28693834200E+02  0.10498156927E+03  0.12874889262E+03  0.00000000000E+00 0.  1.
         11    1    1    2    0    0  0.25345185397E+02  0.30844648851E+02  0.19295102221E+03  0.19703773181E+03  0.00000000000E+00 0. -1.
</event>
<event>
 7    1  0.2490079E-009  0.8296234E+02  0.7561462E-02  0.1320849E+00
          2   -1    0    0  501    0  0.00000000000E+00  0.00000000000E+00  0.12533326591E+03  0.12533326591E+03  0.00000000000E+00 0. -1.
         -2   -1    0    0    0  501 -0.00000000000E+00 -0.00000000000E+00 -0.12164544750E+03  0.12164544750E+03  0.00000000000E+00 0.  1.
         25    2    1    2    0    0 -0.16003592776E+02  0.37922510245E+02 -0.31393577479E+02  0.13538120138E+03  0.12509309020E+03 0.  0.
          5    1    3    3  502    0 -0.27895564555E+02  0.64976974083E+02 -0.60896986778E+02  0.93413516588E+02  0.41800000000E+01 0. -1.
         -5    1    3    3    0  502  0.11891971778E+02 -0.27054463838E+02  0.29503409299E+02  0.41967684790E+02  0.41800000000E+01 0. -1.
        -11    1    1    2    0    0  0.31407869365E+02 -0.38672673079E+02 -0.20532193816E+02  0.53885071068E+02  0.00000000000E+00 0.  1.
         11    1    1    2    0    0 -0.15404276589E+02  0.75016283398E+00  0.55613589710E+02  0.57712440964E+02  0.00000000000E+00 0. -1.
</event>
<event>
 7    1  0.2490079E-009  0.1188488E+03  0.7561462E-02  0.1245008E+00
         -1   -1    0    0    0  501 -0.00000000000E+00  0.00000000000E+00  0.93336528813E+02  0.93336528813E+02  0.00000000000E+00 0.  1.
          1   -1    0    0  501    0  0.00000000000E+00 -0.00000000000E+00 -0.84282184328E+03  0.84282184328E+03  0.00000000000E+00 0. -1.
         25    2    1    2    0    0 -0.99168611520E+02 -0.59131509496E+02 -0.75577934499E+03  0.77471449401E+03  0.12509668260E+03 0.  0.
          5    1    3    3  502    0 -0.86824457668E+02 -0.35591482491E+02 -0.23268126792E+03  0.25092485910E+03  0.41800000000E+01 0. -1.
         -5    1    3    3    0  502 -0.12344153851E+02 -0.23540027005E+02 -0.52309807707E+03  0.52378963491E+03  0.41800000000E+01 0. -1.
        -11    1    1    2    0    0  0.90731892061E+01  0.12407137934E+02  0.48985016773E+02  0.51339962041E+02  0.00000000000E+00 0.  1.
         11    1    1    2    0    0  0.90095422313E+02  0.46724371562E+02 -0.42690986251E+02  0.11010391604E+03  0.00000000000E+00 0. -1.
</event>
<event>
 7    1  0.2490079E-009  0.1124973E+03  0.7561462E-02  0.1256014E+00
          2   -1    0    0  501    0  0.00000000000E+00  0.00000000000E+00  0.12247139714E+04  0.12247139714E+04  0.00000000000E+00 0.  1.
         -2   -1    0    0    0  501 -0.00000000000E+00 -0.00000000000E+00 -0.15036011114E+02  0.15036011114E+02  0.00000000000E+00 0. -1.
         25    2    1    2    0    0  0.95885827805E+00 -0.39296270326E+02  0.98061375662E+03  0.98934337021E+03  0.12510734686E+03 0.  0.
          5    1    3    3  502    0  0.54560906905E+02  0.42108528500E+01  0.59931545312E+03  0.60182315392E+03  0.41800000000E+01 0.  1.
         -5    1    3    3    0  502 -0.53602048627E+02 -0.43507123176E+02  0.38129830350E+03  0.38752021629E+03  0.41800000000E+01 0.  1.
        -11    1    1    2    0    0 -0.40449624488E+02 -0.59589443773E+01  0.84957891655E+02  0.94284274902E+02  0.00000000000E+00 0.  1.
         11    1    1    2    0    0  0.39490766210E+02  0.45255214703E+02  0.14410631199E+03  0.15612233738E+03  0.00000000000E+00 0. -1.
</event>
<event>
 7    1  0.2490079E-009  0.1116104E+03  0.7561462E-02  0.1257616E+00
         -2   -1    0    0    0  501 -0.00000000000E+00  0.00000000000E+00  0.12248036100E+02  0.12248036100E+02  0.00000000000E+00 0. -1.
          2   -1    0    0  501    0  0.00000000000E+00 -0.00000000000E+00 -0.10282423887E+04  0.10282423887E+04  0.00000000000E+00 0.  1.
         25    2    1    2    0    0  0.42687676628E+01  0.30274436542E+02 -0.54006581292E+03  0.55520597501E+03  0.12509128074E+03 0.  0.
          5    1    3    3  502    0 -0.57461939569E+02 -0.39295378388E+01 -0.22322336009E+03  0.23057202054E+03  0.41800000000E+01 0. -1.
         -5    1    3    3    0  502  0.61730707232E+02  0.34203974380E+02 -0.31684245283E+03  0.32463395447E+03  0.41800000000E+01 0. -1.
        -11    1    1    2    0    0  0.23553391761E+02  0.24099282302E+02 -0.17723538553E+03  0.18041041976E+03  0.00000000000E+00 0.  1.
         11    1    1    2    0    0 -0.27822159424E+02 -0.54373718843E+02 -0.29869315414E+03  0.30487403003E+03  0.00000000000E+00 0. -1.
</event>
<event>
 7    1  0.2490079E-009  0.1204933E+03  0.7561462E-02  0.1242286E+00
          3   -1    0    0  501    0  0.00000000000E+00  0.00000000000E+00  0.63851923282E+03  0.63851923282E+03  0.00000000000E+00 0. -1.
         -3   -1    0    0    0  501 -0.00000000000E+00 -0.00000000000E+00 -0.27623586239E+02  0.27623586239E+02  0.00000000000E+00 0.  1.
         25    2    1    2    0    0 -0.70812797959E+02  0.17901329315E+02  0.38857036644E+03  0.41469151921E+03  0.12508883435E+03 0.  0.
          5    1    3    3  502    0  0.30775409121E+02  0.22921162757E+02  0.66217296474E+02  0.76646645465E+02  0.41800000000E+01 0.  1.
         -5    1    3    3    0  502 -0.10158820708E+03 -0.50198334426E+01  0.32235306997E+03  0.33804487374E+03  0.41800000000E+01 0.  1.
        -11    1    1    2    0    0 -0.34045522702E+01  0.17876182045E+02  0.47625299806E+01  0.18810384166E+02  0.00000000000E+00 0.  1.
         11    1    1    2    0    0  0.74217350229E+02 -0.35777511360E+02  0.21756275015E+03  0.23264091568E+03  0.00000000000E+00 0. -1.
</event>
<event>
 7    1  0.2506392E-009  0.1342802E+03  0.7561462E-02  0.1221239E+00
          1   -1    0    0  501    0  0.00000000000E+00  0.00000000000E+00  0.78755045620E+03  0.78755045620E+03  0.00000000000E+00 0. -1.
         -1   -1    0    0    0  501 -0.00000000000E+00 -0.00000000000E+00 -0.28549470665E+02  0.28549470665E+02  0.00000000000E+00 0.  1.
         25    2    1    2    0    0  0.90760267253E+02 -0.41862323510E+02  0.47701931924E+03  0.50317466734E+03  0.12508970655E+03 0.  0.
          5    1    3    3  502    0  0.48973538841E+02  0.41470638223E+02  0.23944339077E+03  0.24792908487E+03  0.41800000000E+01 0.  1.
         -5    1    3    3    0  502  0.41786728411E+02 -0.83332961733E+02  0.23757592846E+03  0.25524558246E+03  0.41800000000E+01 0.  1.
        -11    1    1    2    0    0 -0.38649471162E+02  0.44270656498E+02  0.56623826222E+02  0.81608396283E+02  0.00000000000E+00 0.  1.
         11    1    1    2    0    0 -0.52110796091E+02 -0.24083329883E+01  0.22535784007E+03  0.23131686324E+03  0.00000000000E+00 0. -1.
</event>
<event>
 7    1  0.2490079E-009  0.1245869E+03  0.7561462E-02  0.1235716E+00
          1   -1    0    0  501    0  0.00000000000E+00  0.00000000000E+00  0.59076218821E+03  0.59076218821E+03  0.00000000000E+00 0.  1.
         -1   -1    0    0    0  501 -0.00000000000E+00 -0.00000000000E+00 -0.26984209832E+02  0.26984209832E+02  0.00000000000E+00 0. -1.
         25    2    1    2    0    0  0.55795549029E+02 -0.25953378140E+02  0.26723289502E+03  0.30140974818E+03  0.12509074703E+03 0.  0.
          5    1    3    3  502    0  0.55560037910E+00 -0.69075188490E+02  0.13210924153E+03  0.14913756889E+03  0.41800000000E+01 0. -1.
         -5    1    3    3    0  502  0.55239948650E+02  0.43121810350E+02  0.13512365349E+03  0.15227217930E+03  0.41800000000E+01 0. -1.
        -11    1    1    2    0    0 -0.24977314557E+01 -0.31384634882E+02  0.97179673325E+02  0.10215244920E+03  0.00000000000E+00 0. -1.
         11    1    1    2    0    0 -0.53297817573E+02  0.57338013022E+02  0.19936541003E+03  0.21418420066E+03  0.00000000000E+00 0.  1.
</event>
<event>
 7    1  0.2490079E-009  0.1279158E+03  0.7561462E-02  0.1230581E+00
          2   -1    0    0  501    0  0.00000000000E+00  0.00000000000E+00  0.34389479838E+03  0.34389479838E+03  0.00000000000E+00 0. -1.
         -2   -1    0    0    0  501 -0.00000000000E+00 -0.00000000000E+00 -0.50001014174E+02  0.50001014174E+02  0.00000000000E+00 0.  1.
         25    2    1    2    0    0 -0.51471394038E+02 -0.45384082911E+02  0.15383806305E+03  0.20981639765E+03  0.12509097368E+03 0.  0.
          5    1    3    3  502    0  0.29276907418E+02  0.17322065667E+02  0.15162843032E+02  0.37477666359E+02  0.41800000000E+01 0.  1.
         -5    1    3    3    0  502 -0.80748301456E+02 -0.62706148578E+02  0.13867522002E+03  0.17233873130E+03  0.41800000000E+01 0.  1.
        -11    1    1    2    0    0  0.70181432771E+02  0.62426249829E+02  0.10561650513E+03  0.14134113460E+03  0.00000000000E+00 0.  1.
         11    1    1    2    0    0 -0.18710038733E+02 -0.17042166919E+02  0.34439216020E+02  0.42738280297E+02  0.00000000000E+00 0. -1.
</event>
<event>
 7    1  0.2490079E-009  0.2387416E+03  0.7561462E-02  0.1120634E+00
          2   -1    0    0  501    0  0.00000000000E+00  0.00000000000E+00  0.55934743024E+03  0.55934743024E+03  0.00000000000E+00 0. -1.
         -2   -1    0    0    0  501 -0.00000000000E+00 -0.00000000000E+00 -0.14182272699E+03  0.14182272699E+03  0.00000000000E+00 0.  1.
         25    2    1    2    0    0 -0.22070189015E+03  0.18046740207E+02  0.45722759035E+02  0.25840793169E+03  0.12509628019E+03 0.  0.
          5    1    3    3  502    0 -0.13860406191E+03  0.62853837901E+02 -0.42033603681E+01  0.15230506083E+03  0.41800000000E+01 0.  1.
         -5    1    3    3    0  502 -0.82097828247E+02 -0.44807097694E+02  0.49926119403E+02  0.10610287086E+03  0.41800000000E+01 0.  1.
        -11    1    1    2    0    0  0.10148379257E+03 -0.42311771410E+02  0.11787938640E+03  0.16119800214E+03  0.00000000000E+00 0.  1.
         11    1    1    2    0    0  0.11921809758E+03  0.24265031203E+02  0.25392255782E+03  0.28156422340E+03  0.00000000000E+00 0. -1.
</event>
<event>
 7    1  0.2490079E-009  0.1041553E+03  0.7561462E-02  0.1271793E+00
         -1   -1    0    0    0  501 -0.00000000000E+00  0.00000000000E+00  0.32816469786E+02  0.32816469786E+02  0.00000000000E+00 0.  1.
          1   -1    0    0  501    0  0.00000000000E+00 -0.00000000000E+00 -0.44859179344E+03  0.44859179344E+03  0.00000000000E+00 0. -1.
         25    2    1    2    0    0 -0.45758160623E+02 -0.78819725374E+01 -0.29777511127E+03  0.32630450631E+03  0.12509468090E+03 0.  0.
          5    1    3    3  502    0  0.23351048195E+02 -0.26968991102E+02 -0.20925274454E+03  0.21231293279E+03  0.41800000000E+01 0. -1.
         -5    1    3    3    0  502 -0.69109208819E+02  0.19087018564E+02 -0.88522366729E+02  0.11399157352E+03  0.41800000000E+01 0. -1.
        -11    1    1    2    0    0 -0.27618703772E+01 -0.35428746978E+02 -0.38612582274E+02  0.52476237959E+02  0.00000000000E+00 0.  1.
         11    1    1    2    0    0  0.48520031001E+02  0.43310719516E+02 -0.79387630104E+02  0.10262751896E+03  0.00000000000E+00 0. -1.
</event>
<event>
 7    1  0.2490079E-009  0.1260670E+03  0.7561462E-02  0.1233411E+00
         -1   -1    0    0    0  501 -0.00000000000E+00  0.00000000000E+00  0.52642983105E+03  0.52642983105E+03  0.00000000000E+00 0.  1.
          1   -1    0    0  501    0  0.00000000000E+00 -0.00000000000E+00 -0.30477477000E+02  0.30477477000E+02  0.00000000000E+00 0. -1.
         25    2    1    2    0    0  0.11110552017E+02 -0.63336760024E+02  0.27679869088E+03  0.31047846842E+03  0.12507747416E+03 0.  0.
          5    1    3    3  502    0 -0.55243491382E+02 -0.15327257425E+02  0.13396194436E+03  0.14577394519E+03  0.41800000000E+01 0. -1.
         -5    1    3    3    0  502  0.66354043400E+02 -0.48009502599E+02  0.14283674653E+03  0.16470452324E+03  0.41800000000E+01 0. -1.
        -11    1    1    2    0    0  0.35276629715E+02  0.55258149630E+02  0.12408419578E+03  0.14033813219E+03  0.00000000000E+00 0.  1.
         11    1    1    2    0    0 -0.46387181733E+02  0.80786103943E+01  0.95069467383E+02  0.10609070743E+03  0.00000000000E+00 0. -1.
</event>
<event>
 7    1  0.2490079E-009  0.1357461E+03  0.7561462E-02  0.1219170E+00
         -2   -1    0    0    0  501 -0.00000000000E+00  0.00000000000E+00  0.25814720128E+02  0.25814720128E+02  0.00000000000E+00 0. -1.
          2   -1    0    0  501    0  0.00000000000E+00 -0.00000000000E+00 -0.90365650161E+03  0.90365650161E+03  0.00000000000E+00 0.  1.
         25    2    1    2    0    0 -0.84538314249E+02 -0.63730426059E+02 -0.50784512616E+03  0.53363167621E+03  0.12509116641E+03 0.  0.
          5    1    3    3  502    0 -0.61677005422E+02  0.17580308956E+02 -0.33616407535E+03  0.34225265261E+03  0.41800000000E+01 0.  1.
         -5    1    3    3    0  502 -0.22861308827E+02 -0.81310735015E+02 -0.17168105081E+03  0.19137902361E+03  0.41800000000E+01 0.  1.
        -11    1    1    2    0    0  0.80129289829E+02  0.25380077944E+02 -0.14537409230E+03  0.16792402495E+03  0.00000000000E+00 0. -1.
         11    1    1    2    0    0  0.44090244199E+01  0.38350348116E+02 -0.22462256303E+03  0.22791552058E+03  0.00000000000E+00 0.  1.
</event>
<event>
 7    1  0.2490079E-009  0.1292633E+03  0.7561462E-02  0.1228553E+00
          2   -1    0    0  501    0  0.00000000000E+00  0.00000000000E+00  0.24177284476E+03  0.24177284476E+03  0.00000000000E+00 0. -1.
         -2   -1    0    0    0  501 -0.00000000000E+00 -0.00000000000E+00 -0.83846534944E+02  0.83846534944E+02  0.00000000000E+00 0.  1.
         25    2    1    2    0    0 -0.84571270324E+02  0.31100304310E+02  0.10534937885E+03  0.18672354236E+03  0.12509061098E+03 0.  0.
          5    1    3    3  502    0 -0.10330368337E+03  0.12769264488E+02  0.11793015596E+03  0.15735215028E+03  0.41800000000E+01 0. -1.
         -5    1    3    3    0  502  0.18732413051E+02  0.18331039823E+02 -0.12580777114E+02  0.29371392076E+02  0.41800000000E+01 0. -1.
        -11    1    1    2    0    0 -0.14657391736E+02  0.12655186239E+02  0.13571700735E+02  0.23647070264E+02  0.00000000000E+00 0. -1.
         11    1    1    2    0    0  0.99228662060E+02 -0.43755490550E+02  0.39005230234E+02  0.11524876708E+03  0.00000000000E+00 0.  1.
</event>
<event>
 7    1  0.2490079E-009  0.1180730E+03  0.7561462E-02  0.1246310E+00
          2   -1    0    0  501    0  0.00000000000E+00  0.00000000000E+00  0.76037298247E+03  0.76037298247E+03  0.00000000000E+00 0. -1.
         -2   -1    0    0    0  501 -0.00000000000E+00 -0.00000000000E+00 -0.18519728700E+02  0.18519728700E+02  0.00000000000E+00 0.  1.
         25    2    1    2    0    0 -0.54006747752E+02 -0.13218015672E+01  0.39908261470E+03  0.42170328910E+03  0.12509298431E+03 0.  0.
          5    1    3    3  502    0  0.16556367632E+02 -0.48403798965E+02  0.14959108040E+03  0.15815184096E+03  0.41800000000E+01 0.  1.
         -5    1    3    3    0  502 -0.70563115384E+02  0.47081997397E+02  0.24949153430E+03  0.26355144814E+03  0.41800000000E+01 0.  1.
        -11    1    1    2    0    0  0.75914512553E+02  0.94913887594E+01  0.24530343983E+03  0.25695695606E+03  0.00000000000E+00 0. -1.
         11    1    1    2    0    0 -0.21907764801E+02 -0.81695871922E+01  0.97467199242E+02  0.10023246601E+03  0.00000000000E+00 0.  1.
</event>
<event>
 7    1  0.3391972E-009  0.1802980E+03  0.7561462E-02  0.1167515E+00
         -2   -1    0    0    0  501 -0.00000000000E+00  0.00000000000E+00  0.27455361273E+02  0.27455361273E+02  0.00000000000E+00 0.  1.
          2   -1    0    0  501    0  0.00000000000E+00 -0.00000000000E+00 -0.14310270213E+04  0.14310270213E+04  0.00000000000E+00 0. -1.
         25    2    1    2    0    0 -0.13181079177E+03 -0.80074456072E+02 -0.51311787382E+03  0.55020378334E+03  0.12509295514E+03 0.  0.
          5    1    3    3  502    0 -0.62613844474E+00 -0.48070675099E+02 -0.24797950850E+03  0.25263113603E+03  0.41800000000E+01 0. -1.
         -5    1    3    3    0  502 -0.13118465332E+03 -0.32003780972E+02 -0.26513836532E+03  0.29757264731E+03  0.41800000000E+01 0. -1.
        -11    1    1    2    0    0  0.90940990097E+02  0.41717799579E+01 -0.39262841945E+03  0.40304434395E+03  0.00000000000E+00 0. -1.
         11    1    1    2    0    0  0.40869801670E+02  0.75902676114E+02 -0.49782536675E+03  0.50523425528E+03  0.00000000000E+00 0.  1.
</event>
<event>
 7    1  0.2490079E-009  0.1115437E+03  0.7561462E-02  0.1257738E+00
         -2   -1    0    0    0  501 -0.00000000000E+00  0.00000000000E+00  0.97014144132E+02  0.97014144132E+02  0.00000000000E+00 0.  1.
          2   -1    0    0  501    0  0.00000000000E+00 -0.00000000000E+00 -0.18928178630E+03  0.18928178630E+03  0.00000000000E+00 0. -1.
         25    2    1    2    0    0  0.46516736610E+02  0.61208497642E+02 -0.35227211681E+02  0.15099717494E+03  0.12509557718E+03 0.  0.
          5    1    3    3  502    0  0.47327595123E+02 -0.28017512649E+02 -0.50870957679E+00  0.55159889962E+02  0.41800000000E+01 0.  1.
         -5    1    3    3    0  502 -0.81085851343E+00  0.89226010292E+02 -0.34718502104E+02  0.95837284981E+02  0.41800000000E+01 0.  1.
        -11    1    1    2    0    0 -0.43561529542E+02 -0.46972008485E+02  0.11626966982E+02  0.65108853456E+02  0.00000000000E+00 0.  1.
         11    1    1    2    0    0 -0.29552070676E+01 -0.14236489157E+02 -0.68667397473E+02  0.70189902037E+02  0.00000000000E+00 0. -1.
</event>
<event>
 7    1  0.2490079E-009  0.1122874E+03  0.7561462E-02  0.1256392E+00
         -1   -1    0    0    0  501 -0.00000000000E+00  0.00000000000E+00  0.22187826177E+02  0.22187826177E+02  0.00000000000E+00 0.  1.
          1   -1    0    0  501    0  0.00000000000E+00 -0.00000000000E+00 -0.81874616348E+03  0.81874616348E+03  0.00000000000E+00 0. -1.
         25    2    1    2    0    0 -0.21342570345E+02 -0.45174897589E+02 -0.24235213041E+03  0.27726915285E+03  0.12508937337E+03 0.  0.
          5    1    3    3  502    0  0.13236318154E+02  0.33426063098E+02 -0.13482162846E+03  0.13959529259E+03  0.41800000000E+01 0. -1.
         -5    1    3    3    0  502 -0.34578888499E+02 -0.78600960687E+02 -0.10753050195E+03  0.13767386026E+03  0.41800000000E+01 0. -1.
        -11    1    1    2    0    0 -0.35158368262E+02  0.21004967406E+02 -0.24699458769E+03  0.25036702231E+03  0.00000000000E+00 0. -1.
         11    1    1    2    0    0  0.56500938608E+02  0.24169930183E+02 -0.30721161920E+03  0.31329781449E+03  0.00000000000E+00 0.  1.
</event>
<event>
 7    1  0.2490079E-009  0.3598172E+03  0.7561462E-02  0.1058656E+00
         -1   -1    0    0    0  501 -0.00000000000E+00  0.00000000000E+00  0.18942703537E+03  0.18942703537E+03  0.00000000000E+00 0.  1.
          1   -1    0    0  501    0  0.00000000000E+00 -0.00000000000E+00 -0.69384831395E+03  0.69384831395E+03  0.00000000000E+00 0. -1.
         25    2    1    2    0    0 -0.33714447896E+03 -0.76882741551E+02 -0.24726858885E+03  0.44313265339E+03  0.12508971909E+03 0.  0.
          5    1    3    3  502    0 -0.12696183579E+02 -0.32578875045E+02 -0.45518051812E+01  0.35507288084E+02  0.41800000000E+01 0. -1.
         -5    1    3    3    0  502 -0.32444829538E+03 -0.44303866506E+02 -0.24271678367E+03  0.40762536530E+03  0.41800000000E+01 0. -1.
        -11    1    1    2    0    0  0.30638158570E+03  0.40118377538E+02 -0.22835994764E+03  0.38422314605E+03  0.00000000000E+00 0. -1.
         11    1    1    2    0    0  0.30762893258E+02  0.36764364013E+02 -0.28792742090E+02  0.55919549891E+02  0.00000000000E+00 0.  1.
</event>
<event>
 7    1  0.2490079E-009  0.1153352E+03  0.7561462E-02  0.1250997E+00
          1   -1    0    0  501    0  0.00000000000E+00  0.00000000000E+00  0.77920636478E+02  0.77920636478E+02  0.00000000000E+00 0. -1.
         -1   -1    0    0    0  501 -0.00000000000E+00 -0.00000000000E+00 -0.20773906724E+03  0.20773906724E+03  0.00000000000E+00 0.  1.
         25    2    1    2    0    0 -0.48676752090E+02  0.42937416260E+02 -0.72636753150E+02  0.15854477355E+03  0.12508916581E+03 0.  0.
          5    1    3    3  502    0  0.32854738960E+02 -0.12146926333E+02  0.14478339543E+01  0.35306519435E+02  0.41800000000E+01 0. -1.
         -5    1    3    3    0  502 -0.81531491049E+02  0.55084342593E+02 -0.74084587104E+02  0.12323825412E+03  0.41800000000E+01 0. -1.
        -11    1    1    2    0    0  0.29244155088E+02  0.17051044299E+02  0.96800414210E+01  0.35208832988E+02  0.00000000000E+00 0.  1.
         11    1    1    2    0    0  0.19432597002E+02 -0.59988460559E+02 -0.66861719038E+02  0.91906097181E+02  0.00000000000E+00 0. -1.
</event>
<event>
 7    1  0.2490079E-009  0.1564089E+03  0.7561462E-02  0.1192812E+00
         -1   -1    0    0    0  501 -0.00000000000E+00  0.00000000000E+00  0.19874977014E+03  0.19874977014E+03  0.00000000000E+00 0.  1.
          1   -1    0    0  501    0  0.00000000000E+00 -0.00000000000E+00 -0.17903207555E+03  0.17903207555E+03  0.00000000000E+00 0. -1.
         25    2    1    2    0    0  0.12633417165E+03 -0.54528137604E+02  0.76766388347E+02  0.20118333656E+03  0.12509202938E+03 0.  0.
          5    1    3    3  502    0  0.75538375956E+02 -0.64942533810E+02 -0.98037424228E+01  0.10018565119E+03  0.41800000000E+01 0.  1.
         -5    1    3    3    0  502  0.50795795692E+02  0.10414396206E+02  0.86570130769E+02  0.10099768537E+03  0.41800000000E+01 0.  1.
        -11    1    1    2    0    0 -0.36162808998E+02  0.60758364363E+02 -0.19309372323E+01  0.70732284802E+02  0.00000000000E+00 0.  1.
         11    1    1    2    0    0 -0.90171362649E+02 -0.62302267594E+01 -0.55117756531E+02  0.10586622432E+03  0.00000000000E+00 0. -1.
</event>
<event>
 7    1  0.2490079E-009  0.1026599E+03  0.7561462E-02  0.1274800E+00
          1   -1    0    0  501    0  0.00000000000E+00  0.00000000000E+00  0.61903319668E+03  0.61903319668E+03  0.00000000000E+00 0. -1.
         -1   -1    0    0    0  501 -0.00000000000E+00 -0.00000000000E+00 -0.24181206759E+02  0.24181206759E+02  0.00000000000E+00 0.  1.
         25    2    1    2    0    0 -0.16676907651E+02  0.45549356254E+02  0.40509980732E+03  0.42673837368E+03  0.12508765956E+03 0.  0.
          5    1    3    3  502    0 -0.63036060079E+02  0.25820406626E+02  0.12793219444E+03  0.14499778289E+03  0.41800000000E+01 0. -1.
         -5    1    3    3    0  502  0.46359152428E+02  0.19728949628E+02  0.27716761288E+03  0.28174059079E+03  0.41800000000E+01 0. -1.
        -11    1    1    2    0    0 -0.14496272278E+01 -0.62012750936E+02  0.17952473858E+03  0.18993897562E+03  0.00000000000E+00 0. -1.
         11    1    1    2    0    0  0.18126534879E+02  0.16463394682E+02  0.10227444015E+02  0.26537054137E+02  0.00000000000E+00 0.  1.
</event>
<event>
 7    1  0.2490079E-009  0.1196121E+03  0.7561462E-02  0.1243738E+00
         -2   -1    0    0    0  501 -0.00000000000E+00  0.00000000000E+00  0.32114852840E+02  0.32114852840E+02  0.00000000000E+00 0.  1.
          2   -1    0    0  501    0  0.00000000000E+00 -0.00000000000E+00 -0.55702351261E+03  0.55702351261E+03  0.00000000000E+00 0. -1.
         25    2    1    2    0    0  0.38441324791E+02 -0.89005081037E+02 -0.33869088021E+03  0.37384533648E+03  0.12509669605E+03 0.  0.
          5    1    3    3  502    0 -0.16063686456E+02  0.93331680442E+01 -0.23523994619E+01  0.19187397727E+02  0.41800000000E+01 0. -1.
         -5    1    3    3    0  502  0.54505011248E+02 -0.98338249081E+02 -0.33633848075E+03  0.35465793875E+03  0.41800000000E+01 0. -1.
        -11    1    1    2    0    0  0.49752489032E-01  0.58651143766E+02 -0.11031241947E+03  0.12493513929E+03  0.00000000000E+00 0. -1.
         11    1    1    2    0    0 -0.38491077280E+02  0.30353937271E+02 -0.75905360087E+02  0.90357889683E+02  0.00000000000E+00 0.  1.
</event>
<event>
 7    1  0.2490079E-009  0.7927471E+02  0.7561462E-02  0.1331122E+00
         -1   -1    0    0    0  501 -0.00000000000E+00  0.00000000000E+00  0.48186083035E+02  0.48186083035E+02  0.00000000000E+00 0.  1.
          1   -1    0    0  501    0  0.00000000000E+00 -0.00000000000E+00 -0.29786211775E+03  0.29786211775E+03  0.00000000000E+00 0. -1.
         25    2    1    2    0    0 -0.19838790348E+01 -0.32039312085E+02 -0.93020386560E+02  0.15915994850E+03  0.12509453863E+03 0.  0.
          5    1    3    3  502    0 -0.54492081017E+02 -0.64603288902E+01 -0.83247482120E+02  0.99793478856E+02  0.41800000000E+01 0.  1.
         -5    1    3    3    0  502  0.52508201982E+02 -0.25578983195E+02 -0.97729044402E+01  0.59366469643E+02  0.41800000000E+01 0.  1.
        -11    1    1    2    0    0  0.15829379171E+02  0.24572256010E+02 -0.16602522562E+03  0.16857858866E+03  0.00000000000E+00 0. -1.
         11    1    1    2    0    0 -0.13845500137E+02  0.74670560746E+01  0.93695774651E+01  0.18309663632E+02  0.00000000000E+00 0.  1.
</event>
<event>
 7    1  0.2490079E-009  0.1166927E+03  0.7561462E-02  0.1248655E+00
         -2   -1    0    0    0  501 -0.00000000000E+00  0.00000000000E+00  0.60728053032E+02  0.60728053032E+02  0.00000000000E+00 0.  1.
          2   -1    0    0  501    0  0.00000000000E+00 -0.00000000000E+00 -0.29526926987E+03  0.29526926987E+03  0.00000000000E+00 0. -1.
         25    2    1    2    0    0  0.77689119636E+02 -0.15324520090E+02 -0.13236516390E+03  0.19858525498E+03  0.12508048071E+03 0.  0.
          5    1    3    3  502    0  0.97304902588E+02 -0.40655569136E+02 -0.65205483202E+02  0.12405783655E+03  0.41800000000E+01 0.  1.
         -5    1    3    3    0  502 -0.19615782952E+02  0.25331049046E+02 -0.67159680702E+02  0.74527418435E+02  0.41800000000E+01 0.  1.
        -11    1    1    2    0    0 -0.18543719929E+02  0.29380989601E+02  0.40922198154E+01  0.34983687081E+02  0.00000000000E+00 0.  1.
         11    1    1    2    0    0 -0.59145399707E+02 -0.14056469511E+02 -0.10626827275E+03  0.12242838084E+03  0.00000000000E+00 0. -1.
</event>
<event>
 7    1  0.2490079E-009  0.1027382E+03  0.7561462E-02  0.1274641E+00
          1   -1    0    0  501    0  0.00000000000E+00  0.00000000000E+00  0.18875090830E+03  0.18875090830E+03  0.00000000000E+00 0. -1.
         -1   -1    0    0    0  501 -0.00000000000E+00 -0.00000000000E+00 -0.97451028434E+02  0.97451028434E+02  0.00000000000E+00 0.  1.
         25    2    1    2    0    0 -0.56657441704E+02 -0.24367419880E+02  0.80191669728E+01  0.13970237898E+03  0.12509440755E+03 0.  0.
          5    1    3    3  502    0 -0.24937789969E+02 -0.51319632692E+02  0.53203427349E+02  0.78126020953E+02  0.41800000000E+01 0. -1.
         -5    1    3    3    0  502 -0.31719651735E+02  0.26952212812E+02 -0.45184260376E+02  0.61576358023E+02  0.41800000000E+01 0. -1.
        -11    1    1    2    0    0  0.78545536687E+02  0.77029972484E+01  0.88414015116E+02  0.11851487488E+03  0.00000000000E+00 0.  1.
         11    1    1    2    0    0 -0.21888094982E+02  0.16664422632E+02 -0.51333022250E+01  0.27984682870E+02  0.00000000000E+00 0. -1.
</event>
<event>
 7    1  0.2490079E-009  0.8364377E+02  0.7561462E-02  0.1319018E+00
         -2   -1    0    0    0  501 -0.00000000000E+00  0.00000000000E+00  0.12076422431E+03  0.12076422431E+03  0.00000000000E+00 0. -1.
          2   -1    0    0  501    0  0.00000000000E+00 -0.00000000000E+00 -0.14895945785E+03  0.14895945785E+03  0.00000000000E+00 0.  1.
         25    2    1    2    0    0  0.50967953281E+02 -0.54407442056E+02  0.72670139610E+01  0.14580159337E+03  0.12508954043E+03 0.  0.
          5    1    3    3  502    0  0.45295641827E+02 -0.57925167533E+02  0.58443933720E+02  0.94022263273E+02  0.41800000000E+01 0. -1.
         -5    1    3    3    0  502  0.56723114534E+01  0.35177254767E+01 -0.51176919759E+02  0.51779330102E+02  0.41800000000E+01 0. -1.
        -11    1    1    2    0    0 -0.22301385278E+02  0.52489082758E+02 -0.62402008742E+02  0.84536774774E+02  0.00000000000E+00 0.  1.
         11    1    1    2    0    0 -0.28666568003E+02  0.19183592984E+01  0.26939761240E+02  0.39385314004E+02  0.00000000000E+00 0. -1.
</event>
<event>
 7    1  0.2490079E-009  0.1102412E+03  0.7561462E-02  0.1260124E+00
         -2   -1    0    0    0  501 -0.00000000000E+00  0.00000000000E+00  0.17740277586E+03  0.17740277586E+03  0.00000000000E+00 0.  1.
          2   -1    0    0  501    0  0.00000000000E+00 -0.00000000000E+00 -0.79646472919E+02  0.79646472919E+02  0.00000000000E+00 0. -1.
         25    2    1    2    0    0 -0.45196809714E+02 -0.74928542411E+01  0.38699871112E+02  0.13872146234E+03  0.12508824732E+03 0.  0.
          5    1    3    3  502    0 -0.84918007341E+02 -0.19115286799E+02  0.89936755710E+01  0.87606054359E+02  0.41800000000E+01 0. -1.
         -5    1    3    3    0  502  0.39721197627E+02  0.11622432558E+02  0.29706195541E+02  0.51115407981E+02  0.41800000000E+01 0. -1.
        -11    1    1    2    0    0 -0.22047826820E+02  0.10520395364E+02 -0.55231801789E+01  0.25045776199E+02  0.00000000000E+00 0. -1.
         11    1    1    2    0    0  0.67244636534E+02 -0.30275411227E+01  0.64579612012E+02  0.93282010245E+02  0.00000000000E+00 0.  1.
</event>
<event>
 7    1  0.2490079E-009  0.1313578E+03  0.7561462E-02  0.1225455E+00
         -1   -1    0    0    0  501 -0.00000000000E+00  0.00000000000E+00  0.13484415088E+03  0.13484415088E+03  0.00000000000E+00 0.  1.
          1   -1    0    0  501    0  0.00000000000E+00 -0.00000000000E+00 -0.18074873045E+03  0.18074873045E+03  0.00000000000E+00 0. -1.
         25    2    1    2    0    0  0.10087413393E+02  0.11159659640E+03 -0.41810573339E+02  0.17306379605E+03  0.12508955681E+03 0.  0.
          5    1    3    3  502    0  0.54274208071E+02  0.74375021655E+02  0.13285973420E+02  0.93119938776E+02  0.41800000000E+01 0.  1.
         -5    1    3    3    0  502 -0.44186794679E+02  0.37221574744E+02 -0.55096546759E+02  0.79943857270E+02  0.41800000000E+01 0.  1.
        -11    1    1    2    0    0 -0.10654295703E+02 -0.54964032310E+02 -0.45686157479E+02  0.72261911474E+02  0.00000000000E+00 0. -1.
         11    1    1    2    0    0  0.56688231025E+00 -0.56632564089E+02  0.41592151245E+02  0.70267173816E+02  0.00000000000E+00 0.  1.
</event>
<event>
 7    1  0.2490079E-009  0.2340242E+03  0.7561462E-02  0.1123839E+00
          1   -1    0    0  501    0  0.00000000000E+00  0.00000000000E+00  0.83806735053E+03  0.83806735053E+03  0.00000000000E+00 0. -1.
         -1   -1    0    0    0  501 -0.00000000000E+00 -0.00000000000E+00 -0.78560958540E+02  0.78560958540E+02  0.00000000000E+00 0.  1.
         25    2    1    2    0    0  0.21789867603E+03  0.27599620727E+02  0.25828558568E+03  0.36138778907E+03  0.12509243878E+03 0.  0.
          5    1    3    3  502    0  0.28475068384E+02 -0.18832947469E+02 -0.38740283694E+01  0.34611991068E+02  0.41800000000E+01 0. -1.
         -5    1    3    3    0  502  0.18942360765E+03  0.46432568197E+02  0.26215961404E+03  0.32677579800E+03  0.41800000000E+01 0. -1.
        -11    1    1    2    0    0 -0.82729067148E+02  0.34737516495E+02  0.17485588105E+03  0.19653338836E+03  0.00000000000E+00 0.  1.
         11    1    1    2    0    0 -0.13516960889E+03 -0.62337137222E+02  0.32636492527E+03  0.35870713164E+03  0.00000000000E+00 0. -1.
</event>
<event>
 7    1  0.2490079E-009  0.1685335E+03  0.7561462E-02  0.1179386E+00
         -1   -1    0    0    0  501 -0.00000000000E+00  0.00000000000E+00  0.36491125312E+02  0.36491125312E+02  0.00000000000E+00 0.  1.
          1   -1    0    0  501    0  0.00000000000E+00 -0.00000000000E+00 -0.11102566265E+04  0.11102566265E+04  0.00000000000E+00 0. -1.
         25    2    1    2    0    0 -0.14215965433E+03 -0.60976480541E+02 -0.75847325261E+03  0.78412814636E+03  0.12509107282E+03 0.  0.
          5    1    3    3  502    0  0.11193991032E+02  0.75205956192E+01 -0.10704647254E+02  0.17717975802E+02  0.41800000000E+01 0. -1.
         -5    1    3    3    0  502 -0.15335364536E+03 -0.68497076160E+02 -0.74776860535E+03  0.76641017056E+03  0.41800000000E+01 0. -1.
        -11    1    1    2    0    0  0.77369299365E+02  0.37992307550E+02 -0.80389510305E+02  0.11786389305E+03  0.00000000000E+00 0.  1.
         11    1    1    2    0    0  0.64790354963E+02  0.22984172991E+02 -0.23490273832E+03  0.24475571245E+03  0.00000000000E+00 0. -1.
</event>
<event>
 7    1  0.2490079E-009  0.9442839E+02  0.7561462E-02  0.1292469E+00
         -1   -1    0    0    0  501 -0.00000000000E+00  0.00000000000E+00  0.33910548306E+03  0.33910548306E+03  0.00000000000E+00 0.  1.
          1   -1    0    0  501    0  0.00000000000E+00 -0.00000000000E+00 -0.50381604068E+02  0.50381604068E+02  0.00000000000E+00 0. -1.
         25    2    1    2    0    0  0.32985177055E+02  0.65049088213E+02  0.15385387721E+03  0.21127825806E+03  0.12509228999E+03 0.  0.
          5    1    3    3  502    0  0.33124421585E+02  0.64418981925E+02  0.17514074308E+03  0.18957527482E+03  0.41800000000E+01 0.  1.
         -5    1    3    3    0  502 -0.13924452937E+00  0.63010628792E+00 -0.21286865869E+02  0.21702983240E+02  0.41800000000E+01 0.  1.
        -11    1    1    2    0    0  0.22959350749E+02 -0.48611989250E+02  0.40625349071E+02  0.67384540310E+02  0.00000000000E+00 0.  1.
         11    1    1    2    0    0 -0.55944527805E+02 -0.16437098963E+02  0.94244652709E+02  0.11082428875E+03  0.00000000000E+00 0. -1.
</event>
<event>
 7    1  0.2490079E-009  0.1140722E+03  0.7561462E-02  0.1253209E+00
          3   -1    0    0  501    0  0.00000000000E+00  0.00000000000E+00  0.21529039686E+03  0.21529039686E+03  0.00000000000E+00 0. -1.
         -3   -1    0    0    0  501 -0.00000000000E+00 -0.00000000000E+00 -0.92459273589E+02  0.92459273589E+02  0.00000000000E+00 0.  1.
         25    2    1    2    0    0 -0.47337288755E+02 -0.73607547245E+02  0.65807308710E+02  0.16624366070E+03  0.12508981943E+03 0.  0.
          5    1    3    3  502    0  0.12129037483E+02 -0.11726368336E+02  0.77592052742E+02  0.79514906233E+02  0.41800000000E+01 0.  1.
         -5    1    3    3    0  502 -0.59466326238E+02 -0.61881178909E+02 -0.11784744032E+02  0.86728754466E+02  0.41800000000E+01 0.  1.
        -11    1    1    2    0    0  0.27084615902E+02  0.92961024033E+02  0.59063587144E+02  0.11341885088E+03  0.00000000000E+00 0. -1.
         11    1    1    2    0    0  0.20252672853E+02 -0.19353476789E+02 -0.20397725804E+01  0.28087158875E+02  0.00000000000E+00 0.  1.
</event>
<event>
 7    1  0.2490079E-009  0.1058466E+03  0.7561462E-02  0.1268461E+00
         -1   -1    0    0    0  501 -0.00000000000E+00  0.00000000000E+00  0.22406052155E+03  0.22406052155E+03  0.00000000000E+00 0.  1.
          1   -1    0    0  501    0  0.00000000000E+00 -0.00000000000E+00 -0.58586624990E+02  0.58586624990E+02  0.00000000000E+00 0. -1.
         25    2    1    2    0    0  0.33248341434E+02  0.13551834380E+02  0.83011858353E+02  0.15435831924E+03  0.12508564133E+03 0.  0.
          5    1    3    3  502    0 -0.37295701021E+02 -0.24314378087E+02  0.51524811888E+02  0.68223433925E+02  0.41800000000E+01 0. -1.
         -5    1    3    3    0  502  0.70544042455E+02  0.37866212467E+02  0.31487046465E+02  0.86134885311E+02  0.41800000000E+01 0. -1.
        -11    1    1    2    0    0 -0.23639638949E+02  0.32259762823E+02  0.87017783945E+01  0.40929766359E+02  0.00000000000E+00 0. -1.
         11    1    1    2    0    0 -0.96087024847E+01 -0.45811597203E+02  0.73760259816E+02  0.87359060948E+02  0.00000000000E+00 0.  1.
</event>
<event>
 7    1  0.2490079E-009  0.1034152E+03  0.7561462E-02  0.1273274E+00
         -2   -1    0    0    0  501 -0.00000000000E+00  0.00000000000E+00  0.52373998536E+02  0.52373998536E+02  0.00000000000E+00 0.  1.
          2   -1    0    0  501    0  0.00000000000E+00 -0.00000000000E+00 -0.54934115935E+03  0.54934115935E+03  0.00000000000E+00 0. -1.
         25    2    1    2    0    0 -0.46928455611E+02 -0.40886329728E+01 -0.47623803078E+03  0.49463969109E+03  0.12508703040E+03 0.  0.
          5    1    3    3  502    0 -0.68873250281E+02 -0.40096132422E+02 -0.20278636741E+03  0.21792431633E+03  0.41800000000E+01 0.  1.
         -5    1    3    3    0  502  0.21944794670E+02  0.36007499449E+02 -0.27345166337E+03  0.27671537476E+03  0.41800000000E+01 0.  1.
        -11    1    1    2    0    0  0.15397827222E+02  0.36389376516E+02  0.21739681414E+02  0.45098709010E+02  0.00000000000E+00 0.  1.
         11    1    1    2    0    0  0.31530628389E+02 -0.32300743544E+02 -0.42468811451E+02  0.61976757790E+02  0.00000000000E+00 0. -1.
</event>
<event>
 7    1  0.2490079E-009  0.8841739E+02  0.7561462E-02  0.1306730E+00
         -1   -1    0    0    0  501 -0.00000000000E+00  0.00000000000E+00  0.15385654648E+03  0.15385654648E+03  0.00000000000E+00 0. -1.
          1   -1    0    0  501    0  0.00000000000E+00 -0.00000000000E+00 -0.83468806346E+02  0.83468806346E+02  0.00000000000E+00 0.  1.
         25    2    1    2    0    0 -0.13960924830E+02 -0.31225527505E+02  0.31922886068E+02  0.13355799973E+03  0.12509487458E+03 0.  0.
          5    1    3    3  502    0 -0.30279575685E+02  0.40083218296E+02 -0.64961963434E+01  0.50825092814E+02  0.41800000000E+01 0.  1.
         -5    1    3    3    0  502  0.16318650855E+02 -0.71308745802E+02  0.38419082412E+02  0.82732906917E+02  0.41800000000E+01 0.  1.
        -11    1    1    2    0    0  0.22352855532E+02  0.16518622904E+01  0.61432511312E+02  0.65393671296E+02  0.00000000000E+00 0. -1.
         11    1    1    2    0    0 -0.83919307019E+01  0.29573665215E+02 -0.22967657248E+02  0.38373681797E+02  0.00000000000E+00 0.  1.
</event>
<event>
 7    1  0.2490079E-009  0.9369491E+02  0.7561462E-02  0.1294143E+00
         -1   -1    0    0    0  501 -0.00000000000E+00  0.00000000000E+00  0.19564005782E+02  0.19564005782E+02  0.00000000000E+00 0.  1.
          1   -1    0    0  501    0  0.00000000000E+00 -0.00000000000E+00 -0.76213279437E+03  0.76213279437E+03  0.00000000000E+00 0. -1.
         25    2    1    2    0    0 -0.40697780949E+02  0.22279899888E+02 -0.38306914596E+03  0.40563713585E+03  0.12508721790E+03 0.  0.
          5    1    3    3  502    0 -0.49480672681E+02  0.40911334199E+02 -0.83895206112E+02  0.10572583527E+03  0.41800000000E+01 0.  1.
         -5    1    3    3    0  502  0.87828917324E+01 -0.18631434311E+02 -0.29917393985E+03  0.29991130058E+03  0.41800000000E+01 0.  1.
        -11    1    1    2    0    0 -0.15959285985E+02 -0.39675843618E+02 -0.22577669827E+03  0.22979118533E+03  0.00000000000E+00 0. -1.
         11    1    1    2    0    0  0.56657066934E+02  0.17395943731E+02 -0.13372294436E+03  0.14626847897E+03  0.00000000000E+00 0.  1.
</event>
<event>
 7    1  0.2490079E-009  0.9761727E+02  0.7561462E-02  0.1285388E+00
         -2   -1    0    0    0  501 -0.00000000000E+00  0.00000000000E+00  0.12298860072E+03  0.12298860072E+03  0.00000000000E+00 0.  1.
          2   -1    0    0  501    0  0.00000000000E+00 -0.00000000000E+00 -0.10212992543E+03  0.10212992543E+03  0.00000000000E+00 0. -1.
         25    2    1    2    0    0  0.21758850778E+02  0.84278130445E+01  0.18765273375E+02  0.12862172089E+03  0.12508771314E+03 0.  0.
          5    1    3    3  502    0  0.30979366562E+02 -0.43269329470E+02 -0.26106740320E+02  0.59422136578E+02  0.41800000000E+01 0.  1.
         -5    1    3    3    0  502 -0.92205157840E+01  0.51697142514E+02  0.44872013695E+02  0.69199584309E+02  0.41800000000E+01 0.  1.
        -11    1    1    2    0    0 -0.22512958938E+01  0.38390060227E+02 -0.17336411731E+02  0.42183127304E+02  0.00000000000E+00 0.  1.
         11    1    1    2    0    0 -0.19507554884E+02 -0.46817873272E+02  0.19429813651E+02  0.54313677962E+02  0.00000000000E+00 0. -1.
</event>
<event>
 7    1  0.2490079E-009  0.1529399E+03  0.7561462E-02  0.1196906E+00
          2   -1    0    0  501    0  0.00000000000E+00  0.00000000000E+00  0.25008442946E+03  0.25008442946E+03  0.00000000000E+00 0. -1.
         -2   -1    0    0    0  501 -0.00000000000E+00 -0.00000000000E+00 -0.11912915275E+03  0.11912915275E+03  0.00000000000E+00 0.  1.
         25    2    1    2    0    0 -0.31985083481E+02 -0.12879768653E+03  0.65106704622E+02  0.19364138528E+03  0.12508482517E+03 0.  0.
          5    1    3    3  502    0  0.15732665774E+02 -0.91970692151E+01 -0.28713653451E+02  0.34264400608E+02  0.41800000000E+01 0.  1.
         -5    1    3    3    0  502 -0.47717749256E+02 -0.11960061731E+03  0.93820358072E+02  0.15937698468E+03  0.41800000000E+01 0.  1.
        -11    1    1    2    0    0  0.19756791770E+02  0.14022501655E+03  0.44483914878E+02  0.14843249230E+03  0.00000000000E+00 0.  1.
         11    1    1    2    0    0  0.12228291712E+02 -0.11427330018E+02  0.21364657212E+02  0.27139704628E+02  0.00000000000E+00 0. -1.
</event>
<event>
 7    1  0.2490079E-009  0.2111541E+03  0.7561462E-02  0.1140655E+00
          1   -1    0    0  501    0  0.00000000000E+00  0.00000000000E+00  0.75538171113E+03  0.75538171113E+03  0.00000000000E+00 0. -1.
         -1   -1    0    0    0  501 -0.00000000000E+00 -0.00000000000E+00 -0.69520748598E+02  0.69520748598E+02  0.00000000000E+00 0.  1.
         25    2    1    2    0    0 -0.35419152613E+02  0.19785533651E+03  0.32318125687E+03  0.40061743894E+03  0.12508779729E+03 0.  0.
          5    1    3    3  502    0  0.15126979611E+02  0.54568683251E+02  0.17809001493E+02  0.59507979616E+02  0.41800000000E+01 0. -1.
         -5    1    3    3    0  502 -0.50546132224E+02  0.14328665326E+03  0.30537225537E+03  0.34110945932E+03  0.41800000000E+01 0. -1.
        -11    1    1    2    0    0  0.50155336724E+02 -0.77750897052E+02  0.10726469538E+03  0.14165618472E+03  0.00000000000E+00 0.  1.
         11    1    1    2    0    0 -0.14736184111E+02 -0.12010443946E+03  0.25541501029E+03  0.28262883608E+03  0.00000000000E+00 0. -1.
</event>
<event>
 7    1  0.2490079E-009  0.1049320E+03  0.7561462E-02  0.1270254E+00
         -2   -1    0    0    0  501 -0.00000000000E+00  0.00000000000E+00  0.65834895666E+02  0.65834895666E+02  0.00000000000E+00 0. -1.
          2   -1    0    0  501    0  0.00000000000E+00 -0.00000000000E+00 -0.19899832161E+03  0.19899832161E+03  0.00000000000E+00 0.  1.
         25    2    1    2    0    0 -0.19519041650E+02  0.83093588245E+01 -0.40433082996E+02  0.13317862947E+03  0.12510665337E+03 0.  0.
          5    1    3    3  502    0 -0.66284286348E+02  0.17820415536E+02 -0.49100407451E+02  0.84495539754E+02  0.41800000000E+01 0.  1.
         -5    1    3    3    0  502  0.46765244697E+02 -0.95110567115E+01  0.86673244548E+01  0.48683089719E+02  0.41800000000E+01 0.  1.
        -11    1    1    2    0    0  0.53736704887E+02  0.95763860740E+01 -0.49410606573E+02  0.73625733709E+02  0.00000000000E+00 0.  1.
         11    1    1    2    0    0 -0.34217663236E+02 -0.17885744898E+02 -0.43319736374E+02  0.58028854093E+02  0.00000000000E+00 0. -1.
</event>
<event>
 7    1  0.2490079E-009  0.1122727E+03  0.7561462E-02  0.1256418E+00
         -2   -1    0    0    0  501 -0.00000000000E+00  0.00000000000E+00  0.13055637364E+03  0.13055637364E+03  0.00000000000E+00 0.  1.
          2   -1    0    0  501    0  0.00000000000E+00 -0.00000000000E+00 -0.17685835806E+03  0.17685835806E+03  0.00000000000E+00 0. -1.
         25    2    1    2    0    0  0.68967882224E+02 -0.72973930956E+02  0.75647843121E+01  0.16057959348E+03  0.12508723557E+03 0.  0.
          5    1    3    3  502    0  0.11426722334E+01 -0.51973212266E+02  0.54445340860E+02  0.75394217513E+02  0.41800000000E+01 0.  1.
         -5    1    3    3    0  502  0.67825209990E+02 -0.21000718690E+02 -0.46880556547E+02  0.85185375963E+02  0.41800000000E+01 0.  1.
        -11    1    1    2    0    0 -0.58382966621E+02  0.53933503770E+02  0.92934668897E+01  0.80023509965E+02  0.00000000000E+00 0.  1.
         11    1    1    2    0    0 -0.10584915603E+02  0.19040427186E+02 -0.63160235622E+02  0.66811628251E+02  0.00000000000E+00 0. -1.
</event>
<event>
 7    1  0.2490079E-009  0.8088178E+02  0.7561462E-02  0.1326568E+00
         -1   -1    0    0    0  501 -0.00000000000E+00  0.00000000000E+00  0.87087433932E+02  0.87087433932E+02  0.00000000000E+00 0.  1.
          1   -1    0    0  501    0  0.00000000000E+00 -0.00000000000E+00 -0.15428199203E+03  0.15428199203E+03  0.00000000000E+00 0. -1.
         25    2    1    2    0    0  0.11826985165E+02  0.86333592315E+01 -0.76940557231E+02  0.14758697597E+03  0.12509058182E+03 0.  0.
          5    1    3    3  502    0 -0.15729878229E+02 -0.45864330922E+02 -0.71013404182E+02  0.86089150846E+02  0.41800000000E+01 0.  1.
         -5    1    3    3    0  502  0.27556863394E+02  0.54497690153E+02 -0.59271530493E+01  0.61497825128E+02  0.41800000000E+01 0.  1.
        -11    1    1    2    0    0 -0.27357777120E+02  0.86083967210E+01  0.43931766240E+02  0.52464774354E+02  0.00000000000E+00 0.  1.
         11    1    1    2    0    0  0.15530791956E+02 -0.17241755953E+02 -0.34185767112E+02  0.41317675638E+02  0.00000000000E+00 0. -1.
</event>
<event>
 7    1  0.2490079E-009  0.2260516E+03  0.7561462E-02  0.1129450E+00
         -1   -1    0    0    0  501 -0.00000000000E+00  0.00000000000E+00  0.17222141651E+03  0.17222141651E+03  0.00000000000E+00 0.  1.
          1   -1    0    0  501    0  0.00000000000E+00 -0.00000000000E+00 -0.38892743805E+03  0.38892743805E+03  0.00000000000E+00 0. -1.
         25    2    1    2    0    0 -0.20742919175E+03 -0.62926991965E+02 -0.20866541319E+03  0.32584614832E+03  0.12509109402E+03 0.  0.
          5    1    3    3  502    0 -0.14179037757E+02 -0.33844351674E+02 -0.89734668747E+02  0.97037458886E+02  0.41800000000E+01 0.  1.
         -5    1    3    3    0  502 -0.19325015400E+03 -0.29082640291E+02 -0.11893074444E+03  0.22880868943E+03  0.41800000000E+01 0.  1.
        -11    1    1    2    0    0  0.13826150654E+03  0.23993113668E+02  0.35532246559E+02  0.14475653436E+03  0.00000000000E+00 0.  1.
         11    1    1    2    0    0  0.69167685216E+02  0.38933878297E+02 -0.43572854910E+02  0.90546171881E+02  0.00000000000E+00 0. -1.
</event>
<event>
 7    1  0.2490079E-009  0.8971097E+02  0.7561462E-02  0.1303553E+00
          2   -1    0    0  501    0  0.00000000000E+00  0.00000000000E+00  0.12172157879E+04  0.12172157879E+04  0.00000000000E+00 0. -1.
         -2   -1    0    0    0  501 -0.00000000000E+00 -0.00000000000E+00 -0.11038388804E+02  0.11038388804E+02  0.00000000000E+00 0.  1.
         25    2    1    2    0    0 -0.14515324508E+02 -0.40271321903E+02  0.70265150416E+03  0.71498189185E+03  0.12508994907E+03 0.  0.
          5    1    3    3  502    0 -0.33617425095E+02 -0.50084397852E+02  0.14767478836E+03  0.15957410096E+03  0.41800000000E+01 0.  1.
         -5    1    3    3    0  502  0.19102100587E+02  0.98130759484E+01  0.55497671579E+03  0.55540779089E+03  0.41800000000E+01 0.  1.
        -11    1    1    2    0    0 -0.16653077807E+02  0.58599953080E+02  0.36787313303E+03  0.37288325453E+03  0.00000000000E+00 0.  1.
         11    1    1    2    0    0  0.31168402315E+02 -0.18328631177E+02  0.13565276187E+03  0.14038903029E+03  0.00000000000E+00 0. -1.
</event>
<event>
 7    1  0.2490079E-009  0.6746134E+02  0.7561462E-02  0.1368945E+00
         -2   -1    0    0    0  501 -0.00000000000E+00  0.00000000000E+00  0.16505686505E+03  0.16505686505E+03  0.00000000000E+00 0. -1.
          2   -1    0    0  501    0  0.00000000000E+00 -0.00000000000E+00 -0.22283956576E+03  0.22283956576E+03  0.00000000000E+00 0.  1.
         25    2    1    2    0    0 -0.30315356469E+02 -0.49772786433E+02 -0.17791294727E+03  0.22516656917E+03  0.12510242187E+03 0.  0.
          5    1    3    3  502    0 -0.31337104006E+02 -0.32754093373E+02  0.86296114895E+00  0.45530888660E+02  0.41800000000E+01 0.  1.
         -5    1    3    3    0  502  0.10217475372E+01 -0.17018693059E+02 -0.17877590842E+03  0.17963568051E+03  0.41800000000E+01 0.  1.
        -11    1    1    2    0    0 -0.96928447159E+01  0.19149107447E+02  0.10905089420E+03  0.11114286788E+03  0.00000000000E+00 0. -1.
         11    1    1    2    0    0  0.40008201185E+02  0.30623678986E+02  0.11079352358E+02  0.51586993761E+02  0.00000000000E+00 0.  1.
</event>
<event>
 7    1  0.2490079E-009  0.1692996E+03  0.7561462E-02  0.1178580E+00
          1   -1    0    0  501    0  0.00000000000E+00  0.00000000000E+00  0.75079132686E+03  0.75079132686E+03  0.00000000000E+00 0. -1.
         -1   -1    0    0    0  501 -0.00000000000E+00 -0.00000000000E+00 -0.47537208989E+02  0.47537208989E+02  0.00000000000E+00 0.  1.
         25    2    1    2    0    0  0.10565762948E+02 -0.15139685550E+03  0.30776543875E+03  0.36523992945E+03  0.12509195646E+03 0.  0.
          5    1    3    3  502    0  0.22007529952E+02  0.55303390179E+01  0.44243452119E+01  0.23493898246E+02  0.41800000000E+01 0. -1.
         -5    1    3    3    0  502 -0.11441767004E+02 -0.15692719452E+03  0.30334109354E+03  0.34174603120E+03  0.41800000000E+01 0. -1.
        -11    1    1    2    0    0 -0.16357963306E+02  0.16954061382E+02  0.11525121821E+02  0.26226924979E+02  0.00000000000E+00 0.  1.
         11    1    1    2    0    0  0.57922003581E+01  0.13444279412E+03  0.38396355730E+03  0.40686168142E+03  0.00000000000E+00 0. -1.
</event>
<event>
 7    1  0.2490079E-009  0.9882397E+02  0.7561462E-02  0.1282789E+00
          1   -1    0    0  501    0  0.00000000000E+00  0.00000000000E+00  0.18350904847E+03  0.18350904847E+03  0.00000000000E+00 0. -1.
         -1   -1    0    0    0  501 -0.00000000000E+00 -0.00000000000E+00 -0.74215406983E+02  0.74215406983E+02  0.00000000000E+00 0.  1.
         25    2    1    2    0    0 -0.32240371774E+02  0.22172770703E+02  0.82792044752E+02  0.15503077532E+03  0.12509574449E+03 0.  0.
          5    1    3    3  502    0  0.44564349590E+02 -0.96172266794E+01  0.16629929057E+02  0.48708307750E+02  0.41800000000E+01 0. -1.
         -5    1    3    3    0  502 -0.76804721365E+02  0.31789997382E+02  0.66162115695E+02  0.10632246757E+03  0.41800000000E+01 0. -1.
        -11    1    1    2    0    0 -0.16353665588E+02 -0.61043790223E+01 -0.24734190728E+02  0.30273519986E+02  0.00000000000E+00 0.  1.
         11    1    1    2    0    0  0.48594037362E+02 -0.16068391681E+02  0.51235787460E+02  0.72420160142E+02  0.00000000000E+00 0. -1.
</event>
<event>
 7    1  0.2490079E-009  0.1128919E+03  0.7561462E-02  0.1255306E+00
          1   -1    0    0  501    0  0.00000000000E+00  0.00000000000E+00  0.52559343736E+02  0.52559343736E+02  0.00000000000E+00 0. -1.
         -1   -1    0    0    0  501 -0.00000000000E+00 -0.00000000000E+00 -0.25058266180E+03  0.25058266180E+03  0.00000000000E+00 0.  1.
         25    2    1    2    0    0  0.18431862360E+02  0.27137554060E+02 -0.89377137272E+02  0.15720087416E+03  0.12509061427E+03 0.  0.
          5    1    3    3  502    0  0.37703841174E+02  0.71400385726E+02 -0.56900214558E+02  0.98867090267E+02  0.41800000000E+01 0. -1.
         -5    1    3    3    0  502 -0.19271978814E+02 -0.44262831666E+02 -0.32476922714E+02  0.58333783894E+02  0.41800000000E+01 0. -1.
        -11    1    1    2    0    0  0.35696769729E+02 -0.22391652641E+02 -0.57762652913E+02  0.71499437400E+02  0.00000000000E+00 0.  1.
         11    1    1    2    0    0 -0.54128632089E+02 -0.47459014191E+01 -0.50883527878E+02  0.74441693972E+02  0.00000000000E+00 0. -1.
</event>
<event>
 7    1  0.2493320E-009  0.1561165E+03  0.7561462E-02  0.1193152E+00
          3   -1    0    0  501    0  0.00000000000E+00  0.00000000000E+00  0.29328985332E+03  0.29328985332E+03  0.00000000000E+00 0. -1.
         -3   -1    0    0    0  501 -0.00000000000E+00 -0.00000000000E+00 -0.89154230859E+02  0.89154230859E+02  0.00000000000E+00 0.  1.
         25    2    1    2    0    0 -0.94753744887E+01  0.11585175202E+03  0.14153173296E+03  0.22178988060E+03  0.12509239998E+03 0.  0.
          5    1    3    3  502    0  0.31999535139E+02  0.12402452418E+03  0.10996711747E+03  0.16886767652E+03  0.41800000000E+01 0. -1.
         -5    1    3    3    0  502 -0.41474909628E+02 -0.81727721663E+01  0.31564615492E+02  0.52922204080E+02  0.41800000000E+01 0. -1.
        -11    1    1    2    0    0 -0.22394383145E+02 -0.10585693793E+03  0.66540138877E+02  0.12702279239E+03  0.00000000000E+00 0. -1.
         11    1    1    2    0    0  0.31869757634E+02 -0.99948140872E+01 -0.39362493709E+01  0.33631411201E+02  0.00000000000E+00 0.  1.
</event>
<event>
 7    1  0.2490079E-009  0.8402192E+02  0.7561462E-02  0.1318010E+00
         -1   -1    0    0    0  501 -0.00000000000E+00  0.00000000000E+00  0.10729126770E+03  0.10729126770E+03  0.00000000000E+00 0.  1.
          1   -1    0    0  501    0  0.00000000000E+00 -0.00000000000E+00 -0.22187568104E+03  0.22187568104E+03  0.00000000000E+00 0. -1.
         25    2    1    2    0    0  0.49436091873E+01  0.12101189050E+02 -0.17736317893E+03  0.21743145242E+03  0.12509141144E+03 0.  0.
          5    1    3    3  502    0  0.63088158506E+02  0.13070676234E+02 -0.69785934409E+02  0.95071064800E+02  0.41800000000E+01 0. -1.
         -5    1    3    3    0  502 -0.58144549319E+02 -0.96948718457E+00 -0.10757724452E+03  0.12236038762E+03  0.41800000000E+01 0. -1.
        -11    1    1    2    0    0  0.17787796004E+02 -0.13608666989E+02 -0.17413849885E+02  0.28369766860E+02  0.00000000000E+00 0. -1.
         11    1    1    2    0    0 -0.22731405191E+02  0.15074779389E+01  0.80192615469E+02  0.83365729455E+02  0.00000000000E+00 0.  1.
</event>
<event>
 7    1  0.2490079E-009  0.9654685E+02  0.7561462E-02  0.1287730E+00
         -2   -1    0    0    0  501 -0.00000000000E+00  0.00000000000E+00  0.77747047698E+02  0.77747047698E+02  0.00000000000E+00 0.  1.
          2   -1    0    0  501    0  0.00000000000E+00 -0.00000000000E+00 -0.17469531820E+03  0.17469531820E+03  0.00000000000E+00 0. -1.
         25    2    1    2    0    0 -0.25415274954E+02 -0.12225558650E+02 -0.22980443569E+02  0.13027352329E+03  0.12509072547E+03 0.  0.
          5    1    3    3  502    0  0.37616335988E+02  0.32860745083E+02 -0.34328893086E+01  0.50240167491E+02  0.41800000000E+01 0.  1.
         -5    1    3    3    0  502 -0.63031610942E+02 -0.45086303733E+02 -0.19547554260E+02  0.80033355795E+02  0.41800000000E+01 0.  1.
        -11    1    1    2    0    0  0.20347403945E+02  0.35837946451E+02  0.31756795060E+01  0.41333523845E+02  0.00000000000E+00 0.  1.
         11    1    1    2    0    0  0.50678710089E+01 -0.23612387801E+02 -0.77143506444E+02  0.80835318771E+02  0.00000000000E+00 0. -1.
</event>
<event>
 7    1  0.2490079E-009  0.2794660E+03  0.7561462E-02  0.1095981E+00
          2   -1    0    0  501    0  0.00000000000E+00  0.00000000000E+00  0.13518074475E+04  0.13518074475E+04  0.00000000000E+00 0.  1.
         -2   -1    0    0    0  501 -0.00000000000E+00 -0.00000000000E+00 -0.65661914216E+02  0.65661914216E+02  0.00000000000E+00 0. -1.
         25    2    1    2    0    0  0.18312807915E+03 -0.20656832982E+03  0.59943606913E+03  0.67169758598E+03  0.12509067822E+03 0.  0.
          5    1    3    3  502    0  0.98434131742E+02 -0.15047729402E+03  0.49169705869E+03  0.52356104155E+03  0.41800000000E+01 0. -1.
         -5    1    3    3    0  502  0.84693947407E+02 -0.56091035802E+02  0.10773901045E+03  0.14813654444E+03  0.41800000000E+01 0. -1.
        -11    1    1    2    0    0 -0.39634145932E+02  0.62904288411E+02  0.97882777622E+02  0.12291807507E+03  0.00000000000E+00 0. -1.
         11    1    1    2    0    0 -0.14349393322E+03  0.14366404141E+03  0.58882668654E+03  0.62285370068E+03  0.00000000000E+00 0.  1.
</event>
<event>
 7    1  0.3019303E-009  0.2296417E+03  0.7561462E-02  0.1126892E+00
          2   -1    0    0  501    0  0.00000000000E+00  0.00000000000E+00  0.15071417849E+04  0.15071417849E+04  0.00000000000E+00 0. -1.
         -2   -1    0    0    0  501 -0.00000000000E+00 -0.00000000000E+00 -0.43452078492E+02  0.43452078492E+02  0.00000000000E+00 0.  1.
         25    2    1    2    0    0 -0.20069274640E+03  0.82875440883E+02  0.99549882860E+03  0.10265538591E+04  0.12509592585E+03 0.  0.
          5    1    3    3  502    0 -0.83587333552E+02  0.62630101787E+01  0.62275736847E+03  0.62838704634E+03  0.41800000000E+01 0. -1.
         -5    1    3    3    0  502 -0.11710541285E+03  0.76612430704E+02  0.37274146013E+03  0.39816681272E+03  0.41800000000E+01 0. -1.
        -11    1    1    2    0    0  0.15258057565E+03 -0.16633045234E+02  0.31039103115E+03  0.34626591296E+03  0.00000000000E+00 0.  1.
         11    1    1    2    0    0  0.48112170746E+02 -0.66242395649E+02  0.15779984666E+03  0.17777409136E+03  0.00000000000E+00 0. -1.
</event>
<event>
 7    1  0.2490079E-009  0.1172177E+03  0.7561462E-02  0.1247759E+00
         -1   -1    0    0    0  501 -0.00000000000E+00  0.00000000000E+00  0.13295984436E+03  0.13295984436E+03  0.00000000000E+00 0.  1.
          1   -1    0    0  501    0  0.00000000000E+00 -0.00000000000E+00 -0.11717163148E+03  0.11717163148E+03  0.00000000000E+00 0. -1.
         25    2    1    2    0    0 -0.37528664602E+02  0.42051655359E+02 -0.79625998912E+01  0.13742890507E+03  0.12508620455E+03 0.  0.
          5    1    3    3  502    0  0.30912923356E+02  0.49095294181E+02 -0.29489814724E+02  0.65215629366E+02  0.41800000000E+01 0.  1.
         -5    1    3    3    0  502 -0.68441587959E+02 -0.70436388218E+01  0.21527214833E+02  0.72213275709E+02  0.41800000000E+01 0.  1.
        -11    1    1    2    0    0  0.73434191290E+00  0.28107061874E+02 -0.47402688946E+01  0.28513441294E+02  0.00000000000E+00 0.  1.
         11    1    1    2    0    0  0.36794322690E+02 -0.70158717233E+02  0.28491081667E+02  0.84189129468E+02  0.00000000000E+00 0. -1.
</event>
<event>
 7    1  0.2490079E-009  0.9134039E+02  0.7561462E-02  0.1299638E+00
          2   -1    0    0  501    0  0.00000000000E+00  0.00000000000E+00  0.36046703542E+02  0.36046703542E+02  0.00000000000E+00 0. -1.
         -2   -1    0    0    0  501 -0.00000000000E+00 -0.00000000000E+00 -0.51674825987E+03  0.51674825987E+03  0.00000000000E+00 0.  1.
         25    2    1    2    0    0 -0.40496117582E+02 -0.13092973474E+00 -0.12192110718E+03  0.17930226112E+03  0.12507834258E+03 0.  0.
          5    1    3    3  502    0 -0.64967051763E+01 -0.32561275797E+02  0.13359546275E+02  0.36033231001E+02  0.41800000000E+01 0.  1.
         -5    1    3    3    0  502 -0.33999412406E+02  0.32430346062E+02 -0.13528065346E+03  0.14326903011E+03  0.41800000000E+01 0.  1.
        -11    1    1    2    0    0  0.60806064516E+02 -0.28328149871E+02 -0.26644366488E+03  0.27475823575E+03  0.00000000000E+00 0.  1.
         11    1    1    2    0    0 -0.20309946934E+02  0.28459079606E+02 -0.92336784257E+02  0.98734466542E+02  0.00000000000E+00 0. -1.
</event>
<event>
 7    1  0.2490079E-009  0.9917114E+02  0.7561462E-02  0.1282049E+00
         -2   -1    0    0    0  501 -0.00000000000E+00  0.00000000000E+00  0.14582030857E+03  0.14582030857E+03  0.00000000000E+00 0.  1.
          2   -1    0    0  501    0  0.00000000000E+00 -0.00000000000E+00 -0.10657617156E+03  0.10657617156E+03  0.00000000000E+00 0. -1.
         25    2    1    2    0    0  0.29044404869E+02  0.50909648867E+02  0.54542743932E+01  0.13824570447E+03  0.12508699331E+03 0.  0.
          5    1    3    3  502    0 -0.24225924527E+02  0.16875768259E+00  0.47443284503E+02  0.53434647400E+02  0.41800000000E+01 0. -1.
         -5    1    3    3    0  502  0.53270329396E+02  0.50740891185E+02 -0.41989010110E+02  0.84811057075E+02  0.41800000000E+01 0. -1.
        -11    1    1    2    0    0  0.26726935371E+02 -0.36631900956E+01  0.30873513733E+02  0.40999047382E+02  0.00000000000E+00 0.  1.
         11    1    1    2    0    0 -0.55771340240E+02 -0.47246458772E+02  0.29163488809E+01  0.73151728274E+02  0.00000000000E+00 0. -1.
</event>
<event>
 7    1  0.2490079E-009  0.1964263E+03  0.7561462E-02  0.1152790E+00
         -1   -1    0    0    0  501 -0.00000000000E+00  0.00000000000E+00  0.34685789102E+02  0.34685789102E+02  0.00000000000E+00 0.  1.
          1   -1    0    0  501    0  0.00000000000E+00 -0.00000000000E+00 -0.15214076088E+04  0.15214076088E+04  0.00000000000E+00 0. -1.
         25    2    1    2    0    0  0.57479826512E+02 -0.16228402944E+03 -0.10919408854E+04  0.11124856369E+04  0.12509739497E+03 0.  0.
          5    1    3    3  502    0  0.53500145723E+02 -0.18331355541E+02 -0.50268936267E+03  0.50587782312E+03  0.41800000000E+01 0. -1.
         -5    1    3    3    0  502  0.39796807884E+01 -0.14395267390E+03 -0.58925152278E+03  0.60660781374E+03  0.41800000000E+01 0. -1.
        -11    1    1    2    0    0 -0.76804274321E+02  0.15172139388E+03 -0.28697987751E+03  0.33358016729E+03  0.00000000000E+00 0.  1.
         11    1    1    2    0    0  0.19324447809E+02  0.10562635560E+02 -0.10780105677E+03  0.11002759378E+03  0.00000000000E+00 0. -1.
</event>
<event>
 7    1  0.2490079E-009  0.9845522E+02  0.7561462E-02  0.1283578E+00
          2   -1    0    0  501    0  0.00000000000E+00  0.00000000000E+00  0.79036892951E+03  0.79036892951E+03  0.00000000000E+00 0. -1.
         -2   -1    0    0    0  501 -0.00000000000E+00 -0.00000000000E+00 -0.23549815665E+02  0.23549815665E+02  0.00000000000E+00 0.  1.
         25    2    1    2    0    0  0.62107117348E+02  0.43101513705E+02  0.32026992085E+03  0.35204515576E+03  0.12509170629E+03 0.  0.
          5    1    3    3  502    0  0.44289026019E+02  0.43273847890E+02  0.32677857409E+03  0.33261968165E+03  0.41800000000E+01 0. -1.
         -5    1    3    3    0  502  0.17818091328E+02 -0.17233418548E+00 -0.65086532316E+01  0.19425474114E+02  0.41800000000E+01 0. -1.
        -11    1    1    2    0    0  0.16948480208E+02  0.11487620749E+02  0.54338831837E+02  0.58068279268E+02  0.00000000000E+00 0.  1.
         11    1    1    2    0    0 -0.79055597556E+02 -0.54589134454E+02  0.39221036116E+03  0.40380531015E+03  0.00000000000E+00 0. -1.
</event>
<event>
 7    1  0.2490079E-009  0.1260366E+03  0.7561462E-02  0.1233458E+00
         -1   -1    0    0    0  501 -0.00000000000E+00  0.00000000000E+00  0.10452278363E+03  0.10452278363E+03  0.00000000000E+00 0.  1.
          1   -1    0    0  501    0  0.00000000000E+00 -0.00000000000E+00 -0.21861606107E+03  0.21861606107E+03  0.00000000000E+00 0. -1.
         25    2    1    2    0    0  0.21809313146E+00  0.79051015153E+02 -0.13615068827E+03  0.20108087653E+03  0.12508956162E+03 0.  0.
          5    1    3    3  502    0 -0.31326922946E+02 -0.19441977888E+02 -0.67038196162E+02  0.76622181841E+02  0.41800000000E+01 0.  1.
         -5    1    3    3    0  502  0.31545016077E+02  0.98492993042E+02 -0.69112492109E+02  0.12445869469E+03  0.41800000000E+01 0.  1.
        -11    1    1    2    0    0 -0.29244303244E+02 -0.22175600046E+01 -0.13831112687E+02  0.32426016140E+02  0.00000000000E+00 0. -1.
         11    1    1    2    0    0  0.29026210112E+02 -0.76833455149E+02  0.35888523524E+02  0.89631952028E+02  0.00000000000E+00 0.  1.
</event>
<event>
 7    1  0.2490079E-009  0.1083965E+03  0.7561462E-02  0.1263568E+00
         -1   -1    0    0    0  501 -0.00000000000E+00  0.00000000000E+00  0.62039161465E+03  0.62039161465E+03  0.00000000000E+00 0.  1.
          1   -1    0    0  501    0  0.00000000000E+00 -0.00000000000E+00 -0.27320129595E+02  0.27320129595E+02  0.00000000000E+00 0. -1.
         25    2    1    2    0    0 -0.59603729474E+02  0.19880049339E+02  0.36078429672E+03  0.38699006393E+03  0.12509268521E+03 0.  0.
          5    1    3    3  502    0 -0.19182975891E+02 -0.31004129799E+02  0.28377921279E+03  0.28614219654E+03  0.41800000000E+01 0. -1.
         -5    1    3    3    0  502 -0.40420753583E+02  0.50884179138E+02  0.77005083931E+02  0.10084786739E+03  0.41800000000E+01 0. -1.
        -11    1    1    2    0    0  0.80565678098E+02 -0.36283448331E+02  0.14840342562E+03  0.17271622346E+03  0.00000000000E+00 0. -1.
         11    1    1    2    0    0 -0.20961948624E+02  0.16403398992E+02  0.83883762717E+02  0.88005456855E+02  0.00000000000E+00 0.  1.
</event>
<event>
 7    1  0.2503674E-009  0.8429707E+02  0.7561462E-02  0.1317281E+00
         -1   -1    0    0    0  501 -0.00000000000E+00  0.00000000000E+00  0.50576624627E+03  0.50576624627E+03  0.00000000000E+00 0.  1.
          1   -1    0    0  501    0  0.00000000000E+00 -0.00000000000E+00 -0.27855222605E+02  0.27855222605E+02  0.00000000000E+00 0. -1.
         25    2    1    2    0    0 -0.10968087769E+02 -0.49998683441E+01  0.37441892878E+03  0.39495004920E+03  0.12510279574E+03 0.  0.
          5    1    3    3  502    0 -0.64322871821E+01 -0.43107118946E+02  0.43267070391E+02  0.61555745486E+02  0.41800000000E+01 0.  1.
         -5    1    3    3    0  502 -0.45358005871E+01  0.38107250602E+02  0.33115185839E+03  0.33339430371E+03  0.41800000000E+01 0.  1.
        -11    1    1    2    0    0  0.45822409668E+02  0.17683464798E+02  0.33480646079E+02  0.59442003810E+02  0.00000000000E+00 0. -1.
         11    1    1    2    0    0 -0.34854321899E+02 -0.12683596454E+02  0.70011448810E+02  0.79229415866E+02  0.00000000000E+00 0.  1.
</event>
<event>
 7    1  0.2490079E-009  0.1144082E+03  0.7561462E-02  0.1252618E+00
         -2   -1    0    0    0  501 -0.00000000000E+00  0.00000000000E+00  0.33970707163E+02  0.33970707163E+02  0.00000000000E+00 0. -1.
          2   -1    0    0  501    0  0.00000000000E+00 -0.00000000000E+00 -0.53185540741E+03  0.53185540741E+03  0.00000000000E+00 0.  1.
         25    2    1    2    0    0  0.61577204879E+02 -0.20102504047E+02 -0.37151720484E+03  0.39732535989E+03  0.12508615147E+03 0.  0.
          5    1    3    3  502    0  0.12941345594E+02 -0.57367320617E+02 -0.79818105839E+02  0.99231498630E+02  0.41800000000E+01 0.  1.
         -5    1    3    3    0  502  0.48635859284E+02  0.37264816570E+02 -0.29169909901E+03  0.29809386126E+03  0.41800000000E+01 0.  1.
        -11    1    1    2    0    0  0.11415561223E+02  0.32465095089E+02 -0.23137973597E+02  0.41468822738E+02  0.00000000000E+00 0. -1.
         11    1    1    2    0    0 -0.72992766101E+02 -0.12362591042E+02 -0.10322952181E+03  0.12703193194E+03  0.00000000000E+00 0.  1.
</event>
<event>
 7    1  0.2490079E-009  0.8465715E+02  0.7561462E-02  0.1316332E+00
         -2   -1    0    0    0  501 -0.00000000000E+00  0.00000000000E+00  0.74232175188E+02  0.74232175188E+02  0.00000000000E+00 0.  1.
          2   -1    0    0  501    0  0.00000000000E+00 -0.00000000000E+00 -0.16967498322E+03  0.16967498322E+03  0.00000000000E+00 0. -1.
         25    2    1    2    0    0 -0.12805523516E+02  0.33050106529E+02 -0.34593700461E+02  0.13453765176E+03  0.12508942663E+03 0.  0.
          5    1    3    3  502    0 -0.22266874488E+01  0.58882144322E+02 -0.68478601563E+02  0.90437029634E+02  0.41800000000E+01 0.  1.
         -5    1    3    3    0  502 -0.10578836067E+02 -0.25832037793E+02  0.33884901101E+02  0.44100622124E+02  0.41800000000E+01 0.  1.
        -11    1    1    2    0    0  0.36069743866E+02  0.59964558512E+01 -0.42974903498E+01  0.36816468172E+02  0.00000000000E+00 0.  1.
         11    1    1    2    0    0 -0.23264220351E+02 -0.39046562381E+02 -0.56551617223E+02  0.72553038481E+02  0.00000000000E+00 0. -1.
</event>
<event>
 7    1  0.2490079E-009  0.1791206E+03  0.7561462E-02  0.1168657E+00
          2   -1    0    0  501    0  0.00000000000E+00  0.00000000000E+00  0.27147800853E+03  0.27147800853E+03  0.00000000000E+00 0. -1.
         -2   -1    0    0    0  501 -0.00000000000E+00 -0.00000000000E+00 -0.16781524411E+03  0.16781524411E+03  0.00000000000E+00 0.  1.
         25    2    1    2    0    0 -0.55288186455E+02 -0.16844004811E+03  0.97030974552E+02  0.23767648242E+03  0.12508503869E+03 0.  0.
          5    1    3    3  502    0 -0.30159502606E+02 -0.13769386927E+03  0.12538825411E+03  0.18870316347E+03  0.41800000000E+01 0.  1.
         -5    1    3    3    0  502 -0.25128683849E+02 -0.30746178842E+02 -0.28357279562E+02  0.48973318956E+02  0.41800000000E+01 0.  1.
        -11    1    1    2    0    0  0.22490249171E+02  0.71669677188E+02  0.50402712798E+02  0.90458760733E+02  0.00000000000E+00 0. -1.
         11    1    1    2    0    0  0.32797937284E+02  0.96770370925E+02 -0.43770922932E+02  0.11115800949E+03  0.00000000000E+00 0.  1.
</event>
<event>
 7    1  0.2490079E-009  0.1065323E+03  0.7561462E-02  0.1267130E+00
         -1   -1    0    0    0  501 -0.00000000000E+00  0.00000000000E+00  0.16751839186E+03  0.16751839186E+03  0.00000000000E+00 0.  1.
          1   -1    0    0  501    0  0.00000000000E+00 -0.00000000000E+00 -0.89488299960E+02  0.89488299960E+02  0.00000000000E+00 0. -1.
         25    2    1    2    0    0 -0.37409840456E+02 -0.12063300986E+02  0.88108256629E+02  0.15796573383E+03  0.12508032933E+03 0.  0.
          5    1    3    3  502    0 -0.72849966048E+02 -0.24147833297E+02  0.92236723204E+02  0.12006382017E+03  0.41800000000E+01 0.  1.
         -5    1    3    3    0  502  0.35440125592E+02  0.12084532311E+02 -0.41284665756E+01  0.37901913664E+02  0.41800000000E+01 0.  1.
        -11    1    1    2    0    0 -0.27973156848E+02  0.17371783217E+02 -0.32411294920E+01  0.33087479151E+02  0.00000000000E+00 0.  1.
         11    1    1    2    0    0  0.65382997303E+02 -0.53084822314E+01 -0.68370352352E+01  0.65953478838E+02  0.00000000000E+00 0. -1.
</event>
<event>
 7    1  0.2490079E-009  0.1588824E+03  0.7561462E-02  0.1189964E+00
          2   -1    0    0  501    0  0.00000000000E+00  0.00000000000E+00  0.50292299943E+02  0.50292299943E+02  0.00000000000E+00 0. -1.
         -2   -1    0    0    0  501 -0.00000000000E+00 -0.00000000000E+00 -0.55282205791E+03  0.55282205791E+03  0.00000000000E+00 0.  1.
         25    2    1    2    0    0 -0.12426888023E+03 -0.19585738596E+02 -0.27868455857E+03  0.33036374333E+03  0.12509501978E+03 0.  0.
          5    1    3    3  502    0 -0.77958288117E+01 -0.54910851622E+02 -0.88976457122E+02  0.10492978078E+03  0.41800000000E+01 0.  1.
         -5    1    3    3    0  502 -0.11647305142E+03  0.35325113026E+02 -0.18970810145E+03  0.22543396255E+03  0.41800000000E+01 0.  1.
        -11    1    1    2    0    0  0.61220931540E+02 -0.21752391434E+02 -0.16430228612E+03  0.17668166350E+03  0.00000000000E+00 0.  1.
         11    1    1    2    0    0  0.63047948695E+02  0.41338130030E+02 -0.59542913278E+02  0.96068951022E+02  0.00000000000E+00 0. -1.
</event>
<event>
 7    1  0.2490079E-009  0.1598541E+03  0.7561462E-02  0.1188862E+00
          2   -1    0    0  501    0  0.00000000000E+00  0.00000000000E+00  0.73668284526E+03  0.73668284526E+03  0.00000000000E+00 0. -1.
         -2   -1    0    0    0  501 -0.00000000000E+00 -0.00000000000E+00 -0.43166184805E+02  0.43166184805E+02  0.00000000000E+00 0.  1.
         25    2    1    2    0    0 -0.13498849869E+03 -0.40334378957E+02  0.33717731128E+03  0.38624711935E+03  0.12509812573E+03 0.  0.
          5    1    3    3  502    0 -0.92516179307E+01 -0.49906477271E+02  0.44880537212E+02  0.67882132616E+02  0.41800000000E+01 0. -1.
         -5    1    3    3    0  502 -0.12573688076E+03  0.95720983145E+01  0.29229677407E+03  0.31836498674E+03  0.41800000000E+01 0. -1.
        -11    1    1    2    0    0  0.30527501175E+02  0.19106119472E+02  0.20707173525E+03  0.21018010293E+03  0.00000000000E+00 0. -1.
         11    1    1    2    0    0  0.10446099752E+03  0.21228259485E+02  0.14926761393E+03  0.18342180779E+03  0.00000000000E+00 0.  1.
</event>
<event>
 7    1  0.2490079E-009  0.5508380E+02  0.7561462E-02  0.1419703E+00
         -2   -1    0    0    0  501 -0.00000000000E+00  0.00000000000E+00  0.34912115446E+03  0.34912115446E+03  0.00000000000E+00 0. -1.
          2   -1    0    0  501    0  0.00000000000E+00 -0.00000000000E+00 -0.35379370882E+02  0.35379370882E+02  0.00000000000E+00 0.  1.
         25    2    1    2    0    0  0.19638776566E+02  0.86552465513E+01  0.17023048342E+03  0.21233853359E+03  0.12509452635E+03 0.  0.
          5    1    3    3  502    0  0.87776093633E+01 -0.21575029524E+02  0.17755724728E+03  0.17912726422E+03  0.41800000000E+01 0.  1.
         -5    1    3    3    0  502  0.10861167203E+02  0.30230276076E+02 -0.73267638564E+01  0.33211269371E+02  0.41800000000E+01 0.  1.
        -11    1    1    2    0    0 -0.25148478186E+02  0.15361925436E+02  0.31305571115E+01  0.29635031567E+02  0.00000000000E+00 0.  1.
         11    1    1    2    0    0  0.55097016193E+01 -0.24017171987E+02  0.14038074304E+03  0.14252696018E+03  0.00000000000E+00 0. -1.
</event>
<event>
 7    1  0.2490079E-009  0.1526744E+03  0.7561462E-02  0.1197225E+00
          2   -1    0    0  501    0  0.00000000000E+00  0.00000000000E+00  0.21559261805E+03  0.21559261805E+03  0.00000000000E+00 0. -1.
         -2   -1    0    0    0  501 -0.00000000000E+00 -0.00000000000E+00 -0.14639327720E+03  0.14639327720E+03  0.00000000000E+00 0.  1.
         25    2    1    2    0    0  0.12344177368E+03  0.58741544868E+02  0.68736799429E+02  0.19763699615E+03  0.12508874477E+03 0.  0.
          5    1    3    3  502    0  0.11781280436E+02  0.55440366873E+02  0.64223097354E+02  0.85758448455E+02  0.41800000000E+01 0. -1.
         -5    1    3    3    0  502  0.11166049324E+03  0.33011779955E+01  0.45137020752E+01  0.11187854769E+03  0.41800000000E+01 0. -1.
        -11    1    1    2    0    0 -0.33637030767E+02 -0.14764626995E+02 -0.41924735690E+02  0.55741613825E+02  0.00000000000E+00 0.  1.
         11    1    1    2    0    0 -0.89804742913E+02 -0.43976917873E+02  0.42387277105E+02  0.10860728528E+03  0.00000000000E+00 0. -1.
</event>
<event>
 7    1  0.2490079E-009  0.1131989E+03  0.7561462E-02  0.1254758E+00
          1   -1    0    0  501    0  0.00000000000E+00  0.00000000000E+00  0.87601764550E+02  0.87601764550E+02  0.00000000000E+00 0. -1.
         -1   -1    0    0    0  501 -0.00000000000E+00 -0.00000000000E+00 -0.17332870667E+03  0.17332870667E+03  0.00000000000E+00 0.  1.
         25    2    1    2    0    0  0.36115455897E+02 -0.25303796567E+02 -0.20200170576E+02  0.13416804256E+03  0.12509359887E+03 0.  0.
          5    1    3    3  502    0 -0.36699102194E+02 -0.33255113559E+02 -0.33047201705E+02  0.59685145725E+02  0.41800000000E+01 0.  1.
         -5    1    3    3    0  502  0.72814558091E+02  0.79513169926E+01  0.12847031129E+02  0.74482896834E+02  0.41800000000E+01 0.  1.
        -11    1    1    2    0    0 -0.59641910707E+02 -0.10429958913E+02 -0.18778731705E+02  0.63392289122E+02  0.00000000000E+00 0. -1.
         11    1    1    2    0    0  0.23526454810E+02  0.35733755480E+02 -0.46748039843E+02  0.63370139544E+02  0.00000000000E+00 0.  1.
</event>
<event>
 7    1  0.2490079E-009  0.1120685E+03  0.7561462E-02  0.1256787E+00
         -1   -1    0    0    0  501 -0.00000000000E+00  0.00000000000E+00  0.57753918147E+02  0.57753918147E+02  0.00000000000E+00 0.  1.
          1   -1    0    0  501    0  0.00000000000E+00 -0.00000000000E+00 -0.25821218843E+03  0.25821218843E+03  0.00000000000E+00 0. -1.
         25    2    1    2    0    0 -0.63427476995E+01 -0.36153463611E+02 -0.56386012732E+02  0.14203675352E+03  0.12509098105E+03 0.  0.
          5    1    3    3  502    0 -0.12062273622E+01 -0.81169699473E+02 -0.19829716423E+02  0.83669977593E+02  0.41800000000E+01 0.  1.
         -5    1    3    3    0  502 -0.51365203373E+01  0.45016235862E+02 -0.36556296309E+02  0.58366775928E+02  0.41800000000E+01 0.  1.
        -11    1    1    2    0    0  0.28681157955E+02 -0.21287778078E+02 -0.49288915396E+02  0.60870152769E+02  0.00000000000E+00 0. -1.
         11    1    1    2    0    0 -0.22338410255E+02  0.57441241690E+02 -0.94783342153E+02  0.11305920029E+03  0.00000000000E+00 0.  1.
</event>
<event>
 7    1  0.2490079E-009  0.1100871E+03  0.7561462E-02  0.1260409E+00
          1   -1    0    0  501    0  0.00000000000E+00  0.00000000000E+00  0.35593497309E+03  0.35593497309E+03  0.00000000000E+00 0. -1.
         -1   -1    0    0    0  501 -0.00000000000E+00 -0.00000000000E+00 -0.46539767183E+02  0.46539767183E+02  0.00000000000E+00 0.  1.
         25    2    1    2    0    0 -0.17595495182E+02 -0.49546276999E+02  0.25006342796E+03  0.28450957546E+03  0.12509814353E+03 0.  0.
          5    1    3    3  502    0 -0.63278708579E+02  0.52536232559E+00  0.15682121864E+03  0.16915920898E+03  0.41800000000E+01 0. -1.
         -5    1    3    3    0  502  0.45683213397E+02 -0.50071639324E+02  0.93242209316E+02  0.11535036649E+03  0.41800000000E+01 0. -1.
        -11    1    1    2    0    0  0.45665952702E+02  0.29891279948E+02  0.63170957114E+02  0.83483158037E+02  0.00000000000E+00 0. -1.
         11    1    1    2    0    0 -0.28070457521E+02  0.19654997051E+02 -0.38391791630E+01  0.34482006773E+02  0.00000000000E+00 0.  1.
</event>
<event>
 7    1  0.2490079E-009  0.1633801E+03  0.7561462E-02  0.1184933E+00
          2   -1    0    0  501    0  0.00000000000E+00  0.00000000000E+00  0.49745291663E+02  0.49745291663E+02  0.00000000000E+00 0.  1.
         -2   -1    0    0    0  501 -0.00000000000E+00 -0.00000000000E+00 -0.93588622436E+03  0.93588622436E+03  0.00000000000E+00 0. -1.
         25    2    1    2    0    0  0.11063625140E+03  0.58720901491E+02 -0.76563305484E+03  0.78583022434E+03  0.12508653974E+03 0.  0.
          5    1    3    3  502    0  0.32116468428E+02 -0.38835194480E+02 -0.26278264080E+03  0.26760386503E+03  0.41800000000E+01 0. -1.
         -5    1    3    3    0  502  0.78519782969E+02  0.97556095970E+02 -0.50285041405E+03  0.51822635931E+03  0.41800000000E+01 0. -1.
        -11    1    1    2    0    0 -0.79665922133E+02  0.52297950087E+01 -0.31300514493E+02  0.85753904358E+02  0.00000000000E+00 0.  1.
         11    1    1    2    0    0 -0.30970329264E+02 -0.63950696500E+02 -0.89207363361E+02  0.11404738732E+03  0.00000000000E+00 0. -1.
</event>
<event>
 7    1  0.2490079E-009  0.9090986E+02  0.7561462E-02  0.1300663E+00
         -3   -1    0    0    0  501 -0.00000000000E+00  0.00000000000E+00  0.25072791823E+03  0.25072791823E+03  0.00000000000E+00 0.  1.
          3   -1    0    0  501    0  0.00000000000E+00 -0.00000000000E+00 -0.55047402791E+02  0.55047402791E+02  0.00000000000E+00 0. -1.
         25    2    1    2    0    0  0.74922886292E+01 -0.45363157538E+02  0.12847605543E+03  0.18511481598E+03  0.12508975908E+03 0.  0.
          5    1    3    3  502    0 -0.30928216171E+02  0.27762098054E+02  0.77268825936E+02  0.87836396246E+02  0.41800000000E+01 0. -1.
         -5    1    3    3    0  502  0.38420504800E+02 -0.73125255592E+02  0.51207229492E+02  0.97278419739E+02  0.41800000000E+01 0. -1.
        -11    1    1    2    0    0  0.12255315633E+02  0.68029443721E+01  0.75295196974E+02  0.76588768763E+02  0.00000000000E+00 0.  1.
         11    1    1    2    0    0 -0.19747604262E+02  0.38560213166E+02 -0.80907369635E+01  0.44071736273E+02  0.00000000000E+00 0. -1.
</event>
<event>
 7    1  0.2490079E-009  0.1172775E+03  0.7561462E-02  0.1247657E+00
          2   -1    0    0  501    0  0.00000000000E+00  0.00000000000E+00  0.58053535002E+03  0.58053535002E+03  0.00000000000E+00 0.  1.
         -2   -1    0    0    0  501 -0.00000000000E+00 -0.00000000000E+00 -0.29688177233E+02  0.29688177233E+02  0.00000000000E+00 0. -1.
         25    2    1    2    0    0  0.48782710628E+02  0.35995806882E+02  0.42081542733E+03  0.44318043052E+03  0.12509124329E+03 0.  0.
          5    1    3    3  502    0 -0.27726192444E+02  0.45680882013E+02  0.25052270187E+03  0.25619246921E+03  0.41800000000E+01 0.  1.
         -5    1    3    3    0  502  0.76508903072E+02 -0.96850751309E+01  0.17029272547E+03  0.18698796131E+03  0.41800000000E+01 0.  1.
        -11    1    1    2    0    0 -0.71326886990E+02 -0.14940444888E+02  0.79562310425E+02  0.10789301618E+03  0.00000000000E+00 0.  1.
         11    1    1    2    0    0  0.22544176362E+02 -0.21055361994E+02  0.50469435032E+02  0.59150080549E+02  0.00000000000E+00 0. -1.
</event>
<event>
 7    1  0.2490079E-009  0.9076572E+02  0.7561462E-02  0.1301008E+00
         -1   -1    0    0    0  501 -0.00000000000E+00  0.00000000000E+00  0.39676773426E+02  0.39676773426E+02  0.00000000000E+00 0.  1.
          1   -1    0    0  501    0  0.00000000000E+00 -0.00000000000E+00 -0.43653862149E+03  0.43653862149E+03  0.00000000000E+00 0. -1.
         25    2    1    2    0    0 -0.69312862971E+02  0.27707900738E+02 -0.20166595887E+03  0.24877345715E+03  0.12508826196E+03 0.  0.
          5    1    3    3  502    0 -0.42696480323E+02  0.33515974084E+02 -0.10267073555E+02  0.55400317239E+02  0.41800000000E+01 0. -1.
         -5    1    3    3    0  502 -0.26616382648E+02 -0.58080733461E+01 -0.19139888531E+03  0.19337313991E+03  0.41800000000E+01 0. -1.
        -11    1    1    2    0    0 -0.12182882252E+02 -0.10837600104E+02 -0.12019076156E+01  0.16349947336E+02  0.00000000000E+00 0.  1.
         11    1    1    2    0    0  0.81495745223E+02 -0.16870300635E+02 -0.19399398158E+03  0.21109199043E+03  0.00000000000E+00 0. -1.
</event>
<event>
 7    1  0.3465540E-009  0.7633021E+02  0.7561462E-02  0.1339801E+00
         -2   -1    0    0    0  501 -0.00000000000E+00  0.00000000000E+00  0.16655793405E+02  0.16655793405E+02  0.00000000000E+00 0.  1.
          2   -1    0    0  501    0  0.00000000000E+00 -0.00000000000E+00 -0.12318416656E+04  0.12318416656E+04  0.00000000000E+00 0. -1.
         25    2    1    2    0    0  0.51143680168E+02 -0.43100019405E+02 -0.94426886074E+03  0.95486387426E+03  0.12509216328E+03 0.  0.
          5    1    3    3  502    0 -0.73127637851E+01 -0.11422233623E+02 -0.81265204574E+01  0.16354102539E+02  0.41800000000E+01 0. -1.
         -5    1    3    3    0  502  0.58456443953E+02 -0.31677785782E+02 -0.93614234028E+03  0.93850977172E+03  0.41800000000E+01 0. -1.
        -11    1    1    2    0    0 -0.29392129636E+02  0.40356333130E+02 -0.26666863707E+03  0.27130184833E+03  0.00000000000E+00 0. -1.
         11    1    1    2    0    0 -0.21751550532E+02  0.27436862748E+01 -0.42483743428E+01  0.22331736374E+02  0.00000000000E+00 0.  1.
</event>
<event>
 7    1  0.2490079E-009  0.2157078E+03  0.7561462E-02  0.1137124E+00
         -1   -1    0    0    0  501 -0.00000000000E+00  0.00000000000E+00  0.75539250901E+02  0.75539250901E+02  0.00000000000E+00 0.  1.
          1   -1    0    0  501    0  0.00000000000E+00 -0.00000000000E+00 -0.82746396959E+03  0.82746396959E+03  0.00000000000E+00 0. -1.
         25    2    1    2    0    0 -0.19935831471E+03 -0.49462636336E+02 -0.55380536701E+03  0.60376988879E+03  0.12508958409E+03 0.  0.
          5    1    3    3  502    0 -0.20291648147E+03 -0.60492599876E+02 -0.55210762627E+03  0.59133303348E+03  0.41800000000E+01 0.  1.
         -5    1    3    3    0  502  0.35581667642E+01  0.11029963540E+02 -0.16977407320E+01  0.12436855311E+02  0.41800000000E+01 0.  1.
        -11    1    1    2    0    0  0.14454504219E+03  0.22706964233E+02 -0.18665812430E+03  0.23717110029E+03  0.00000000000E+00 0. -1.
         11    1    1    2    0    0  0.54813272519E+02  0.26755672102E+02 -0.11461227376E+02  0.62062231404E+02  0.00000000000E+00 0.  1.
</event>
<event>
 7    1  0.2490079E-009  0.8380632E+02  0.7561462E-02  0.1318584E+00
         -2   -1    0    0    0  501 -0.00000000000E+00  0.00000000000E+00  0.18840716893E+02  0.18840716893E+02  0.00000000000E+00 0.  1.
          2   -1    0    0  501    0  0.00000000000E+00 -0.00000000000E+00 -0.74980262974E+03  0.74980262974E+03  0.00000000000E+00 0. -1.
         25    2    1    2    0    0 -0.83025916881E+01 -0.49931317533E+02 -0.39282787591E+03  0.41536021819E+03  0.12509317034E+03 0.  0.
          5    1    3    3  502    0  0.46740967511E+01  0.11767127375E+02 -0.31423041243E+03  0.31451317454E+03  0.41800000000E+01 0. -1.
         -5    1    3    3    0  502 -0.12976688439E+02 -0.61698444909E+02 -0.78597463483E+02  0.10084704365E+03  0.41800000000E+01 0. -1.
        -11    1    1    2    0    0  0.14865248662E+02 -0.17716536103E+02 -0.30757262525E+02  0.38481949890E+02  0.00000000000E+00 0.  1.
         11    1    1    2    0    0 -0.65626569744E+01  0.67647853637E+02 -0.30737677442E+03  0.31480117855E+03  0.00000000000E+00 0. -1.
</event>
<event>
 7    1  0.2490079E-009  0.1194333E+03  0.7561462E-02  0.1244035E+00
         -3   -1    0    0    0  501 -0.00000000000E+00  0.00000000000E+00  0.18644201279E+03  0.18644201279E+03  0.00000000000E+00 0.  1.
          3   -1    0    0  501    0  0.00000000000E+00 -0.00000000000E+00 -0.11627883387E+03  0.11627883387E+03  0.00000000000E+00 0. -1.
         25    2    1    2    0    0  0.81315963753E+02 -0.57856162525E+01  0.42876720160E+01  0.14937051494E+03  0.12508959703E+03 0.  0.
          5    1    3    3  502    0  0.11138652461E+03  0.12802472597E+02  0.12336060295E+02  0.11287387631E+03  0.41800000000E+01 0.  1.
         -5    1    3    3    0  502 -0.30070560857E+02 -0.18588088849E+02 -0.80483882793E+01  0.36496638629E+02  0.41800000000E+01 0.  1.
        -11    1    1    2    0    0 -0.22578221576E+02  0.20523593077E+02 -0.28147725546E+02  0.41512509148E+02  0.00000000000E+00 0. -1.
         11    1    1    2    0    0 -0.58737742178E+02 -0.14737976825E+02  0.94023232447E+02  0.11183782257E+03  0.00000000000E+00 0.  1.
</event>
<event>
 7    1  0.2490079E-009  0.1129777E+03  0.7561462E-02  0.1255153E+00
          2   -1    0    0  501    0  0.00000000000E+00  0.00000000000E+00  0.69857743797E+03  0.69857743797E+03  0.00000000000E+00 0. -1.
         -2   -1    0    0    0  501 -0.00000000000E+00 -0.00000000000E+00 -0.19374249520E+02  0.19374249520E+02  0.00000000000E+00 0.  1.
         25    2    1    2    0    0  0.39405541528E+01 -0.35671531189E+02  0.45386633405E+03  0.47215522547E+03  0.12509165298E+03 0.  0.
          5    1    3    3  502    0  0.59303098358E+02  0.72264176491E+01  0.21768885584E+03  0.22577641361E+03  0.41800000000E+01 0.  1.
         -5    1    3    3    0  502 -0.55362544205E+02 -0.42897948838E+02  0.23617747821E+03  0.24637881185E+03  0.41800000000E+01 0.  1.
        -11    1    1    2    0    0 -0.45312444897E+02  0.76920335279E+01  0.13447773737E+03  0.14211490734E+03  0.00000000000E+00 0. -1.
         11    1    1    2    0    0  0.41371890744E+02  0.27979497661E+02  0.90859117031E+02  0.10368155468E+03  0.00000000000E+00 0.  1.
</event>
<event>
 7    1  0.2490079E-009  0.1268188E+03  0.7561462E-02  0.1232254E+00
         -1   -1    0    0    0  501 -0.00000000000E+00  0.00000000000E+00  0.10894619186E+02  0.10894619186E+02  0.00000000000E+00 0.  1.
          1   -1    0    0  501    0  0.00000000000E+00 -0.00000000000E+00 -0.18491930377E+04  0.18491930377E+04  0.00000000000E+00 0. -1.
         25    2    1    2    0    0  0.10443259720E+02  0.70016298471E+02 -0.13756947278E+04  0.13831827231E+04  0.12508843922E+03 0.  0.
          5    1    3    3  502    0  0.11284496667E+02 -0.34571104114E+02 -0.47964711722E+03  0.48104192183E+03  0.41800000000E+01 0.  1.
         -5    1    3    3    0  502 -0.84123694708E+00  0.10458740259E+03 -0.89604761061E+03  0.90214080128E+03  0.41800000000E+01 0.  1.
        -11    1    1    2    0    0  0.33668970352E+02 -0.57282065915E+02 -0.32870152664E+03  0.33534985948E+03  0.00000000000E+00 0.  1.
         11    1    1    2    0    0 -0.44112230072E+02 -0.12734232556E+02 -0.13390216406E+03  0.14155507431E+03  0.00000000000E+00 0. -1.
</event>
<event>
 7    1  0.2490079E-009  0.1929930E+03  0.7561462E-02  0.1155789E+00
         -1   -1    0    0    0  501 -0.00000000000E+00  0.00000000000E+00  0.10293293928E+04  0.10293293928E+04  0.00000000000E+00 0.  1.
          1   -1    0    0  501    0  0.00000000000E+00 -0.00000000000E+00 -0.53276058662E+02  0.53276058662E+02  0.00000000000E+00 0. -1.
         25    2    1    2    0    0 -0.15291291429E+03 -0.10584888963E+03  0.71578535776E+03  0.75005480449E+03  0.12508870678E+03 0.  0.
          5    1    3    3  502    0 -0.74702988603E+01 -0.64393027110E+01  0.27698704418E+03  0.27719409270E+03  0.41800000000E+01 0.  1.
         -5    1    3    3    0  502 -0.14544261543E+03 -0.99409586922E+02  0.43879831358E+03  0.47286071179E+03  0.41800000000E+01 0.  1.
        -11    1    1    2    0    0  0.11164803135E+03  0.34895219889E+02  0.19620977378E+03  0.22843212252E+03  0.00000000000E+00 0.  1.
         11    1    1    2    0    0  0.41264882940E+02  0.70953669745E+02  0.64058202623E+02  0.10411852447E+03  0.00000000000E+00 0. -1.
</event>
<event>
 7    1  0.2490079E-009  0.5736264E+02  0.7561462E-02  0.1409245E+00
          3   -1    0    0  501    0  0.00000000000E+00  0.00000000000E+00  0.60847567530E+02  0.60847567530E+02  0.00000000000E+00 0. -1.
         -3   -1    0    0    0  501 -0.00000000000E+00 -0.00000000000E+00 -0.20303864631E+03  0.20303864631E+03  0.00000000000E+00 0.  1.
         25    2    1    2    0    0 -0.14818019027E+02  0.20729787250E+02 -0.91305148597E+02  0.15695038261E+03  0.12508994634E+03 0.  0.
          5    1    3    3  502    0 -0.32319062132E+02  0.20564306646E+01  0.22871230966E+02  0.39866229946E+02  0.41800000000E+01 0.  1.
         -5    1    3    3    0  502  0.17501043106E+02  0.18673356585E+02 -0.11417637956E+03  0.11708415267E+03  0.41800000000E+01 0.  1.
        -11    1    1    2    0    0  0.20675238231E+02  0.11312186450E+02 -0.66689683218E+02  0.70731498541E+02  0.00000000000E+00 0.  1.
         11    1    1    2    0    0 -0.58572192042E+01 -0.32041973700E+02  0.15803753032E+02  0.36204332687E+02  0.00000000000E+00 0. -1.
</event>
<event>
 7    1  0.2490079E-009  0.1044913E+03  0.7561462E-02  0.1271125E+00
         -2   -1    0    0    0  501 -0.00000000000E+00  0.00000000000E+00  0.80982892518E+02  0.80982892518E+02  0.00000000000E+00 0.  1.
          2   -1    0    0  501    0  0.00000000000E+00 -0.00000000000E+00 -0.25912796156E+03  0.25912796156E+03  0.00000000000E+00 0. -1.
         25    2    1    2    0    0 -0.88676540958E+02  0.30537322941E+02 -0.72189658166E+02  0.17220596471E+03  0.12508992976E+03 0.  0.
          5    1    3    3  502    0 -0.32805634366E+02 -0.17650907238E+02  0.28654063016E+02  0.47183597783E+02  0.41800000000E+01 0.  1.
         -5    1    3    3    0  502 -0.55870906592E+02  0.48188230178E+02 -0.10084372118E+03  0.12502236693E+03  0.41800000000E+01 0.  1.
        -11    1    1    2    0    0  0.79737794233E+02 -0.17249879325E+02 -0.12099897370E+03  0.14593294968E+03  0.00000000000E+00 0. -1.
         11    1    1    2    0    0  0.89387467251E+01 -0.13287443615E+02  0.15043562827E+02  0.21971939682E+02  0.00000000000E+00 0.  1.
</event>
<event>
 7    1  0.2490079E-009  0.1139785E+03  0.7561462E-02  0.1253375E+00
          2   -1    0    0  501    0  0.00000000000E+00  0.00000000000E+00  0.78352790607E+03  0.78352790607E+03  0.00000000000E+00 0.  1.
         -2   -1    0    0    0  501 -0.00000000000E+00 -0.00000000000E+00 -0.39996625127E+02  0.39996625127E+02  0.00000000000E+00 0. -1.
         25    2    1    2    0    0 -0.46553173073E+02  0.14229087235E+02  0.69494908815E+03  0.70779295590E+03  0.12508784294E+03 0.  0.
          5    1    3    3  502    0  0.38454191552E+02 -0.18466074646E+02  0.20504430586E+03  0.20947639611E+03  0.41800000000E+01 0.  1.
         -5    1    3    3    0  502 -0.85007364626E+02  0.32695161881E+02  0.48990478229E+03  0.49831655979E+03  0.41800000000E+01 0.  1.
        -11    1    1    2    0    0  0.19217918995E+02 -0.47276214970E+02  0.14099789342E+00  0.51033212644E+02  0.00000000000E+00 0. -1.
         11    1    1    2    0    0  0.27335254079E+02  0.33047127735E+02  0.48441194902E+02  0.64698362658E+02  0.00000000000E+00 0.  1.
</event>
<event>
 7    1  0.2490079E-009  0.1676416E+03  0.7561462E-02  0.1180330E+00
         -1   -1    0    0    0  501 -0.00000000000E+00  0.00000000000E+00  0.10758851041E+03  0.10758851041E+03  0.00000000000E+00 0.  1.
          1   -1    0    0  501    0  0.00000000000E+00 -0.00000000000E+00 -0.31512648897E+03  0.31512648897E+03  0.00000000000E+00 0. -1.
         25    2    1    2    0    0  0.36496002836E+02  0.12645662988E+03 -0.18613476948E+03  0.26003223613E+03  0.12508946379E+03 0.  0.
          5    1    3    3  502    0  0.23111893799E+01  0.14131739619E+03 -0.16375520703E+03  0.21635431193E+03  0.41800000000E+01 0.  1.
         -5    1    3    3    0  502  0.34184813457E+02 -0.14860766313E+02 -0.22379562451E+02  0.43677924195E+02  0.41800000000E+01 0.  1.
        -11    1    1    2    0    0  0.17616396410E+02 -0.88604510574E+02 -0.31921994853E+02  0.95812893036E+02  0.00000000000E+00 0. -1.
         11    1    1    2    0    0 -0.54112399247E+02 -0.37852119305E+02  0.10518785770E+02  0.66869870212E+02  0.00000000000E+00 0.  1.
</event>
<event>
 7    1  0.2490079E-009  0.1608402E+03  0.7561462E-02  0.1187751E+00
         -1   -1    0    0    0  501 -0.00000000000E+00  0.00000000000E+00  0.34381923514E+02  0.34381923514E+02  0.00000000000E+00 0.  1.
          1   -1    0    0  501    0  0.00000000000E+00 -0.00000000000E+00 -0.94894794639E+03  0.94894794639E+03  0.00000000000E+00 0. -1.
         25    2    1    2    0    0  0.12757847819E+03  0.21171434393E+02 -0.66322515229E+03  0.68719680193E+03  0.12508934491E+03 0.  0.
          5    1    3    3  502    0  0.59288152679E+02 -0.43305326187E+02 -0.42086674067E+03  0.42724316510E+03  0.41800000000E+01 0. -1.
         -5    1    3    3    0  502  0.68290325513E+02  0.64476760580E+02 -0.24235841163E+03  0.25995363683E+03  0.41800000000E+01 0. -1.
        -11    1    1    2    0    0 -0.10781435329E+03 -0.50266644611E+02 -0.16973127169E+03  0.20726643463E+03  0.00000000000E+00 0.  1.
         11    1    1    2    0    0 -0.19764124899E+02  0.29095210218E+02 -0.81609598896E+02  0.88866633348E+02  0.00000000000E+00 0. -1.
</event>
<event>
 7    1  0.2490079E-009  0.1366427E+03  0.7561462E-02  0.1217919E+00
          2   -1    0    0  501    0  0.00000000000E+00  0.00000000000E+00  0.64290270748E+03  0.64290270748E+03  0.00000000000E+00 0. -1.
         -2   -1    0    0    0  501 -0.00000000000E+00 -0.00000000000E+00 -0.40296236330E+02  0.40296236330E+02  0.00000000000E+00 0.  1.
         25    2    1    2    0    0  0.62831926010E+02  0.52501814785E+02  0.14502034007E+03  0.20829688781E+03  0.12510956380E+03 0.  0.
          5    1    3    3  502    0  0.39440993230E+02  0.93692082142E+02  0.10410486648E+03  0.14556474102E+03  0.41800000000E+01 0.  1.
         -5    1    3    3    0  502  0.23390932781E+02 -0.41190267357E+02  0.40915473590E+02  0.62732146786E+02  0.41800000000E+01 0.  1.
        -11    1    1    2    0    0  0.29893985619E+01  0.23362731567E+02  0.52349713968E+02  0.57404235754E+02  0.00000000000E+00 0.  1.
         11    1    1    2    0    0 -0.65821324572E+02 -0.75864546352E+02  0.40523641711E+03  0.41749782025E+03  0.00000000000E+00 0. -1.
</event>
<event>
 7    1  0.2490079E-009  0.1382198E+03  0.7561462E-02  0.1215745E+00
         -1   -1    0    0    0  501 -0.00000000000E+00  0.00000000000E+00  0.24552158423E+02  0.24552158423E+02  0.00000000000E+00 0.  1.
          1   -1    0    0  501    0  0.00000000000E+00 -0.00000000000E+00 -0.98880403114E+03  0.98880403114E+03  0.00000000000E+00 0. -1.
         25    2    1    2    0    0 -0.80200720465E+02  0.51920544090E+02 -0.68502098021E+03  0.70287206759E+03  0.12508997406E+03 0.  0.
          5    1    3    3  502    0  0.24852885309E+02 -0.13157719066E+01 -0.27774358672E+03  0.27888773643E+03  0.41800000000E+01 0. -1.
         -5    1    3    3    0  502 -0.10505360577E+03  0.53236315997E+02 -0.40727739349E+03  0.42398433116E+03  0.41800000000E+01 0. -1.
        -11    1    1    2    0    0  0.65659330348E+02  0.12909042735E+02 -0.11102127838E+03  0.12962837382E+03  0.00000000000E+00 0. -1.
         11    1    1    2    0    0  0.14541390117E+02 -0.64829586825E+02 -0.16820961414E+03  0.18085574816E+03  0.00000000000E+00 0.  1.
</event>
<event>
 7    1  0.2490079E-009  0.1198737E+03  0.7561462E-02  0.1243306E+00
          2   -1    0    0  501    0  0.00000000000E+00  0.00000000000E+00  0.32775942911E+03  0.32775942911E+03  0.00000000000E+00 0. -1.
         -2   -1    0    0    0  501 -0.00000000000E+00 -0.00000000000E+00 -0.80606237969E+02  0.80606237969E+02  0.00000000000E+00 0.  1.
         25    2    1    2    0    0  0.12013750066E+02  0.10416855016E+03  0.56386364636E+02  0.17268914933E+03  0.12508678246E+03 0.  0.
          5    1    3    3  502    0  0.48569113910E+02  0.55606863133E+02 -0.18421900377E+02  0.76209716355E+02  0.41800000000E+01 0.  1.
         -5    1    3    3    0  502 -0.36555363844E+02  0.48561687024E+02  0.74808265014E+02  0.96479432973E+02  0.41800000000E+01 0.  1.
        -11    1    1    2    0    0 -0.23236509458E+01 -0.15173892249E+02 -0.82683525412E+01  0.17435940280E+02  0.00000000000E+00 0.  1.
         11    1    1    2    0    0 -0.96900991201E+01 -0.88994657908E+02  0.19903517904E+03  0.21824057747E+03  0.00000000000E+00 0. -1.
</event>
<event>
 7    1  0.2490079E-009  0.1172285E+03  0.7561462E-02  0.1247741E+00
          1   -1    0    0  501    0  0.00000000000E+00  0.00000000000E+00  0.45205839519E+02  0.45205839519E+02  0.00000000000E+00 0. -1.
         -1   -1    0    0    0  501 -0.00000000000E+00 -0.00000000000E+00 -0.42993142612E+03  0.42993142612E+03  0.00000000000E+00 0.  1.
         25    2    1    2    0    0 -0.32122351831E+02 -0.82004229616E+02 -0.22845641971E+03  0.27494737347E+03  0.12508870176E+03 0.  0.
          5    1    3    3  502    0 -0.63924491892E+02 -0.17492586576E+02 -0.51979492624E+02  0.84330725731E+02  0.41800000000E+01 0. -1.
         -5    1    3    3    0  502  0.31802140062E+02 -0.64511643040E+02 -0.17647692709E+03  0.19061664774E+03  0.41800000000E+01 0. -1.
        -11    1    1    2    0    0 -0.88521334552E+01  0.16941411272E+02  0.64868786612E+01  0.20185422397E+02  0.00000000000E+00 0. -1.
         11    1    1    2    0    0  0.40974485286E+02  0.65062818345E+02 -0.16275604555E+03  0.18000446978E+03  0.00000000000E+00 0.  1.
</event>
<event>
 7    1  0.2490079E-009  0.1329246E+03  0.7561462E-02  0.1223180E+00
          1   -1    0    0  501    0  0.00000000000E+00  0.00000000000E+00  0.16135607793E+03  0.16135607793E+03  0.00000000000E+00 0. -1.
         -1   -1    0    0    0  501 -0.00000000000E+00 -0.00000000000E+00 -0.16968269187E+03  0.16968269187E+03  0.00000000000E+00 0.  1.
         25    2    1    2    0    0 -0.43009064715E+02  0.11126595779E+03  0.16110955738E+02  0.17360127313E+03  0.12509175084E+03 0.  0.
          5    1    3    3  502    0 -0.12189733054E+02  0.75964686340E+02 -0.50445802189E+02  0.92094921256E+02  0.41800000000E+01 0.  1.
         -5    1    3    3    0  502 -0.30819331661E+02  0.35301271445E+02  0.66556757927E+02  0.81506351872E+02  0.41800000000E+01 0.  1.
        -11    1    1    2    0    0  0.45680957262E+02 -0.12221925429E+03 -0.41560231890E+02  0.13693629486E+03  0.00000000000E+00 0.  1.
         11    1    1    2    0    0 -0.26718925471E+01  0.10953296507E+02  0.17122662219E+02  0.20501201809E+02  0.00000000000E+00 0. -1.
</event>
<event>
 7    1  0.2490079E-009  0.1434423E+03  0.7561462E-02  0.1208771E+00
          2   -1    0    0  501    0  0.00000000000E+00  0.00000000000E+00  0.61159007005E+03  0.61159007005E+03  0.00000000000E+00 0. -1.
         -2   -1    0    0    0  501 -0.00000000000E+00 -0.00000000000E+00 -0.46277619919E+02  0.46277619919E+02  0.00000000000E+00 0.  1.
         25    2    1    2    0    0 -0.32718454286E+01 -0.11718835157E+03  0.19796303075E+03  0.26187954915E+03  0.12509085499E+03 0.  0.
          5    1    3    3  502    0 -0.50879648789E+02 -0.41648588897E+02  0.14167502860E+03  0.15624541512E+03  0.41800000000E+01 0. -1.
         -5    1    3    3    0  502  0.47607803360E+02 -0.75539762673E+02  0.56288002152E+02  0.10563413403E+03  0.41800000000E+01 0. -1.
        -11    1    1    2    0    0 -0.23803721642E+02  0.21192895625E+02  0.28469184036E+02  0.42734651381E+02  0.00000000000E+00 0.  1.
         11    1    1    2    0    0  0.27075567071E+02  0.95995455944E+02  0.33888023534E+03  0.35325348944E+03  0.00000000000E+00 0. -1.
</event>
<event>
 7    1  0.2490079E-009  0.6563402E+02  0.7561462E-02  0.1375602E+00
          1   -1    0    0  501    0  0.00000000000E+00  0.00000000000E+00  0.21077871405E+03  0.21077871405E+03  0.00000000000E+00 0. -1.
         -1   -1    0    0    0  501 -0.00000000000E+00 -0.00000000000E+00 -0.70708054537E+02  0.70708054537E+02  0.00000000000E+00 0.  1.
         25    2    1    2    0    0  0.49426591935E+02  0.18736892928E+02  0.54668659245E+02  0.14639724958E+03  0.12509769475E+03 0.  0.
          5    1    3    3  502    0  0.75845236566E+01  0.19434365620E+02 -0.38605399229E+02  0.44080254261E+02  0.41800000000E+01 0. -1.
         -5    1    3    3    0  502  0.41842068279E+02 -0.69747269198E+00  0.93274058474E+02  0.10231699531E+03  0.41800000000E+01 0. -1.
        -11    1    1    2    0    0 -0.31302851288E+02 -0.32541271939E+02 -0.15727276256E+01  0.45180486389E+02  0.00000000000E+00 0.  1.
         11    1    1    2    0    0 -0.18123740648E+02  0.13804379011E+02  0.86974727888E+02  0.89909032617E+02  0.00000000000E+00 0. -1.
</event>
<event>
 7    1  0.2490079E-009  0.1143089E+03  0.7561462E-02  0.1252792E+00
          1   -1    0    0  501    0  0.00000000000E+00  0.00000000000E+00  0.30046806497E+03  0.30046806497E+03  0.00000000000E+00 0. -1.
         -1   -1    0    0    0  501 -0.00000000000E+00 -0.00000000000E+00 -0.82595509646E+02  0.82595509646E+02  0.00000000000E+00 0.  1.
         25    2    1    2    0    0  0.60310680497E+02  0.76810416693E+02  0.46529453485E+02  0.16537300968E+03  0.12508406771E+03 0.  0.
          5    1    3    3  502    0  0.70509342988E+00  0.59267839823E+02 -0.30118008184E+02  0.66616370443E+02  0.41800000000E+01 0.  1.
         -5    1    3    3    0  502  0.59605587067E+02  0.17542576869E+02  0.76647461669E+02  0.98756639235E+02  0.41800000000E+01 0.  1.
        -11    1    1    2    0    0 -0.67111900530E+02 -0.65829900862E+02  0.17934960226E+03  0.20249410577E+03  0.00000000000E+00 0. -1.
         11    1    1    2    0    0  0.68012200338E+01 -0.10980515830E+02 -0.80065004297E+01  0.15196459159E+02  0.00000000000E+00 0.  1.
</event>
<event>
 7    1  0.2490079E-009  0.2759123E+03  0.7561462E-02  0.1097943E+00
         -2   -1    0    0    0  501 -0.00000000000E+00  0.00000000000E+00  0.49218523791E+03  0.49218523791E+03  0.00000000000E+00 0.  1.
          2   -1    0    0  501    0  0.00000000000E+00 -0.00000000000E+00 -0.18745387071E+03  0.18745387071E+03  0.00000000000E+00 0. -1.
         25    2    1    2    0    0 -0.49671986478E+02 -0.26195589873E+03  0.48626215580E+02  0.29849702721E+03  0.12509103600E+03 0.  0.
          5    1    3    3  502    0 -0.73645875929E+01 -0.19764486522E+03 -0.15203314574E+02  0.19840953373E+03  0.41800000000E+01 0. -1.
         -5    1    3    3    0  502 -0.42307398885E+02 -0.64311033510E+02  0.63829530153E+02  0.10008749348E+03  0.41800000000E+01 0. -1.
        -11    1    1    2    0    0 -0.13675708692E+02  0.12797603335E+03  0.15628277186E+03  0.20245788427E+03  0.00000000000E+00 0.  1.
         11    1    1    2    0    0  0.63347695169E+02  0.13397986538E+03  0.99822379752E+02  0.17868419715E+03  0.00000000000E+00 0. -1.
</event>
<event>
 7    1  0.2490079E-009  0.7622786E+02  0.7561462E-02  0.1340110E+00
          1   -1    0    0  501    0  0.00000000000E+00  0.00000000000E+00  0.73240573979E+03  0.73240573979E+03  0.00000000000E+00 0. -1.
         -1   -1    0    0    0  501 -0.00000000000E+00 -0.00000000000E+00 -0.18828443425E+02  0.18828443425E+02  0.00000000000E+00 0.  1.
         25    2    1    2    0    0 -0.98933899514E+00 -0.13434023522E+02  0.54312850603E+03  0.55751030861E+03  0.12509084044E+03 0.  0.
          5    1    3    3  502    0 -0.34700751114E+02  0.88861062105E+01  0.48633524411E+03  0.48767053128E+03  0.41800000000E+01 0.  1.
         -5    1    3    3    0  502  0.33711412119E+02 -0.22320129732E+02  0.56793261918E+02  0.69839777331E+02  0.41800000000E+01 0.  1.
        -11    1    1    2    0    0  0.80253597868E+00 -0.31150589741E+02  0.20530348811E+02  0.37316196584E+02  0.00000000000E+00 0.  1.
         11    1    1    2    0    0  0.18680301646E+00  0.44584613263E+02  0.14991844153E+03  0.15640767803E+03  0.00000000000E+00 0. -1.
</event>
<event>
 7    1  0.2810140E-009  0.1328534E+03  0.7561462E-02  0.1223282E+00
          2   -1    0    0  501    0  0.00000000000E+00  0.00000000000E+00  0.11267559018E+03  0.11267559018E+03  0.00000000000E+00 0.  1.
         -2   -1    0    0    0  501 -0.00000000000E+00 -0.00000000000E+00 -0.19071945256E+03  0.19071945256E+03  0.00000000000E+00 0. -1.
         25    2    1    2    0    0 -0.94301046982E+01  0.92961189795E+02 -0.72602512894E+02  0.17219015047E+03  0.12509042073E+03 0.  0.
          5    1    3    3  502    0 -0.63484666452E+02  0.58869297543E+02 -0.63615271509E+02  0.10751870645E+03  0.41800000000E+01 0. -1.
         -5    1    3    3    0  502  0.54054561754E+02  0.34091892253E+02 -0.89872413852E+01  0.64671444019E+02  0.41800000000E+01 0. -1.
        -11    1    1    2    0    0  0.32552484739E+02 -0.19448530830E+02 -0.32078014560E+02  0.49667983976E+02  0.00000000000E+00 0. -1.
         11    1    1    2    0    0 -0.23122380041E+02 -0.73512658966E+02  0.26636665080E+02  0.81536908290E+02  0.00000000000E+00 0.  1.
</event>
<event>
 7    1  0.2490079E-009  0.8056423E+02  0.7561462E-02  0.1327458E+00
         -3   -1    0    0    0  501 -0.00000000000E+00  0.00000000000E+00  0.28788602933E+02  0.28788602933E+02  0.00000000000E+00 0.  1.
          3   -1    0    0  501    0  0.00000000000E+00 -0.00000000000E+00 -0.49512905594E+03  0.49512905594E+03  0.00000000000E+00 0. -1.
         25    2    1    2    0    0 -0.45377630524E+02 -0.87271023035E+00 -0.21007064145E+03  0.24867087425E+03  0.12509052054E+03 0.  0.
          5    1    3    3  502    0 -0.54947050793E+02  0.21322862352E+01 -0.22417934699E+03  0.23086268007E+03  0.41800000000E+01 0. -1.
         -5    1    3    3    0  502  0.95694202695E+01 -0.30049964656E+01  0.14108705539E+02  0.17808194182E+02  0.41800000000E+01 0. -1.
        -11    1    1    2    0    0 -0.23013244464E+02  0.11791288674E+02 -0.35849807050E+02  0.44202404628E+02  0.00000000000E+00 0.  1.
         11    1    1    2    0    0  0.68390874988E+02 -0.10918578444E+02 -0.22042000451E+03  0.23104437999E+03  0.00000000000E+00 0. -1.
</event>
<event>
 7    1  0.2490079E-009  0.8407317E+02  0.7561462E-02  0.1317874E+00
         -1   -1    0    0    0  501 -0.00000000000E+00  0.00000000000E+00  0.74525539519E+03  0.74525539519E+03  0.00000000000E+00 0.  1.
          1   -1    0    0  501    0  0.00000000000E+00 -0.00000000000E+00 -0.20605934285E+02  0.20605934285E+02  0.00000000000E+00 0. -1.
         25    2    1    2    0    0  0.26060143009E+02  0.52382545280E+02  0.37291069214E+03  0.39765910631E+03  0.12508924179E+03 0.  0.
          5    1    3    3  502    0  0.12275575891E+02  0.19864750961E+02  0.35850176136E+03  0.35928579626E+03  0.41800000000E+01 0. -1.
         -5    1    3    3    0  502  0.13784567118E+02  0.32517794319E+02  0.14408930787E+02  0.38373310053E+02  0.41800000000E+01 0. -1.
        -11    1    1    2    0    0 -0.21427664309E+02  0.24092654780E+02  0.10668944959E+03  0.11145510068E+03  0.00000000000E+00 0. -1.
         11    1    1    2    0    0 -0.46324787000E+01 -0.76475200060E+02  0.24504931917E+03  0.25674712249E+03  0.00000000000E+00 0.  1.
</event>
<event>
 7    1  0.2490079E-009  0.1259475E+03  0.7561462E-02  0.1233596E+00
         -2   -1    0    0    0  501 -0.00000000000E+00  0.00000000000E+00  0.27142395142E+02  0.27142395142E+02  0.00000000000E+00 0. -1.
          2   -1    0    0  501    0  0.00000000000E+00 -0.00000000000E+00 -0.60584310733E+03  0.60584310733E+03  0.00000000000E+00 0.  1.
         25    2    1    2    0    0 -0.23709123647E+02 -0.61508587834E+02 -0.36778228724E+03  0.39402579595E+03  0.12508832138E+03 0.  0.
          5    1    3    3  502    0  0.51562086413E+02 -0.28567064078E+02 -0.15775753832E+03  0.16846257508E+03  0.41800000000E+01 0.  1.
         -5    1    3    3    0  502 -0.75271210061E+02 -0.32941523755E+02 -0.21002474892E+03  0.22556322088E+03  0.41800000000E+01 0.  1.
        -11    1    1    2    0    0  0.41859333437E+02  0.76358303479E+02 -0.14675809491E+03  0.17064797897E+03  0.00000000000E+00 0. -1.
         11    1    1    2    0    0 -0.18150209790E+02 -0.14849715645E+02 -0.64160330039E+02  0.68311727550E+02  0.00000000000E+00 0.  1.
</event>
<event>
 7    1  0.2490079E-009  0.7349813E+02  0.7561462E-02  0.1348586E+00
          1   -1    0    0  501    0  0.00000000000E+00  0.00000000000E+00  0.25640009658E+03  0.25640009658E+03  0.00000000000E+00 0. -1.
         -1   -1    0    0    0  501 -0.00000000000E+00 -0.00000000000E+00 -0.53129745035E+02  0.53129745035E+02  0.00000000000E+00 0.  1.
         25    2    1    2    0    0  0.30513900536E+01 -0.37704025434E+02  0.13760623260E+03  0.18977347296E+03  0.12509033246E+03 0.  0.
          5    1    3    3  502    0  0.13704339821E+02 -0.43637858740E+02 -0.53472281346E+01  0.46239992367E+02  0.41800000000E+01 0. -1.
         -5    1    3    3    0  502 -0.10652949768E+02  0.59338333065E+01  0.14295346073E+03  0.14353348059E+03  0.41800000000E+01 0. -1.
        -11    1    1    2    0    0  0.32037034308E+02 -0.55131120209E+01 -0.14741135663E+01  0.32541342661E+02  0.00000000000E+00 0.  1.
         11    1    1    2    0    0 -0.35088424361E+02  0.43217137455E+02  0.67138232520E+02  0.87215025998E+02  0.00000000000E+00 0. -1.
</event>
<event>
 7    1  0.2490079E-009  0.1153098E+03  0.7561462E-02  0.1251041E+00
          4   -1    0    0  501    0  0.00000000000E+00  0.00000000000E+00  0.35686959982E+03  0.35686959982E+03  0.00000000000E+00 0.  1.
         -4   -1    0    0    0  501 -0.00000000000E+00 -0.00000000000E+00 -0.44473256779E+02  0.44473256779E+02  0.00000000000E+00 0. -1.
         25    2    1    2    0    0  0.14036633338E+02 -0.37323444094E+02  0.25241311427E+03  0.28451825749E+03  0.12509273374E+03 0.  0.
          5    1    3    3  502    0 -0.38111061326E+02  0.27934157839E+02  0.99365338689E+02  0.11010773407E+03  0.41800000000E+01 0. -1.
         -5    1    3    3    0  502  0.52147694664E+02 -0.65257601932E+02  0.15304777558E+03  0.17441052342E+03  0.41800000000E+01 0. -1.
        -11    1    1    2    0    0 -0.96676073754E+01 -0.30287214746E+02  0.25765808707E+02  0.40922547669E+02  0.00000000000E+00 0.  1.
         11    1    1    2    0    0 -0.43690259627E+01  0.67610658840E+02  0.34217420063E+02  0.75902051437E+02  0.00000000000E+00 0. -1.
</event>
<event>
 7    1  0.2490079E-009  0.8917973E+02  0.7561462E-02  0.1304850E+00
         -2   -1    0    0    0  501 -0.00000000000E+00  0.00000000000E+00  0.67661540972E+02  0.67661540972E+02  0.00000000000E+00 0.  1.
          2   -1    0    0  501    0  0.00000000000E+00 -0.00000000000E+00 -0.21936482963E+03  0.21936482963E+03  0.00000000000E+00 0. -1.
         25    2    1    2    0    0 -0.64895130828E+01  0.23761452421E+02 -0.14301304615E+03  0.19158965701E+03  0.12508854824E+03 0.  0.
          5    1    3    3  502    0  0.16914134966E+02  0.49985911003E+02 -0.99030745583E+01  0.53853714321E+02  0.41800000000E+01 0. -1.
         -5    1    3    3    0  502 -0.23403648048E+02 -0.26224458582E+02 -0.13310997159E+03  0.13773594268E+03  0.41800000000E+01 0. -1.
        -11    1    1    2    0    0 -0.40071304657E+02 -0.14062040873E+02 -0.19395267023E+02  0.46686473773E+02  0.00000000000E+00 0. -1.
         11    1    1    2    0    0  0.46560817740E+02 -0.96994115478E+01  0.10705024516E+02  0.48750239824E+02  0.00000000000E+00 0.  1.
</event>
<event>
 7    1  0.2879860E-009  0.1289314E+03  0.7561462E-02  0.1229050E+00
         -2   -1    0    0    0  501 -0.00000000000E+00  0.00000000000E+00  0.20851983289E+02  0.20851983289E+02  0.00000000000E+00 0.  1.
          2   -1    0    0  501    0  0.00000000000E+00 -0.00000000000E+00 -0.88196269897E+03  0.88196269897E+03  0.00000000000E+00 0. -1.
         25    2    1    2    0    0  0.55114100715E+02  0.47932477943E+02 -0.35833974154E+03  0.38650968274E+03  0.12508908004E+03 0.  0.
          5    1    3    3  502    0  0.68861174015E+02 -0.19332411027E+02 -0.22999579016E+03  0.24089653235E+03  0.41800000000E+01 0. -1.
         -5    1    3    3    0  502 -0.13747073300E+02  0.67264888971E+02 -0.12834395137E+03  0.14561315039E+03  0.41800000000E+01 0. -1.
        -11    1    1    2    0    0  0.95924044089E+01 -0.51734963972E+02 -0.22771480448E+03  0.23371468268E+03  0.00000000000E+00 0.  1.
         11    1    1    2    0    0 -0.64706505124E+02  0.38024860289E+01 -0.27505616966E+03  0.28259031685E+03  0.00000000000E+00 0. -1.
</event>
<event>
 7    1  0.4027950E-009  0.1280676E+03  0.7561462E-02  0.1230351E+00
          2   -1    0    0  501    0  0.00000000000E+00  0.00000000000E+00  0.76301155179E+03  0.76301155179E+03  0.00000000000E+00 0. -1.
         -2   -1    0    0    0  501 -0.00000000000E+00 -0.00000000000E+00 -0.36721387664E+02  0.36721387664E+02  0.00000000000E+00 0.  1.
         25    2    1    2    0    0  0.70928030768E+02  0.81940547014E+02  0.54438081325E+03  0.56898334194E+03  0.12508610946E+03 0.  0.
          5    1    3    3  502    0  0.74322614564E+02  0.10238190443E+03  0.32809583067E+03  0.35166781469E+03  0.41800000000E+01 0.  1.
         -5    1    3    3    0  502 -0.33945837952E+01 -0.20441357416E+02  0.21628498258E+03  0.21731552725E+03  0.41800000000E+01 0.  1.
        -11    1    1    2    0    0 -0.54374688349E+02 -0.60912429343E+02  0.18650569654E+03  0.20359593715E+03  0.00000000000E+00 0. -1.
         11    1    1    2    0    0 -0.16553342419E+02 -0.21028117671E+02 -0.45963456580E+01  0.27153660369E+02  0.00000000000E+00 0.  1.
</event>
<event>
 7    1  0.2490079E-009  0.1628992E+03  0.7561462E-02  0.1185462E+00
         -2   -1    0    0    0  501 -0.00000000000E+00  0.00000000000E+00  0.44612320496E+03  0.44612320496E+03  0.00000000000E+00 0. -1.
          2   -1    0    0  501    0  0.00000000000E+00 -0.00000000000E+00 -0.73459800255E+02  0.73459800255E+02  0.00000000000E+00 0.  1.
         25    2    1    2    0    0 -0.12515459292E+03 -0.65997319169E+02  0.23584561288E+03  0.30214100149E+03  0.12508682346E+03 0.  0.
          5    1    3    3  502    0 -0.14154794632E+03 -0.79478046057E+02  0.18092081056E+03  0.24310983733E+03  0.41800000000E+01 0. -1.
         -5    1    3    3    0  502  0.16393353401E+02  0.13480726888E+02  0.54924802318E+02  0.59031164166E+02  0.41800000000E+01 0. -1.
        -11    1    1    2    0    0  0.21854829102E+02  0.15519042747E+02 -0.12013803819E+02  0.29373554859E+02  0.00000000000E+00 0.  1.
         11    1    1    2    0    0  0.10329976382E+03  0.50478276422E+02  0.14883159564E+03  0.18806844886E+03  0.00000000000E+00 0. -1.
</event>
<event>
 7    1  0.2490079E-009  0.1216327E+03  0.7561462E-02  0.1240428E+00
         -1   -1    0    0    0  501 -0.00000000000E+00  0.00000000000E+00  0.80445323039E+02  0.80445323039E+02  0.00000000000E+00 0.  1.
          1   -1    0    0  501    0  0.00000000000E+00 -0.00000000000E+00 -0.21167075804E+03  0.21167075804E+03  0.00000000000E+00 0. -1.
         25    2    1    2    0    0  0.68070841014E+02  0.24522188367E+02 -0.70847762394E+02  0.16094111160E+03  0.12509060256E+03 0.  0.
          5    1    3    3  502    0  0.23818320326E+02  0.73518331114E+02 -0.28925199349E+02  0.82622012505E+02  0.41800000000E+01 0.  1.
         -5    1    3    3    0  502  0.44252520688E+02 -0.48996142747E+02 -0.41922563045E+02  0.78319099098E+02  0.41800000000E+01 0.  1.
        -11    1    1    2    0    0 -0.44134237102E+02 -0.48680903342E+02 -0.46290972930E+01  0.65871767674E+02  0.00000000000E+00 0.  1.
         11    1    1    2    0    0 -0.23936603912E+02  0.24158714975E+02 -0.55748575312E+02  0.65303201800E+02  0.00000000000E+00 0. -1.
</event>
<event>
 7    1  0.2490079E-009  0.9438718E+02  0.7561462E-02  0.1292562E+00
         -2   -1    0    0    0  501 -0.00000000000E+00  0.00000000000E+00  0.58092868714E+02  0.58092868714E+02  0.00000000000E+00 0.  1.
          2   -1    0    0  501    0  0.00000000000E+00 -0.00000000000E+00 -0.22228411077E+03  0.22228411077E+03  0.00000000000E+00 0. -1.
         25    2    1    2    0    0 -0.19119542179E+02 -0.13447392978E+02 -0.12475960898E+03  0.17821238016E+03  0.12509317782E+03 0.  0.
          5    1    3    3  502    0 -0.45582741239E+02  0.28523367786E+02 -0.12438740967E+02  0.55349466895E+02  0.41800000000E+01 0. -1.
         -5    1    3    3    0  502  0.26463199060E+02 -0.41970760764E+02 -0.11232086802E+03  0.12286291326E+03  0.41800000000E+01 0. -1.
        -11    1    1    2    0    0  0.33381090481E+02  0.41690806630E+02 -0.45243116007E+02  0.69995429174E+02  0.00000000000E+00 0. -1.
         11    1    1    2    0    0 -0.14261548301E+02 -0.28243413652E+02  0.58114829306E+01  0.32169170156E+02  0.00000000000E+00 0.  1.
</event>
<event>
 7    1  0.2490079E-009  0.1721069E+03  0.7561462E-02  0.1175668E+00
         -1   -1    0    0    0  501 -0.00000000000E+00  0.00000000000E+00  0.10099932127E+03  0.10099932127E+03  0.00000000000E+00 0.  1.
          1   -1    0    0  501    0  0.00000000000E+00 -0.00000000000E+00 -0.38713520666E+03  0.38713520666E+03  0.00000000000E+00 0. -1.
         25    2    1    2    0    0 -0.14911257800E+03 -0.20512153606E+02 -0.68761127612E+02  0.20743886745E+03  0.12508989445E+03 0.  0.
          5    1    3    3  502    0 -0.13486513657E+03 -0.53035135277E+02 -0.85122504476E+02  0.16812092018E+03  0.41800000000E+01 0.  1.
         -5    1    3    3    0  502 -0.14247441437E+02  0.32522981671E+02  0.16361376864E+02  0.39317947265E+02  0.41800000000E+01 0.  1.
        -11    1    1    2    0    0  0.91444043491E+02 -0.19233472762E+02 -0.17621478877E+03  0.19945824462E+03  0.00000000000E+00 0. -1.
         11    1    1    2    0    0  0.57668534513E+02  0.39745626367E+02 -0.41159969006E+02  0.81237415867E+02  0.00000000000E+00 0.  1.
</event>
<event>
 7    1  0.2490079E-009  0.1285804E+03  0.7561462E-02  0.1229577E+00
         -2   -1    0    0    0  501 -0.00000000000E+00  0.00000000000E+00  0.30039968341E+02  0.30039968341E+02  0.00000000000E+00 0.  1.
          2   -1    0    0  501    0  0.00000000000E+00 -0.00000000000E+00 -0.12151798904E+04  0.12151798904E+04  0.00000000000E+00 0. -1.
         25    2    1    2    0    0  0.81068882029E+02 -0.73304836939E+02 -0.98421479608E+03  0.99813507260E+03  0.12509634519E+03 0.  0.
          5    1    3    3  502    0  0.89265841283E+02 -0.62371811681E+02 -0.97513317440E+03  0.98120375740E+03  0.41800000000E+01 0. -1.
         -5    1    3    3    0  502 -0.81969592532E+01 -0.10933025257E+02 -0.90816216833E+01  0.16931315208E+02  0.41800000000E+01 0. -1.
        -11    1    1    2    0    0 -0.33508582104E+02  0.79173688430E+02 -0.81748271184E+02  0.11863421874E+03  0.00000000000E+00 0.  1.
         11    1    1    2    0    0 -0.47560299926E+02 -0.58688514916E+01 -0.11917685479E+03  0.12845056740E+03  0.00000000000E+00 0. -1.
</event>
<event>
 7    1  0.2741890E-009  0.7266253E+02  0.7561462E-02  0.1351266E+00
         -1   -1    0    0    0  501 -0.00000000000E+00  0.00000000000E+00  0.19190856083E+03  0.19190856083E+03  0.00000000000E+00 0.  1.
          1   -1    0    0  501    0  0.00000000000E+00 -0.00000000000E+00 -0.71911793469E+02  0.71911793469E+02  0.00000000000E+00 0. -1.
         25    2    1    2    0    0 -0.31905515886E+02 -0.15202105312E+02  0.99694032194E+02  0.16381766625E+03  0.12509301247E+03 0.  0.
          5    1    3    3  502    0  0.67640284578E+00  0.22084845609E+02 -0.22558172289E+02  0.31851867503E+02  0.41800000000E+01 0.  1.
         -5    1    3    3    0  502 -0.32581918732E+02 -0.37286950921E+02  0.12225220448E+03  0.13196579874E+03  0.41800000000E+01 0.  1.
        -11    1    1    2    0    0 -0.73416824410E+00 -0.22935542008E+02  0.39970565576E+02  0.46089306815E+02  0.00000000000E+00 0.  1.
         11    1    1    2    0    0  0.32639684130E+02  0.38137647320E+02 -0.19667830410E+02  0.53913381235E+02  0.00000000000E+00 0. -1.
</event>
<event>
 7    1  0.2490079E-009  0.7043002E+02  0.7561462E-02  0.1358637E+00
          1   -1    0    0  501    0  0.00000000000E+00  0.00000000000E+00  0.55055459454E+03  0.55055459454E+03  0.00000000000E+00 0. -1.
         -1   -1    0    0    0  501 -0.00000000000E+00 -0.00000000000E+00 -0.23242160285E+02  0.23242160285E+02  0.00000000000E+00 0.  1.
         25    2    1    2    0    0 -0.56820786885E+01  0.26499901514E+02  0.35495352458E+03  0.37732721130E+03  0.12509711817E+03 0.  0.
          5    1    3    3  502    0  0.20540099607E+02  0.35076573234E+02  0.34543638893E+03  0.34784484024E+03  0.41800000000E+01 0.  1.
         -5    1    3    3    0  502 -0.26222178296E+02 -0.85766717195E+01  0.95171356502E+01  0.29482371061E+02  0.41800000000E+01 0.  1.
        -11    1    1    2    0    0  0.56628135691E+01  0.22445204394E+02  0.72479010859E+01  0.24256684192E+02  0.00000000000E+00 0.  1.
         11    1    1    2    0    0  0.19265119424E-01 -0.48945105908E+02  0.16511100859E+03  0.17221285933E+03  0.00000000000E+00 0. -1.
</event>
<event>
 7    1  0.2875738E-009  0.1271267E+03  0.7561462E-02  0.1231783E+00
         -2   -1    0    0    0  501 -0.00000000000E+00  0.00000000000E+00  0.41965288555E+02  0.41965288555E+02  0.00000000000E+00 0. -1.
          2   -1    0    0  501    0  0.00000000000E+00 -0.00000000000E+00 -0.49513339578E+03  0.49513339578E+03  0.00000000000E+00 0.  1.
         25    2    1    2    0    0  0.39649417262E+02  0.62375258945E+02 -0.13697553857E+03  0.19968212471E+03  0.12509158063E+03 0.  0.
          5    1    3    3  502    0  0.44436104986E+01  0.96003118132E+02 -0.85411796278E+02  0.12864288441E+03  0.41800000000E+01 0.  1.
         -5    1    3    3    0  502  0.35205806763E+02 -0.33627859187E+02 -0.51563742289E+02  0.71039240298E+02  0.41800000000E+01 0.  1.
        -11    1    1    2    0    0  0.24108265471E+02 -0.80141215950E+01 -0.30519586342E+02  0.39709945347E+02  0.00000000000E+00 0. -1.
         11    1    1    2    0    0 -0.63757682733E+02 -0.54361137350E+02 -0.28567298231E+03  0.29770661428E+03  0.00000000000E+00 0.  1.
</event>
<event>
 7    1  0.2490079E-009  0.1285883E+03  0.7561462E-02  0.1229566E+00
          2   -1    0    0  501    0  0.00000000000E+00  0.00000000000E+00  0.13898572821E+04  0.13898572821E+04  0.00000000000E+00 0. -1.
         -2   -1    0    0    0  501 -0.00000000000E+00 -0.00000000000E+00 -0.17307644409E+02  0.17307644409E+02  0.00000000000E+00 0.  1.
         25    2    1    2    0    0  0.98480971342E+02  0.48591706152E+02  0.66805134005E+03  0.68847716221E+03  0.12509418177E+03 0.  0.
          5    1    3    3  502    0  0.21166294837E+02 -0.42598693713E+01  0.45715646835E+03  0.45768511826E+03  0.41800000000E+01 0. -1.
         -5    1    3    3    0  502  0.77314676505E+02  0.52851575523E+02  0.21089487170E+03  0.23079204394E+03  0.41800000000E+01 0. -1.
        -11    1    1    2    0    0  0.12160153235E+02 -0.25732468918E+02  0.11576701597E+03  0.11921422427E+03  0.00000000000E+00 0.  1.
         11    1    1    2    0    0 -0.11064112458E+03 -0.22859237233E+02  0.58873128170E+03  0.59947354006E+03  0.00000000000E+00 0. -1.
</event>
<event>
 7    1  0.2490079E-009  0.1563922E+03  0.7561462E-02  0.1192831E+00
         -2   -1    0    0    0  501 -0.00000000000E+00  0.00000000000E+00  0.10305339832E+03  0.10305339832E+03  0.00000000000E+00 0.  1.
          2   -1    0    0  501    0  0.00000000000E+00 -0.00000000000E+00 -0.28276710754E+03  0.28276710754E+03  0.00000000000E+00 0. -1.
         25    2    1    2    0    0 -0.39408070221E+02 -0.12451183340E+03 -0.81784749117E+02  0.19847551280E+03  0.12509033271E+03 0.  0.
          5    1    3    3  502    0 -0.70955991993E+02 -0.10530338539E+03 -0.95411864298E+02  0.15888502768E+03  0.41800000000E+01 0. -1.
         -5    1    3    3    0  502  0.31547921772E+02 -0.19208448015E+02  0.13627115181E+02  0.39590485112E+02  0.41800000000E+01 0. -1.
        -11    1    1    2    0    0 -0.17081481195E+02  0.75476164562E+01  0.74275840653E+01  0.20097574954E+02  0.00000000000E+00 0.  1.
         11    1    1    2    0    0  0.56489551416E+02  0.11696421694E+03 -0.10535654417E+03  0.16724741811E+03  0.00000000000E+00 0. -1.
</event>
<event>
 7    1  0.2490079E-009  0.1675194E+03  0.7561462E-02  0.1180460E+00
         -1   -1    0    0    0  501 -0.00000000000E+00  0.00000000000E+00  0.52719198709E+02  0.52719198709E+02  0.00000000000E+00 0.  1.
          1   -1    0    0  501    0  0.00000000000E+00 -0.00000000000E+00 -0.79663210246E+03  0.79663210246E+03  0.00000000000E+00 0. -1.
         25    2    1    2    0    0 -0.13240283171E+03  0.35875586992E+02 -0.16703035121E+03  0.24973019646E+03  0.12509382563E+03 0.  0.
          5    1    3    3  502    0  0.18311284772E+02 -0.25260750196E+01  0.30792729083E+01  0.19199961631E+02  0.41800000000E+01 0.  1.
         -5    1    3    3    0  502 -0.15071411648E+03  0.38401662012E+02 -0.17010962412E+03  0.23053023483E+03  0.41800000000E+01 0.  1.
        -11    1    1    2    0    0  0.12118316360E+03 -0.59012336327E+02 -0.43419483424E+03  0.45463498443E+03  0.00000000000E+00 0.  1.
         11    1    1    2    0    0  0.11219668108E+02  0.23136749334E+02 -0.14268771830E+03  0.14498612028E+03  0.00000000000E+00 0. -1.
</event>
<event>
 7    1  0.2490079E-009  0.2099673E+03  0.7561462E-02  0.1141592E+00
         -1   -1    0    0    0  501 -0.00000000000E+00  0.00000000000E+00  0.21600612778E+03  0.21600612778E+03  0.00000000000E+00 0.  1.
          1   -1    0    0  501    0  0.00000000000E+00 -0.00000000000E+00 -0.21091851870E+03  0.21091851870E+03  0.00000000000E+00 0. -1.
         25    2    1    2    0    0 -0.18041974030E+03  0.14960955734E+02  0.31968955662E+02  0.22236226359E+03  0.12509136364E+03 0.  0.
          5    1    3    3  502    0 -0.11460219794E+03 -0.51719832628E+02  0.25450749139E+02  0.12835037160E+03  0.41800000000E+01 0.  1.
         -5    1    3    3    0  502 -0.65817542361E+02  0.66680788363E+02  0.65182065225E+01  0.94011891989E+02  0.41800000000E+01 0.  1.
        -11    1    1    2    0    0  0.71024647843E+02 -0.48408798093E+02  0.40881412409E+01  0.86050132091E+02  0.00000000000E+00 0. -1.
         11    1    1    2    0    0  0.10939509245E+03  0.33447842358E+02 -0.30969487827E+02  0.11851225079E+03  0.00000000000E+00 0.  1.
</event>
<event>
 7    1  0.2490079E-009  0.8248989E+02  0.7561462E-02  0.1322130E+00
          2   -1    0    0  501    0  0.00000000000E+00  0.00000000000E+00  0.11251073768E+03  0.11251073768E+03  0.00000000000E+00 0. -1.
         -2   -1    0    0    0  501 -0.00000000000E+00 -0.00000000000E+00 -0.12433879416E+03  0.12433879416E+03  0.00000000000E+00 0.  1.
         25    2    1    2    0    0  0.35343484272E+02  0.15041711793E+02  0.20370377960E+02  0.13242875294E+03  0.12508799836E+03 0.  0.
          5    1    3    3  502    0 -0.36559119537E+02  0.34859735801E+02  0.27007168426E+02  0.57433700454E+02  0.41800000000E+01 0.  1.
         -5    1    3    3    0  502  0.71902603809E+02 -0.19818024008E+02 -0.66367904666E+01  0.74995052489E+02  0.41800000000E+01 0.  1.
        -11    1    1    2    0    0 -0.15842397129E+02 -0.11955884932E+02 -0.63989960793E+02  0.66997311988E+02  0.00000000000E+00 0.  1.
         11    1    1    2    0    0 -0.19501087143E+02 -0.30858268613E+01  0.31791526359E+02  0.37423466908E+02  0.00000000000E+00 0. -1.
</event>
<event>
 7    1  0.2490079E-009  0.9740283E+02  0.7561462E-02  0.1285854E+00
          1   -1    0    0  501    0  0.00000000000E+00  0.00000000000E+00  0.22789048633E+03  0.22789048633E+03  0.00000000000E+00 0. -1.
         -1   -1    0    0    0  501 -0.00000000000E+00 -0.00000000000E+00 -0.64147519831E+02  0.64147519831E+02  0.00000000000E+00 0.  1.
         25    2    1    2    0    0 -0.35901308775E+02  0.35588567886E+02  0.11469592299E+03  0.17708104820E+03  0.12508833977E+03 0.  0.
          5    1    3    3  502    0 -0.17555624948E+02  0.70663453088E+02  0.11626586748E+03  0.13724703243E+03  0.41800000000E+01 0. -1.
         -5    1    3    3    0  502 -0.18345683827E+02 -0.35074885202E+02 -0.15699444939E+01  0.39834015775E+02  0.41800000000E+01 0. -1.
        -11    1    1    2    0    0  0.30546182765E+02  0.12993463103E+02  0.56486121242E+02  0.65517793445E+02  0.00000000000E+00 0.  1.
         11    1    1    2    0    0  0.53551260095E+01 -0.48582030989E+02 -0.74390777344E+01  0.49439164507E+02  0.00000000000E+00 0. -1.
</event>
<event>
 7    1  0.2490079E-009  0.1611247E+03  0.7561462E-02  0.1187433E+00
         -2   -1    0    0    0  501 -0.00000000000E+00  0.00000000000E+00  0.10474539903E+04  0.10474539903E+04  0.00000000000E+00 0.  1.
          2   -1    0    0  501    0  0.00000000000E+00 -0.00000000000E+00 -0.30481730815E+02  0.30481730815E+02  0.00000000000E+00 0. -1.
         25    2    1    2    0    0 -0.71187533376E+02 -0.11958255813E+03  0.46135791542E+03  0.49786162534E+03  0.12508964287E+03 0.  0.
          5    1    3    3  502    0 -0.39843775071E+02  0.16351800168E+02  0.69259877908E+02  0.81665848850E+02  0.41800000000E+01 0.  1.
         -5    1    3    3    0  502 -0.31343758305E+02 -0.13593435830E+03  0.39209803751E+03  0.41619577649E+03  0.41800000000E+01 0.  1.
        -11    1    1    2    0    0  0.35699950821E+02  0.68032246623E+02  0.45602994736E+03  0.46245668549E+03  0.00000000000E+00 0.  1.
         11    1    1    2    0    0  0.35487582555E+02  0.51550311509E+02  0.99584396683E+02  0.11761741025E+03  0.00000000000E+00 0. -1.
</event>
<event>
 7    1  0.2490079E-009  0.6440328E+02  0.7561462E-02  0.1380230E+00
         -1   -1    0    0    0  501 -0.00000000000E+00  0.00000000000E+00  0.39628162039E+02  0.39628162039E+02  0.00000000000E+00 0.  1.
          1   -1    0    0  501    0  0.00000000000E+00 -0.00000000000E+00 -0.34068810313E+03  0.34068810313E+03  0.00000000000E+00 0. -1.
         25    2    1    2    0    0 -0.32144285678E+02  0.21038548958E+02 -0.19557526874E+03  0.23531522407E+03  0.12509074024E+03 0.  0.
          5    1    3    3  502    0 -0.41046985111E+02 -0.38935922225E+00 -0.20559700372E+03  0.20969646379E+03  0.41800000000E+01 0.  1.
         -5    1    3    3    0  502  0.89026994330E+01  0.21427908181E+02  0.10021734981E+02  0.25618760279E+02  0.41800000000E+01 0.  1.
        -11    1    1    2    0    0  0.43164563650E+02 -0.35673075811E+01 -0.63950933908E+01  0.43781302606E+02  0.00000000000E+00 0.  1.
         11    1    1    2    0    0 -0.11020277972E+02 -0.17471241377E+02 -0.99089578960E+02  0.10121973849E+03  0.00000000000E+00 0. -1.
</event>
<event>
 7    1  0.2490079E-009  0.1275097E+03  0.7561462E-02  0.1231198E+00
         -2   -1    0    0    0  501 -0.00000000000E+00  0.00000000000E+00  0.91649059624E+02  0.91649059624E+02  0.00000000000E+00 0.  1.
          2   -1    0    0  501    0  0.00000000000E+00 -0.00000000000E+00 -0.23792848239E+03  0.23792848239E+03  0.00000000000E+00 0. -1.
         25    2    1    2    0    0  0.74599991468E+02  0.55369548675E+02 -0.38115052626E+02  0.16041687229E+03  0.12509944057E+03 0.  0.
          5    1    3    3  502    0 -0.25543805001E+02  0.41736047176E+02  0.70930364968E+01  0.49620229489E+02  0.41800000000E+01 0. -1.
         -5    1    3    3    0  502  0.10014379647E+03  0.13633501498E+02 -0.45208089123E+02  0.11079664280E+03  0.41800000000E+01 0. -1.
        -11    1    1    2    0    0 -0.81205235141E+02 -0.46117727363E+02 -0.12045714266E+03  0.15241738159E+03  0.00000000000E+00 0. -1.
         11    1    1    2    0    0  0.66052436732E+01 -0.92518213116E+01  0.12292772518E+02  0.16743288140E+02  0.00000000000E+00 0.  1.
</event>
<event>
 7    1  0.2490079E-009  0.1267913E+03  0.7561462E-02  0.1232296E+00
         -2   -1    0    0    0  501 -0.00000000000E+00  0.00000000000E+00  0.49286561880E+03  0.49286561880E+03  0.00000000000E+00 0.  1.
          2   -1    0    0  501    0  0.00000000000E+00 -0.00000000000E+00 -0.40331182819E+02  0.40331182819E+02  0.00000000000E+00 0. -1.
         25    2    1    2    0    0 -0.78001799951E+02  0.23743261471E+02  0.17959685499E+03  0.23356245460E+03  0.12509343155E+03 0.  0.
          5    1    3    3  502    0  0.16075051026E+02 -0.23657110132E+02  0.92187887670E+02  0.96613379810E+02  0.41800000000E+01 0.  1.
         -5    1    3    3    0  502 -0.94076850978E+02  0.47400371603E+02  0.87408967315E+02  0.13694907479E+03  0.41800000000E+01 0.  1.
        -11    1    1    2    0    0  0.59962978899E+01  0.29242445896E+02  0.38412254177E+02  0.48647481963E+02  0.00000000000E+00 0. -1.
         11    1    1    2    0    0  0.72005502061E+02 -0.52985707367E+02  0.23452532682E+03  0.25098686505E+03  0.00000000000E+00 0.  1.
</event>
<event>
 7    1  0.2490079E-009  0.7513858E+02  0.7561462E-02  0.1343442E+00
          1   -1    0    0  501    0  0.00000000000E+00  0.00000000000E+00  0.24265061137E+03  0.24265061137E+03  0.00000000000E+00 0. -1.
         -1   -1    0    0    0  501 -0.00000000000E+00 -0.00000000000E+00 -0.51681926782E+02  0.51681926782E+02  0.00000000000E+00 0.  1.
         25    2    1    2    0    0 -0.71704704471E+01 -0.19164221716E+02  0.14049619475E+03  0.18922017539E+03  0.12508561466E+03 0.  0.
          5    1    3    3  502    0 -0.27853319189E+02 -0.26184741918E+02 -0.78219372163E+01  0.39244148621E+02  0.41800000000E+01 0.  1.
         -5    1    3    3    0  502  0.20682848742E+02  0.70205202016E+01  0.14831813197E+03  0.14997602677E+03  0.41800000000E+01 0.  1.
        -11    1    1    2    0    0 -0.24070026375E+02  0.43678579113E+02  0.40301147916E+02  0.64119942033E+02  0.00000000000E+00 0. -1.
         11    1    1    2    0    0  0.31240496823E+02 -0.24514357397E+02  0.10171341918E+02  0.40992420723E+02  0.00000000000E+00 0.  1.
</event>
<event>
 7    1  0.2490079E-009  0.1535766E+03  0.7561462E-02  0.1196146E+00
          1   -1    0    0  501    0  0.00000000000E+00  0.00000000000E+00  0.32350193495E+02  0.32350193495E+02  0.00000000000E+00 0. -1.
         -1   -1    0    0    0  501 -0.00000000000E+00 -0.00000000000E+00 -0.77402423957E+03  0.77402423957E+03  0.00000000000E+00 0.  1.
         25    2    1    2    0    0 -0.10157399522E+03 -0.49926148564E+02 -0.40143500035E+03  0.43543860684E+03  0.12508726555E+03 0.  0.
          5    1    3    3  502    0  0.15765067454E+02 -0.47807269585E+02 -0.10267306151E+03  0.11442596881E+03  0.41800000000E+01 0. -1.
         -5    1    3    3    0  502 -0.11733906268E+03 -0.21188789792E+01 -0.29876193884E+03  0.32101263803E+03  0.41800000000E+01 0. -1.
        -11    1    1    2    0    0  0.72278717398E+02 -0.95513214822E+01 -0.23938124880E+03  0.25023753317E+03  0.00000000000E+00 0. -1.
         11    1    1    2    0    0  0.29295277824E+02  0.59477470046E+02 -0.10085779693E+03  0.12069829306E+03  0.00000000000E+00 0.  1.
</event>
<event>
 7    1  0.2490079E-009  0.7660295E+02  0.7561462E-02  0.1338978E+00
         -4   -1    0    0    0  501 -0.00000000000E+00  0.00000000000E+00  0.19763165388E+03  0.19763165388E+03  0.00000000000E+00 0.  1.
          4   -1    0    0  501    0  0.00000000000E+00 -0.00000000000E+00 -0.66354682303E+02  0.66354682303E+02  0.00000000000E+00 0. -1.
         25    2    1    2    0    0 -0.16559176041E+02 -0.18426244194E+02  0.10459472956E+03  0.16492859205E+03  0.12509056815E+03 0.  0.
          5    1    3    3  502    0 -0.50138279025E+02 -0.12588527250E+02 -0.30370263575E+01  0.51952035292E+02  0.41800000000E+01 0. -1.
         -5    1    3    3    0  502  0.33579102984E+02 -0.58377169440E+01  0.10763175591E+03  0.11297655676E+03  0.41800000000E+01 0. -1.
        -11    1    1    2    0    0  0.32686294259E+02 -0.10120635074E+02 -0.21769228319E+02  0.40555152426E+02  0.00000000000E+00 0. -1.
         11    1    1    2    0    0 -0.16127118218E+02  0.28546879268E+02  0.48451470338E+02  0.58502591702E+02  0.00000000000E+00 0.  1.
</event>
<event>
 7    1  0.2490079E-009  0.3214802E+03  0.7561462E-02  0.1074970E+00
         -2   -1    0    0    0  501 -0.00000000000E+00  0.00000000000E+00  0.60006589637E+02  0.60006589637E+02  0.00000000000E+00 0. -1.
          2   -1    0    0  501    0  0.00000000000E+00 -0.00000000000E+00 -0.20854713861E+04  0.20854713861E+04  0.00000000000E+00 0.  1.
         25    2    1    2    0    0  0.26649468675E+03 -0.16667203461E+03 -0.13888059377E+04  0.14294143842E+04  0.12507823134E+03 0.  0.
          5    1    3    3  502    0  0.21052791614E+03 -0.14203224997E+03 -0.85011189881E+03  0.88724454149E+03  0.41800000000E+01 0.  1.
         -5    1    3    3    0  502  0.55966770613E+02 -0.24639784631E+02 -0.53869403885E+03  0.54216984267E+03  0.41800000000E+01 0.  1.
        -11    1    1    2    0    0 -0.19529396716E+03  0.16624673024E+03 -0.50412249796E+03  0.56561223631E+03  0.00000000000E+00 0.  1.
         11    1    1    2    0    0 -0.71200719598E+02  0.42530437009E+00 -0.13253636080E+03  0.15045135523E+03  0.00000000000E+00 0. -1.
</event>
<event>
 7    1  0.2490079E-009  0.1039415E+03  0.7561462E-02  0.1272219E+00
         -3   -1    0    0    0  501 -0.00000000000E+00  0.00000000000E+00  0.62502505730E+03  0.62502505730E+03  0.00000000000E+00 0.  1.
          3   -1    0    0  501    0  0.00000000000E+00 -0.00000000000E+00 -0.21055451188E+02  0.21055451188E+02  0.00000000000E+00 0. -1.
         25    2    1    2    0    0  0.34307006044E+01 -0.32660495180E+02  0.30906810262E+03  0.33503541034E+03  0.12508859448E+03 0.  0.
          5    1    3    3  502    0 -0.32076201667E+02 -0.61362408821E+02  0.25439719799E+03  0.26368472590E+03  0.41800000000E+01 0.  1.
         -5    1    3    3    0  502  0.35506902271E+02  0.28701913641E+02  0.54670904633E+02  0.71350684433E+02  0.41800000000E+01 0.  1.
        -11    1    1    2    0    0 -0.75910694412E+01  0.62288879373E+02  0.14204185076E+03  0.15528495161E+03  0.00000000000E+00 0. -1.
         11    1    1    2    0    0  0.41603688367E+01 -0.29628384193E+02  0.15285965274E+03  0.15576014655E+03  0.00000000000E+00 0.  1.
</event>
<event>
 7    1  0.2490079E-009  0.9960102E+02  0.7561462E-02  0.1281137E+00
          3   -1    0    0  501    0  0.00000000000E+00  0.00000000000E+00  0.51157575103E+02  0.51157575103E+02  0.00000000000E+00 0. -1.
         -3   -1    0    0    0  501 -0.00000000000E+00 -0.00000000000E+00 -0.42549140379E+03  0.42549140379E+03  0.00000000000E+00 0.  1.
         25    2    1    2    0    0  0.38357095199E+02 -0.78411962825E+02 -0.12401440633E+03  0.19658666099E+03  0.12508812748E+03 0.  0.
          5    1    3    3  502    0  0.57121493047E+02 -0.43972990824E+02 -0.63484322915E+01  0.72486301343E+02  0.41800000000E+01 0. -1.
         -5    1    3    3    0  502 -0.18764397848E+02 -0.34438972001E+02 -0.11766597404E+03  0.12410035965E+03  0.41800000000E+01 0. -1.
        -11    1    1    2    0    0 -0.29201411056E+02  0.65599411762E+02 -0.25394591595E+03  0.26390250748E+03  0.00000000000E+00 0.  1.
         11    1    1    2    0    0 -0.91556841430E+01  0.12812551063E+02  0.36264935896E+01  0.16159810414E+02  0.00000000000E+00 0. -1.
</event>
<event>
 7    1  0.2490079E-009  0.1561145E+03  0.7561462E-02  0.1193155E+00
          1   -1    0    0  501    0  0.00000000000E+00  0.00000000000E+00  0.64875675971E+02  0.64875675971E+02  0.00000000000E+00 0. -1.
         -1   -1    0    0    0  501 -0.00000000000E+00 -0.00000000000E+00 -0.47406380132E+03  0.47406380132E+03  0.00000000000E+00 0.  1.
         25    2    1    2    0    0 -0.44600577000E+02 -0.12942417799E+03 -0.22849594932E+03  0.29427315270E+03  0.12508581145E+03 0.  0.
          5    1    3    3  502    0 -0.48632555868E+02 -0.20651897903E+02 -0.15797717805E+02  0.55305213724E+02  0.41800000000E+01 0. -1.
         -5    1    3    3    0  502  0.40319788680E+01 -0.10877228009E+03 -0.21269823151E+03  0.23896793898E+03  0.41800000000E+01 0. -1.
        -11    1    1    2    0    0  0.60445120393E+02  0.10595142305E+03 -0.17858489556E+03  0.21626807797E+03  0.00000000000E+00 0.  1.
         11    1    1    2    0    0 -0.15844543393E+02  0.23472754947E+02 -0.21072804655E+01  0.28398246620E+02  0.00000000000E+00 0. -1.
</event>
<event>
 7    1  0.2490079E-009  0.1880156E+03  0.7561462E-02  0.1160263E+00
         -1   -1    0    0    0  501 -0.00000000000E+00  0.00000000000E+00  0.55788734091E+03  0.55788734091E+03  0.00000000000E+00 0.  1.
          1   -1    0    0  501    0  0.00000000000E+00 -0.00000000000E+00 -0.79886767172E+02  0.79886767172E+02  0.00000000000E+00 0. -1.
         25    2    1    2    0    0 -0.18058790247E+03 -0.19740914599E+02  0.25258211379E+03  0.33533035870E+03  0.12508809308E+03 0.  0.
          5    1    3    3  502    0 -0.15875705455E+02  0.18859629447E+02  0.11368194584E+03  0.11639923048E+03  0.41800000000E+01 0.  1.
         -5    1    3    3    0  502 -0.16471219702E+03 -0.38600544046E+02  0.13890016795E+03  0.21893112822E+03  0.41800000000E+01 0.  1.
        -11    1    1    2    0    0  0.98386426922E+02  0.72156335580E+01  0.18573810131E+03  0.21031071453E+03  0.00000000000E+00 0.  1.
         11    1    1    2    0    0  0.82201475551E+02  0.12525281041E+02  0.39680358634E+02  0.92133034842E+02  0.00000000000E+00 0. -1.
</event>
<event>
 7    1  0.2490079E-009  0.9692307E+02  0.7561462E-02  0.1286903E+00
          1   -1    0    0  501    0  0.00000000000E+00  0.00000000000E+00  0.75613759676E+02  0.75613759676E+02  0.00000000000E+00 0. -1.
         -1   -1    0    0    0  501 -0.00000000000E+00 -0.00000000000E+00 -0.21967535545E+03  0.21967535545E+03  0.00000000000E+00 0.  1.
         25    2    1    2    0    0 -0.45809351731E+01  0.27856714005E+02 -0.72368837391E+01  0.12844349113E+03  0.12509347083E+03 0.  0.
          5    1    3    3  502    0  0.42607021605E+02 -0.30782346867E+02 -0.17478053507E+00  0.52729632248E+02  0.41800000000E+01 0.  1.
         -5    1    3    3    0  502 -0.47187956778E+02  0.58639060872E+02 -0.70621032040E+01  0.75713858880E+02  0.41800000000E+01 0.  1.
        -11    1    1    2    0    0 -0.21398457221E+01 -0.46173035730E+02 -0.23499527356E+02  0.51853215466E+02  0.00000000000E+00 0. -1.
         11    1    1    2    0    0  0.67207808952E+01  0.18316321725E+02 -0.11332518468E+03  0.11499240853E+03  0.00000000000E+00 0.  1.
</event>
<event>
 7    1  0.2490079E-009  0.7856682E+02  0.7561462E-02  0.1333168E+00
         -1   -1    0    0    0  501 -0.00000000000E+00  0.00000000000E+00  0.10680472155E+03  0.10680472155E+03  0.00000000000E+00 0.  1.
          1   -1    0    0  501    0  0.00000000000E+00 -0.00000000000E+00 -0.13741030892E+03  0.13741030892E+03  0.00000000000E+00 0. -1.
         25    2    1    2    0    0  0.94456976820E+01  0.24578762254E+02 -0.63567011854E+02  0.14276615409E+03  0.12509225795E+03 0.  0.
          5    1    3    3  502    0  0.38169215662E+02 -0.17368848639E+02 -0.78943524066E+02  0.89488090377E+02  0.41800000000E+01 0. -1.
         -5    1    3    3    0  502 -0.28723517980E+02  0.41947610893E+02  0.15376512213E+02  0.53278063709E+02  0.41800000000E+01 0. -1.
        -11    1    1    2    0    0 -0.22569017700E+02  0.11684845997E+02 -0.22468883225E+02  0.33922660558E+02  0.00000000000E+00 0. -1.
         11    1    1    2    0    0  0.13123320018E+02 -0.36263608251E+02  0.55430307709E+02  0.67526215830E+02  0.00000000000E+00 0.  1.
</event>
<event>
 7    1  0.2490079E-009  0.2691082E+03  0.7561462E-02  0.1101791E+00
          2   -1    0    0  501    0  0.00000000000E+00  0.00000000000E+00  0.17687019151E+04  0.17687019151E+04  0.00000000000E+00 0. -1.
         -2   -1    0    0    0  501 -0.00000000000E+00 -0.00000000000E+00 -0.55823644783E+02  0.55823644783E+02  0.00000000000E+00 0.  1.
         25    2    1    2    0    0  0.25999663649E+03  0.68892867851E+02  0.12214692994E+04  0.12569722277E+04  0.12508978226E+03 0.  0.
          5    1    3    3  502    0  0.18062786103E+03  0.46087829311E+02  0.10521189553E+04  0.10685140527E+04  0.41800000000E+01 0.  1.
         -5    1    3    3    0  502  0.79368775462E+02  0.22805038541E+02  0.16935034405E+03  0.18845817502E+03  0.41800000000E+01 0.  1.
        -11    1    1    2    0    0 -0.17284291737E+03 -0.49364068297E+02  0.23388452641E+03  0.29498043497E+03  0.00000000000E+00 0.  1.
         11    1    1    2    0    0 -0.87153719120E+02 -0.19528799555E+02  0.25752444449E+03  0.27257289718E+03  0.00000000000E+00 0. -1.
</event>
<event>
 7    1  0.2490079E-009  0.1855942E+03  0.7561462E-02  0.1162496E+00
          2   -1    0    0  501    0  0.00000000000E+00  0.00000000000E+00  0.12783138812E+04  0.12783138812E+04  0.00000000000E+00 0. -1.
         -2   -1    0    0    0  501 -0.00000000000E+00 -0.00000000000E+00 -0.22431518331E+03  0.22431518331E+03  0.00000000000E+00 0.  1.
         25    2    1    2    0    0  0.91784005467E+02 -0.12230979460E+03  0.12338873159E+04  0.12496041041E+04  0.12509404151E+03 0.  0.
          5    1    3    3  502    0 -0.19597624025E+02  0.88040209898E+01  0.23347843894E+03  0.23450209275E+03  0.41800000000E+01 0.  1.
         -5    1    3    3    0  502  0.11138162949E+03 -0.13111381559E+03  0.10004088769E+04  0.10151020113E+04  0.41800000000E+01 0.  1.
        -11    1    1    2    0    0 -0.38966087567E+02  0.11794566871E+03 -0.13624376830E+03  0.18436892674E+03  0.00000000000E+00 0.  1.
         11    1    1    2    0    0 -0.52817917901E+02  0.43641258917E+01 -0.43644849717E+02  0.68656033624E+02  0.00000000000E+00 0. -1.
</event>
<event>
 7    1  0.2490079E-009  0.1039162E+03  0.7561462E-02  0.1272270E+00
          1   -1    0    0  501    0  0.00000000000E+00  0.00000000000E+00  0.13031066741E+04  0.13031066741E+04  0.00000000000E+00 0. -1.
         -1   -1    0    0    0  501 -0.00000000000E+00 -0.00000000000E+00 -0.12216613895E+02  0.12216613895E+02  0.00000000000E+00 0.  1.
         25    2    1    2    0    0 -0.25362819628E+02 -0.58949748283E+02  0.76275117077E+03  0.77560019489E+03  0.12509183972E+03 0.  0.
          5    1    3    3  502    0 -0.17338248570E+02 -0.77019859164E+02  0.24468112582E+03  0.25713614935E+03  0.41800000000E+01 0.  1.
         -5    1    3    3    0  502 -0.80245710581E+01  0.18070110882E+02  0.51807004495E+03  0.51846404554E+03  0.41800000000E+01 0.  1.
        -11    1    1    2    0    0 -0.26948069615E+02 -0.34186953522E+01  0.87189290360E+02  0.91322824570E+02  0.00000000000E+00 0.  1.
         11    1    1    2    0    0  0.52310889243E+02  0.62368443635E+02  0.44094959906E+03  0.44840026852E+03  0.00000000000E+00 0. -1.
</event>
<event>
 7    1  0.2490079E-009  0.9822531E+02  0.7561462E-02  0.1284073E+00
          1   -1    0    0  501    0  0.00000000000E+00  0.00000000000E+00  0.72448516937E+02  0.72448516937E+02  0.00000000000E+00 0. -1.
         -1   -1    0    0    0  501 -0.00000000000E+00 -0.00000000000E+00 -0.24625819382E+03  0.24625819382E+03  0.00000000000E+00 0.  1.
         25    2    1    2    0    0  0.45405434739E+02 -0.30306951646E+01 -0.16284756011E+03  0.21032762603E+03  0.12509014278E+03 0.  0.
          5    1    3    3  502    0 -0.34450100932E+02 -0.32801060540E+02 -0.56221447073E+02  0.73763422764E+02  0.41800000000E+01 0.  1.
         -5    1    3    3    0  502  0.79855535672E+02  0.29770365375E+02 -0.10662611304E+03  0.13656420327E+03  0.41800000000E+01 0.  1.
        -11    1    1    2    0    0 -0.30383108539E+02  0.23196895307E+02  0.37646271012E+02  0.53651383556E+02  0.00000000000E+00 0. -1.
         11    1    1    2    0    0 -0.15022326201E+02 -0.20166200142E+02 -0.48608387782E+02  0.54727701171E+02  0.00000000000E+00 0.  1.
</event>
<event>
 7    1  0.2490079E-009  0.1076314E+03  0.7561462E-02  0.1265020E+00
          1   -1    0    0  501    0  0.00000000000E+00  0.00000000000E+00  0.28054720898E+02  0.28054720898E+02  0.00000000000E+00 0. -1.
         -1   -1    0    0    0  501 -0.00000000000E+00 -0.00000000000E+00 -0.51966344035E+03  0.51966344035E+03  0.00000000000E+00 0.  1.
         25    2    1    2    0    0  0.75697991444E+01 -0.24229107540E+01 -0.37770892939E+03  0.39796433728E+03  0.12509358916E+03 0.  0.
          5    1    3    3  502    0 -0.16672094307E+02  0.57461953571E+02 -0.16183937995E+03  0.17259574774E+03  0.41800000000E+01 0.  1.
         -5    1    3    3    0  502  0.24241893452E+02 -0.59884864325E+02 -0.21586954945E+03  0.22536858954E+03  0.41800000000E+01 0.  1.
        -11    1    1    2    0    0  0.40914923971E+02  0.81630334932E+01 -0.25869292597E+02  0.49090593995E+02  0.00000000000E+00 0. -1.
         11    1    1    2    0    0 -0.48484723115E+02 -0.57401227392E+01 -0.88030497459E+02  0.10066322997E+03  0.00000000000E+00 0.  1.
</event>
<event>
 7    1  0.2490079E-009  0.1167844E+03  0.7561462E-02  0.1248498E+00
         -1   -1    0    0    0  501 -0.00000000000E+00  0.00000000000E+00  0.23570936660E+02  0.23570936660E+02  0.00000000000E+00 0.  1.
          1   -1    0    0  501    0  0.00000000000E+00 -0.00000000000E+00 -0.10473458239E+04  0.10473458239E+04  0.00000000000E+00 0. -1.
         25    2    1    2    0    0  0.75761855072E+02 -0.82226268151E+01 -0.83500391449E+03  0.84775398697E+03  0.12509122642E+03 0.  0.
          5    1    3    3  502    0 -0.30785349340E+02  0.12738786670E+02 -0.12283346948E+03  0.12734028445E+03  0.41800000000E+01 0.  1.
         -5    1    3    3    0  502  0.10654720441E+03 -0.20961413485E+02 -0.71217044502E+03  0.72041370252E+03  0.41800000000E+01 0.  1.
        -11    1    1    2    0    0  0.52790563529E+01  0.88183685775E+01  0.62111545761E+01  0.12008767693E+02  0.00000000000E+00 0.  1.
         11    1    1    2    0    0 -0.81040911425E+02 -0.59574176239E+00 -0.19498212736E+03  0.21115400594E+03  0.00000000000E+00 0. -1.
</event>
<event>
 7    1  0.2490079E-009  0.1390376E+03  0.7561462E-02  0.1214630E+00
          2   -1    0    0  501    0  0.00000000000E+00  0.00000000000E+00  0.76781210261E+03  0.76781210261E+03  0.00000000000E+00 0. -1.
         -2   -1    0    0    0  501 -0.00000000000E+00 -0.00000000000E+00 -0.44814225038E+02  0.44814225038E+02  0.00000000000E+00 0.  1.
         25    2    1    2    0    0  0.59222329425E+02  0.99935816228E+02  0.17082577981E+03  0.24150396324E+03  0.12509302756E+03 0.  0.
          5    1    3    3  502    0  0.79939522923E+02  0.62500432300E+02  0.49882422457E+02  0.11314751360E+03  0.41800000000E+01 0. -1.
         -5    1    3    3    0  502 -0.20717193499E+02  0.37435383928E+02  0.12094335735E+03  0.12835644964E+03  0.41800000000E+01 0. -1.
        -11    1    1    2    0    0 -0.39294968600E+01 -0.71022773614E+02  0.17633946548E+03  0.19014542435E+03  0.00000000000E+00 0.  1.
         11    1    1    2    0    0 -0.55292832565E+02 -0.28913042614E+02  0.37583263228E+03  0.38097694005E+03  0.00000000000E+00 0. -1.
</event>
<event>
 7    1  0.2490079E-009  0.9022007E+02  0.7561462E-02  0.1302320E+00
         -2   -1    0    0    0  501 -0.00000000000E+00  0.00000000000E+00  0.92382118036E+02  0.92382118036E+02  0.00000000000E+00 0.  1.
          2   -1    0    0  501    0  0.00000000000E+00 -0.00000000000E+00 -0.17424032605E+03  0.17424032605E+03  0.00000000000E+00 0. -1.
         25    2    1    2    0    0 -0.20641765431E+02  0.54570143237E+02 -0.78026482009E+02  0.15855457932E+03  0.12508972665E+03 0.  0.
          5    1    3    3  502    0 -0.40908757751E+02  0.71472526389E+02 -0.95848685696E+02  0.12643690695E+03  0.41800000000E+01 0.  1.
         -5    1    3    3    0  502  0.20266992320E+02 -0.16902383152E+02  0.17822203688E+02  0.32117672366E+02  0.41800000000E+01 0.  1.
        -11    1    1    2    0    0  0.32346461192E+02 -0.30316223452E+02  0.37951210099E+02  0.58358044039E+02  0.00000000000E+00 0.  1.
         11    1    1    2    0    0 -0.11704695761E+02 -0.24253919786E+02 -0.41782936107E+02  0.49709820736E+02  0.00000000000E+00 0. -1.
</event>
<event>
 7    1  0.2490079E-009  0.8442718E+02  0.7561462E-02  0.1316937E+00
         -1   -1    0    0    0  501 -0.00000000000E+00  0.00000000000E+00  0.27093728900E+03  0.27093728900E+03  0.00000000000E+00 0.  1.
          1   -1    0    0  501    0  0.00000000000E+00 -0.00000000000E+00 -0.46816936677E+02  0.46816936677E+02  0.00000000000E+00 0. -1.
         25    2    1    2    0    0  0.14755517498E+02  0.39831192131E+01  0.88898637743E+02  0.15422279403E+03  0.12509241332E+03 0.  0.
          5    1    3    3  502    0 -0.12255544153E+02 -0.41812837430E+02  0.90860446532E+02  0.10085437462E+03  0.41800000000E+01 0. -1.
         -5    1    3    3    0  502  0.27011061652E+02  0.45795956643E+02 -0.19618087892E+01  0.53368419408E+02  0.41800000000E+01 0. -1.
        -11    1    1    2    0    0  0.22199842060E+02 -0.21454539035E+02  0.11271734429E+03  0.11686885786E+03  0.00000000000E+00 0.  1.
         11    1    1    2    0    0 -0.36955359558E+02  0.17471419822E+02  0.22504370290E+02  0.46662573791E+02  0.00000000000E+00 0. -1.
</event>
<event>
 7    1  0.2490079E-009  0.9066862E+02  0.7561462E-02  0.1301241E+00
          2   -1    0    0  501    0  0.00000000000E+00  0.00000000000E+00  0.20670980232E+03  0.20670980232E+03  0.00000000000E+00 0. -1.
         -2   -1    0    0    0  501 -0.00000000000E+00 -0.00000000000E+00 -0.68570838459E+02  0.68570838459E+02  0.00000000000E+00 0.  1.
         25    2    1    2    0    0 -0.33461296770E+02 -0.16755282901E+02  0.12413752013E+03  0.18016153584E+03  0.12509059599E+03 0.  0.
          5    1    3    3  502    0  0.10142838257E+02  0.37476580508E+02  0.14799525818E+01  0.39077281304E+02  0.41800000000E+01 0. -1.
         -5    1    3    3    0  502 -0.43604135027E+02 -0.54231863409E+02  0.12265756755E+03  0.14108425454E+03  0.41800000000E+01 0. -1.
        -11    1    1    2    0    0 -0.61069444356E+00  0.34262818639E+02 -0.23468043682E+02  0.41533874887E+02  0.00000000000E+00 0.  1.
         11    1    1    2    0    0  0.34071991213E+02 -0.17507535738E+02  0.37469487407E+02  0.53585230049E+02  0.00000000000E+00 0. -1.
</event>
<event>
 7    1  0.2490079E-009  0.1212523E+03  0.7561462E-02  0.1241045E+00
         -2   -1    0    0    0  501 -0.00000000000E+00  0.00000000000E+00  0.20889132257E+02  0.20889132257E+02  0.00000000000E+00 0.  1.
          2   -1    0    0  501    0  0.00000000000E+00 -0.00000000000E+00 -0.72420878557E+03  0.72420878557E+03  0.00000000000E+00 0. -1.
         25    2    1    2    0    0 -0.33165048086E+02  0.35713658480E+02 -0.35434134978E+03  0.37892066145E+03  0.12509072587E+03 0.  0.
          5    1    3    3  502    0  0.15074199581E+02  0.71957948040E+02 -0.18625909200E+03  0.20028754213E+03  0.41800000000E+01 0. -1.
         -5    1    3    3    0  502 -0.48239247667E+02 -0.36244289560E+02 -0.16808225778E+03  0.17863311933E+03  0.41800000000E+01 0. -1.
        -11    1    1    2    0    0  0.41376455338E+02  0.24183829944E+02 -0.11664868280E+03  0.12611020532E+03  0.00000000000E+00 0.  1.
         11    1    1    2    0    0 -0.82114072519E+01 -0.59897488424E+02 -0.23232962073E+03  0.24006705105E+03  0.00000000000E+00 0. -1.
</event>
<event>
 7    1  0.2490079E-009  0.1271769E+03  0.7561462E-02  0.1231706E+00
          2   -1    0    0  501    0  0.00000000000E+00  0.00000000000E+00  0.87792264199E+03  0.87792264199E+03  0.00000000000E+00 0. -1.
         -2   -1    0    0    0  501 -0.00000000000E+00 -0.00000000000E+00 -0.26398086609E+02  0.26398086609E+02  0.00000000000E+00 0.  1.
         25    2    1    2    0    0  0.10100805362E+03  0.26868861621E+02  0.52684015900E+03  0.55148210528E+03  0.12508955469E+03 0.  0.
          5    1    3    3  502    0  0.32169600344E+02  0.35877041988E+02  0.42742530529E+03  0.43015335559E+03  0.41800000000E+01 0.  1.
         -5    1    3    3    0  502  0.68838453274E+02 -0.90081803673E+01  0.99414853711E+02  0.12132874969E+03  0.41800000000E+01 0.  1.
        -11    1    1    2    0    0 -0.47583937776E+02 -0.57670206298E+02  0.20485058935E+03  0.21806844748E+03  0.00000000000E+00 0.  1.
         11    1    1    2    0    0 -0.53424115841E+02  0.30801344677E+02  0.11983380702E+03  0.13477017583E+03  0.00000000000E+00 0. -1.
</event>
<event>
 7    1  0.2490079E-009  0.1307754E+03  0.7561462E-02  0.1226310E+00
          1   -1    0    0  501    0  0.00000000000E+00  0.00000000000E+00  0.60384523953E+03  0.60384523953E+03  0.00000000000E+00 0. -1.
         -1   -1    0    0    0  501 -0.00000000000E+00 -0.00000000000E+00 -0.30164974906E+02  0.30164974906E+02  0.00000000000E+00 0.  1.
         25    2    1    2    0    0 -0.46810304082E+01 -0.76529626798E+02  0.35435994525E+03  0.38353336897E+03  0.12509267960E+03 0.  0.
          5    1    3    3  502    0  0.59923685826E+01 -0.10916737399E+03  0.23426236833E+03  0.25855319306E+03  0.41800000000E+01 0. -1.
         -5    1    3    3    0  502 -0.10673398991E+02  0.32637747190E+02  0.12009757692E+03  0.12498017591E+03  0.41800000000E+01 0. -1.
        -11    1    1    2    0    0  0.44966377233E+02  0.22869688812E+02  0.12435529042E+03  0.13419849479E+03  0.00000000000E+00 0. -1.
         11    1    1    2    0    0 -0.40285346825E+02  0.53659937986E+02  0.94965028951E+02  0.11627835068E+03  0.00000000000E+00 0.  1.
</event>
<event>
 7    1  0.2490079E-009  0.3398941E+03  0.7561462E-02  0.1066841E+00
         -2   -1    0    0    0  501 -0.00000000000E+00  0.00000000000E+00  0.25515266232E+03  0.25515266232E+03  0.00000000000E+00 0. -1.
          2   -1    0    0  501    0  0.00000000000E+00 -0.00000000000E+00 -0.46421378490E+03  0.46421378490E+03  0.00000000000E+00 0.  1.
         25    2    1    2    0    0 -0.58000937125E-01  0.32233027519E+03 -0.16173050459E+03  0.38171082286E+03  0.12509830735E+03 0.  0.
          5    1    3    3  502    0 -0.52035164359E+02  0.25649535453E+03 -0.12081718416E+03  0.28829115424E+03  0.41800000000E+01 0.  1.
         -5    1    3    3    0  502  0.51977163422E+02  0.65834920663E+02 -0.40913320425E+02  0.93419668616E+02  0.41800000000E+01 0.  1.
        -11    1    1    2    0    0  0.13001037615E+02 -0.32074760047E+03 -0.42800703153E+02  0.32385174135E+03  0.00000000000E+00 0. -1.
         11    1    1    2    0    0 -0.12943036678E+02 -0.15826747254E+01 -0.45299148421E+01  0.13803883012E+02  0.00000000000E+00 0.  1.
</event>
<event>
 7    1  0.2490079E-009  0.1209827E+03  0.7561462E-02  0.1241485E+00
         -1   -1    0    0    0  501 -0.00000000000E+00  0.00000000000E+00  0.61211504185E+03  0.61211504185E+03  0.00000000000E+00 0.  1.
          1   -1    0    0  501    0  0.00000000000E+00 -0.00000000000E+00 -0.64150115601E+02  0.64150115601E+02  0.00000000000E+00 0. -1.
         25    2    1    2    0    0  0.91111149029E+01 -0.90877160697E+02  0.52799928813E+03  0.55024743510E+03  0.12508925138E+03 0.  0.
          5    1    3    3  502    0 -0.54127949054E+02 -0.40295455104E+02  0.16525218535E+03  0.17854779678E+03  0.41800000000E+01 0. -1.
         -5    1    3    3    0  502  0.63239063957E+02 -0.50581705593E+02  0.36274710278E+03  0.37169963832E+03  0.41800000000E+01 0. -1.
        -11    1    1    2    0    0  0.30253946330E+01  0.60230208085E+02  0.52313367949E+02  0.79834324979E+02  0.00000000000E+00 0.  1.
         11    1    1    2    0    0 -0.12136509536E+02  0.30646952612E+02 -0.32347729830E+02  0.46183397377E+02  0.00000000000E+00 0. -1.
</event>
<event>
 7    1  0.3539383E-009  0.1506789E+03  0.7561462E-02  0.1199641E+00
          2   -1    0    0  501    0  0.00000000000E+00  0.00000000000E+00  0.37358917220E+03  0.37358917220E+03  0.00000000000E+00 0. -1.
         -2   -1    0    0    0  501 -0.00000000000E+00 -0.00000000000E+00 -0.80516236901E+02  0.80516236901E+02  0.00000000000E+00 0.  1.
         25    2    1    2    0    0 -0.13162313011E+03  0.27569373231E+02  0.16715877009E+03  0.24834168384E+03  0.12508724473E+03 0.  0.
          5    1    3    3  502    0 -0.12939892118E+03  0.16278950346E+02  0.18519207189E+03  0.22654505273E+03  0.41800000000E+01 0.  1.
         -5    1    3    3    0  502 -0.22242089368E+01  0.11290422885E+02 -0.18033301795E+02  0.21796631114E+02  0.41800000000E+01 0.  1.
        -11    1    1    2    0    0  0.73829925256E+02 -0.57468003657E+02  0.51076219073E+02  0.10659366521E+03  0.00000000000E+00 0. -1.
         11    1    1    2    0    0  0.57793204858E+02  0.29898630425E+02  0.74837946134E+02  0.99170060052E+02  0.00000000000E+00 0.  1.
</event>
<event>
 7    1  0.2490079E-009  0.1094454E+03  0.7561462E-02  0.1261600E+00
          1   -1    0    0  501    0  0.00000000000E+00  0.00000000000E+00  0.76086493653E+02  0.76086493653E+02  0.00000000000E+00 0. -1.
         -1   -1    0    0    0  501 -0.00000000000E+00 -0.00000000000E+00 -0.21596998728E+03  0.21596998728E+03  0.00000000000E+00 0.  1.
         25    2    1    2    0    0 -0.33774708238E+02  0.48094724812E+02 -0.43884155240E+02  0.14501152168E+03  0.12509471959E+03 0.  0.
          5    1    3    3  502    0 -0.11885145346E+02 -0.27570905765E+02  0.25765141998E+02  0.39783494904E+02  0.41800000000E+01 0.  1.
         -5    1    3    3    0  502 -0.21889562892E+02  0.75665630577E+02 -0.69649297238E+02  0.10522802678E+03  0.41800000000E+01 0.  1.
        -11    1    1    2    0    0  0.46627630382E+02  0.12079537945E+02 -0.29678332604E+02  0.56576095466E+02  0.00000000000E+00 0. -1.
         11    1    1    2    0    0 -0.12852922144E+02 -0.60174262756E+02 -0.66321005780E+02  0.90468863780E+02  0.00000000000E+00 0.  1.
</event>
<event>
 7    1  0.2490079E-009  0.7880580E+02  0.7561462E-02  0.1332475E+00
          4   -1    0    0  501    0  0.00000000000E+00  0.00000000000E+00  0.24225493276E+03  0.24225493276E+03  0.00000000000E+00 0. -1.
         -4   -1    0    0    0  501 -0.00000000000E+00 -0.00000000000E+00 -0.12653104350E+03  0.12653104350E+03  0.00000000000E+00 0.  1.
         25    2    1    2    0    0 -0.45717678000E+02  0.21012119575E+02 -0.73003441533E+02  0.15333656893E+03  0.12510389940E+03 0.  0.
          5    1    3    3  502    0 -0.12594617043E+02  0.24597483788E+02 -0.10396909553E+03  0.10766014031E+03  0.41800000000E+01 0. -1.
         -5    1    3    3    0  502 -0.33123060957E+02 -0.35853642127E+01  0.30965653997E+02  0.45676428616E+02  0.41800000000E+01 0. -1.
        -11    1    1    2    0    0  0.43974143743E+02  0.24635175537E+02  0.57324942695E+02  0.76333257802E+02  0.00000000000E+00 0.  1.
         11    1    1    2    0    0  0.17435342575E+01 -0.45647295112E+02  0.13140238809E+03  0.13911614953E+03  0.00000000000E+00 0. -1.
</event>
<event>
 7    1  0.2490079E-009  0.1017232E+03  0.7561462E-02  0.1276714E+00
         -2   -1    0    0    0  501 -0.00000000000E+00  0.00000000000E+00  0.26822287205E+02  0.26822287205E+02  0.00000000000E+00 0.  1.
          2   -1    0    0  501    0  0.00000000000E+00 -0.00000000000E+00 -0.82724948275E+03  0.82724948275E+03  0.00000000000E+00 0. -1.
         25    2    1    2    0    0  0.25506060355E+02  0.31552903601E+02 -0.69779821647E+03  0.71008167563E+03  0.12508992889E+03 0.  0.
          5    1    3    3  502    0 -0.45299472806E+02  0.17052178668E+01 -0.39677426870E+03  0.39937731872E+03  0.41800000000E+01 0. -1.
         -5    1    3    3    0  502  0.70805533161E+02  0.29847685734E+02 -0.30102394777E+03  0.31070435691E+03  0.41800000000E+01 0. -1.
        -11    1    1    2    0    0  0.20732124693E+02 -0.27660440902E+02 -0.89231184574E+02  0.95692869565E+02  0.00000000000E+00 0. -1.
         11    1    1    2    0    0 -0.46238185049E+02 -0.38924626990E+01 -0.13397794500E+02  0.48297224764E+02  0.00000000000E+00 0.  1.
</event>
<event>
 7    1  0.2490079E-009  0.1531269E+03  0.7561462E-02  0.1196683E+00
          3   -1    0    0  501    0  0.00000000000E+00  0.00000000000E+00  0.23621795589E+03  0.23621795589E+03  0.00000000000E+00 0. -1.
         -3   -1    0    0    0  501 -0.00000000000E+00 -0.00000000000E+00 -0.11455746915E+03  0.11455746915E+03  0.00000000000E+00 0.  1.
         25    2    1    2    0    0 -0.95387787305E+02  0.56831705955E+02  0.80312058300E+01  0.16745336585E+03  0.12508979455E+03 0.  0.
          5    1    3    3  502    0 -0.11164828433E+03  0.79796526189E+02 -0.19367756226E+01  0.13731004510E+03  0.41800000000E+01 0. -1.
         -5    1    3    3    0  502  0.16260497024E+02 -0.22964820234E+02  0.99679814526E+01  0.30143320754E+02  0.41800000000E+01 0. -1.
        -11    1    1    2    0    0 -0.11176321811E+02 -0.27949290828E+02  0.95229425822E+01  0.31571497627E+02  0.00000000000E+00 0. -1.
         11    1    1    2    0    0  0.10656410912E+03 -0.28882415127E+02  0.10410633833E+03  0.15175056157E+03  0.00000000000E+00 0.  1.
</event>
<event>
 7    1  0.2490079E-009  0.6062580E+02  0.7561462E-02  0.1395224E+00
          1   -1    0    0  501    0  0.00000000000E+00  0.00000000000E+00  0.34654990185E+03  0.34654990185E+03  0.00000000000E+00 0. -1.
         -1   -1    0    0    0  501 -0.00000000000E+00 -0.00000000000E+00 -0.41381421630E+02  0.41381421630E+02  0.00000000000E+00 0.  1.
         25    2    1    2    0    0 -0.15310193543E+02 -0.12040420182E+01  0.24996538832E+03  0.27993976058E+03  0.12509085679E+03 0.  0.
          5    1    3    3  502    0  0.19363023077E+02 -0.33855425921E+02  0.22010058101E+03  0.22356845638E+03  0.41800000000E+01 0. -1.
         -5    1    3    3    0  502 -0.34673216620E+02  0.32651383903E+02  0.29864807308E+02  0.56371304199E+02  0.41800000000E+01 0. -1.
        -11    1    1    2    0    0  0.48160086248E+01  0.15642579190E+02 -0.22747325561E+02  0.28023651492E+02  0.00000000000E+00 0.  1.
         11    1    1    2    0    0  0.10494184918E+02 -0.14438537171E+02  0.77950417459E+02  0.79967911407E+02  0.00000000000E+00 0. -1.
</event>
<event>
 7    1  0.2490079E-009  0.9119759E+02  0.7561462E-02  0.1299977E+00
         -2   -1    0    0    0  501 -0.00000000000E+00  0.00000000000E+00  0.33330181136E+02  0.33330181136E+02  0.00000000000E+00 0.  1.
          2   -1    0    0  501    0  0.00000000000E+00 -0.00000000000E+00 -0.32262328803E+03  0.32262328803E+03  0.00000000000E+00 0. -1.
         25    2    1    2    0    0  0.25979103263E+01 -0.58127842570E+01 -0.20003824068E+03  0.23601611948E+03  0.12509106012E+03 0.  0.
          5    1    3    3  502    0 -0.10100056248E+02  0.49471394130E+02 -0.15618146966E+03  0.16419364737E+03  0.41800000000E+01 0. -1.
         -5    1    3    3    0  502  0.12697966575E+02 -0.55284178387E+02 -0.43856771026E+02  0.71822472109E+02  0.41800000000E+01 0. -1.
        -11    1    1    2    0    0  0.12660072533E+02  0.37556413992E+02 -0.68267854863E+02  0.78938340976E+02  0.00000000000E+00 0. -1.
         11    1    1    2    0    0 -0.15257982859E+02 -0.31743629735E+02 -0.20987011349E+02  0.40999008708E+02  0.00000000000E+00 0.  1.
</event>
<event>
 7    1  0.2490079E-009  0.1574223E+03  0.7561462E-02  0.1191638E+00
          1   -1    0    0  501    0  0.00000000000E+00  0.00000000000E+00  0.25393709481E+02  0.25393709481E+02  0.00000000000E+00 0. -1.
         -1   -1    0    0    0  501 -0.00000000000E+00 -0.00000000000E+00 -0.12071848522E+04  0.12071848522E+04  0.00000000000E+00 0.  1.
         25    2    1    2    0    0 -0.80443873191E+02  0.95739879557E+02 -0.82384083396E+03  0.84261377114E+03  0.12508759466E+03 0.  0.
          5    1    3    3  502    0 -0.31662442220E+02  0.10641382945E+03 -0.70407903536E+03  0.71279111511E+03  0.41800000000E+01 0. -1.
         -5    1    3    3    0  502 -0.48781430972E+02 -0.10673949894E+02 -0.11976179860E+03  0.12982265603E+03  0.41800000000E+01 0. -1.
        -11    1    1    2    0    0  0.70330566126E+02 -0.14557283178E+02 -0.19074172727E+03  0.20381538104E+03  0.00000000000E+00 0.  1.
         11    1    1    2    0    0  0.10113307065E+02 -0.81182596379E+02 -0.16720858144E+03  0.18614940946E+03  0.00000000000E+00 0. -1.
</event>
<event>
 7    1  0.2490079E-009  0.8148181E+02  0.7561462E-02  0.1324898E+00
         -2   -1    0    0    0  501 -0.00000000000E+00  0.00000000000E+00  0.30110152886E+03  0.30110152886E+03  0.00000000000E+00 0.  1.
          2   -1    0    0  501    0  0.00000000000E+00 -0.00000000000E+00 -0.54868769454E+02  0.54868769454E+02  0.00000000000E+00 0. -1.
         25    2    1    2    0    0  0.22767656708E+02 -0.54860796111E+02  0.88935476198E+02  0.16457435891E+03  0.12508847885E+03 0.  0.
          5    1    3    3  502    0 -0.29250780471E+01 -0.56075738112E+02  0.11479583499E+03  0.12786164639E+03  0.41800000000E+01 0.  1.
         -5    1    3    3    0  502  0.25692734755E+02  0.12149420004E+01 -0.25860358795E+02  0.36712712516E+02  0.41800000000E+01 0.  1.
        -11    1    1    2    0    0 -0.40757743923E+02  0.34232974720E+02  0.15505180169E+03  0.16393337505E+03  0.00000000000E+00 0.  1.
         11    1    1    2    0    0  0.17990087215E+02  0.20627821391E+02  0.22454815090E+01  0.27462564348E+02  0.00000000000E+00 0. -1.
</event>
<event>
 7    1  0.2490079E-009  0.1472481E+03  0.7561462E-02  0.1203896E+00
         -2   -1    0    0    0  501 -0.00000000000E+00  0.00000000000E+00  0.40170733716E+03  0.40170733716E+03  0.00000000000E+00 0.  1.
          2   -1    0    0  501    0  0.00000000000E+00 -0.00000000000E+00 -0.58068070622E+02  0.58068070622E+02  0.00000000000E+00 0. -1.
         25    2    1    2    0    0  0.22421257755E+02  0.10125442836E+03  0.15311191862E+03  0.22326145493E+03  0.12508895064E+03 0.  0.
          5    1    3    3  502    0 -0.35696351665E+02  0.87463957466E+02  0.12598920682E+03  0.15752754049E+03  0.41800000000E+01 0.  1.
         -5    1    3    3    0  502  0.58117609420E+02  0.13790470894E+02  0.27122711802E+02  0.65733914440E+02  0.41800000000E+01 0.  1.
        -11    1    1    2    0    0 -0.45605895979E+02 -0.11054498557E+02  0.67591478044E+02  0.82284309504E+02  0.00000000000E+00 0.  1.
         11    1    1    2    0    0  0.23184638224E+02 -0.90199929802E+02  0.12293586987E+03  0.15422964335E+03  0.00000000000E+00 0. -1.
</event>
<event>
 7    1  0.2490079E-009  0.1725902E+03  0.7561462E-02  0.1175173E+00
          2   -1    0    0  501    0  0.00000000000E+00  0.00000000000E+00  0.13090780261E+04  0.13090780261E+04  0.00000000000E+00 0. -1.
         -2   -1    0    0    0  501 -0.00000000000E+00 -0.00000000000E+00 -0.30283792795E+02  0.30283792795E+02  0.00000000000E+00 0.  1.
         25    2    1    2    0    0  0.14332651783E+03  0.38878222518E+02  0.41179593448E+03  0.45527421581E+03  0.12507882728E+03 0.  0.
          5    1    3    3  502    0  0.97509791642E+02 -0.17910340661E+02  0.12655303804E+03  0.16081692574E+03  0.41800000000E+01 0.  1.
         -5    1    3    3    0  502  0.45816726186E+02  0.56788563179E+02  0.28524289644E+03  0.29445729007E+03  0.41800000000E+01 0.  1.
        -11    1    1    2    0    0 -0.15143146350E+03 -0.20543196923E+02  0.75530383299E+03  0.77060845519E+03  0.00000000000E+00 0.  1.
         11    1    1    2    0    0  0.81049456760E+01 -0.18335025595E+02  0.11169446580E+03  0.11347914786E+03  0.00000000000E+00 0. -1.
</event>
<event>
 7    1  0.2490079E-009  0.1457711E+03  0.7561462E-02  0.1205768E+00
         -2   -1    0    0    0  501 -0.00000000000E+00  0.00000000000E+00  0.26628891502E+02  0.26628891502E+02  0.00000000000E+00 0. -1.
          2   -1    0    0  501    0  0.00000000000E+00 -0.00000000000E+00 -0.10881462670E+04  0.10881462670E+04  0.00000000000E+00 0.  1.
         25    2    1    2    0    0 -0.11727058708E+03  0.46547474134E+02 -0.67923958251E+03  0.70209240790E+03  0.12509308871E+03 0.  0.
          5    1    3    3  502    0 -0.20225841862E+02  0.31908652706E+02 -0.46333659097E+03  0.46489301536E+03  0.41800000000E+01 0. -1.
         -5    1    3    3    0  502 -0.97044745221E+02  0.14638821428E+02 -0.21590299154E+03  0.23719939254E+03  0.41800000000E+01 0. -1.
        -11    1    1    2    0    0  0.59706574311E+02  0.23911988553E+02 -0.14893459304E+03  0.16222876199E+03  0.00000000000E+00 0.  1.
         11    1    1    2    0    0  0.57564012773E+02 -0.70459462687E+02 -0.23334319994E+03  0.25045398860E+03  0.00000000000E+00 0. -1.
</event>
<event>
 7    1  0.2584897E-009  0.1067661E+03  0.7561462E-02  0.1266678E+00
         -2   -1    0    0    0  501 -0.00000000000E+00  0.00000000000E+00  0.54179713614E+02  0.54179713614E+02  0.00000000000E+00 0.  1.
          2   -1    0    0  501    0  0.00000000000E+00 -0.00000000000E+00 -0.32468306786E+03  0.32468306786E+03  0.00000000000E+00 0. -1.
         25    2    1    2    0    0  0.36894494776E+02  0.62808393870E+02 -0.17962919723E+03  0.23069432850E+03  0.12508847516E+03 0.  0.
          5    1    3    3  502    0 -0.38973708914E+02  0.80795911017E+01 -0.10022183056E+03  0.10791717889E+03  0.41800000000E+01 0.  1.
         -5    1    3    3    0  502  0.75868203690E+02  0.54728802768E+02 -0.79407366673E+02  0.12277714961E+03  0.41800000000E+01 0.  1.
        -11    1    1    2    0    0  0.13458675503E+01 -0.28387690430E+02  0.13755200945E+02  0.31573372966E+02  0.00000000000E+00 0.  1.
         11    1    1    2    0    0 -0.38240362327E+02 -0.34420703440E+02 -0.10462935796E+03  0.11659508001E+03  0.00000000000E+00 0. -1.
</event>
<event>
 7    1  0.2490079E-009  0.9967382E+02  0.7561462E-02  0.1280983E+00
         -1   -1    0    0    0  501 -0.00000000000E+00  0.00000000000E+00  0.40491943719E+03  0.40491943719E+03  0.00000000000E+00 0.  1.
          1   -1    0    0  501    0  0.00000000000E+00 -0.00000000000E+00 -0.78903517496E+02  0.78903517496E+02  0.00000000000E+00 0. -1.
         25    2    1    2    0    0 -0.15099617986E+02 -0.64644637008E+02  0.36441415163E+01  0.14166330044E+03  0.12509309880E+03 0.  0.
          5    1    3    3  502    0 -0.21687806385E+02  0.25267948041E+01  0.53310989658E+02  0.57760537186E+02  0.41800000000E+01 0.  1.
         -5    1    3    3    0  502  0.65881883989E+01 -0.67171431812E+02 -0.49666848141E+02  0.83902763258E+02  0.41800000000E+01 0.  1.
        -11    1    1    2    0    0  0.51701314666E+02  0.35683506885E+02  0.23318071842E+03  0.24149448450E+03  0.00000000000E+00 0. -1.
         11    1    1    2    0    0 -0.36601696680E+02  0.28961130123E+02  0.89191059756E+02  0.10066516974E+03  0.00000000000E+00 0.  1.
</event>
<event>
 7    1  0.2490079E-009  0.1319679E+03  0.7561462E-02  0.1224565E+00
          2   -1    0    0  501    0  0.00000000000E+00  0.00000000000E+00  0.36215053378E+02  0.36215053378E+02  0.00000000000E+00 0. -1.
         -2   -1    0    0    0  501 -0.00000000000E+00 -0.00000000000E+00 -0.78098891489E+03  0.78098891489E+03  0.00000000000E+00 0.  1.
         25    2    1    2    0    0  0.42303512171E+02  0.12077397034E+03 -0.40246231740E+03  0.44045364626E+03  0.12509020152E+03 0.  0.
          5    1    3    3  502    0  0.46469399592E+02  0.12133846753E+03 -0.20398590807E+03  0.24188871799E+03  0.41800000000E+01 0. -1.
         -5    1    3    3    0  502 -0.41658874214E+01 -0.56449718500E+00 -0.19847640934E+03  0.19856492827E+03  0.41800000000E+01 0. -1.
        -11    1    1    2    0    0 -0.12892304422E+02 -0.32530704321E+02 -0.17974128534E+02  0.39338626482E+02  0.00000000000E+00 0. -1.
         11    1    1    2    0    0 -0.29411207749E+02 -0.88243266019E+02 -0.32433741557E+03  0.33741169552E+03  0.00000000000E+00 0.  1.
</event>
<event>
 7    1  0.2490079E-009  0.9722710E+02  0.7561462E-02  0.1286237E+00
         -3   -1    0    0    0  501 -0.00000000000E+00  0.00000000000E+00  0.56895091633E+02  0.56895091633E+02  0.00000000000E+00 0. -1.
          3   -1    0    0  501    0  0.00000000000E+00 -0.00000000000E+00 -0.30413468123E+03  0.30413468123E+03  0.00000000000E+00 0.  1.
         25    2    1    2    0    0 -0.14622826777E+02 -0.61649905672E+02 -0.19099862536E+03  0.23694423721E+03  0.12509020235E+03 0.  0.
          5    1    3    3  502    0  0.21038769084E+02 -0.16090201944E+02 -0.17462240102E+03  0.17666912504E+03  0.41800000000E+01 0.  1.
         -5    1    3    3    0  502 -0.35661595861E+02 -0.45559703728E+02 -0.16376224339E+02  0.60275112167E+02  0.41800000000E+01 0.  1.
        -11    1    1    2    0    0 -0.38565354160E+01 -0.22830719943E+02 -0.54207866091E+01  0.23780234775E+02  0.00000000000E+00 0.  1.
         11    1    1    2    0    0  0.18479362193E+02  0.84480625615E+02 -0.50820177630E+02  0.10030530088E+03  0.00000000000E+00 0. -1.
</event>
<event>
 7    1  0.2490079E-009  0.1279789E+03  0.7561462E-02  0.1230486E+00
         -2   -1    0    0    0  501 -0.00000000000E+00  0.00000000000E+00  0.28756732982E+02  0.28756732982E+02  0.00000000000E+00 0. -1.
          2   -1    0    0  501    0  0.00000000000E+00 -0.00000000000E+00 -0.63763739983E+03  0.63763739983E+03  0.00000000000E+00 0.  1.
         25    2    1    2    0    0 -0.78684507478E+02 -0.16480392557E+02 -0.32118987283E+03  0.35393945863E+03  0.12508937170E+03 0.  0.
          5    1    3    3  502    0  0.29926151261E+02 -0.24518415474E+01 -0.13073690274E+03  0.13420579792E+03  0.41800000000E+01 0.  1.
         -5    1    3    3    0  502 -0.10861065874E+03 -0.14028551010E+02 -0.19045297008E+03  0.21973366071E+03  0.41800000000E+01 0.  1.
        -11    1    1    2    0    0  0.35372159097E+02  0.50023951453E+02 -0.19891637662E+03  0.20813771942E+03  0.00000000000E+00 0.  1.
         11    1    1    2    0    0  0.43312348381E+02 -0.33543558896E+02 -0.88774417398E+02  0.10431695476E+03  0.00000000000E+00 0. -1.
</event>
<event>
 7    1  0.2490079E-009  0.7664762E+02  0.7561462E-02  0.1338843E+00
         -1   -1    0    0    0  501 -0.00000000000E+00  0.00000000000E+00  0.28312630685E+03  0.28312630685E+03  0.00000000000E+00 0.  1.
          1   -1    0    0  501    0  0.00000000000E+00 -0.00000000000E+00 -0.42785521981E+02  0.42785521981E+02  0.00000000000E+00 0. -1.
         25    2    1    2    0    0  0.14609417497E+02 -0.15240217272E+01  0.11484236006E+03  0.17044708991E+03  0.12509070738E+03 0.  0.
          5    1    3    3  502    0 -0.44831053911E+01 -0.31559966614E+02 -0.15196987808E+02  0.35560519752E+02  0.41800000000E+01 0. -1.
         -5    1    3    3    0  502  0.19092522888E+02  0.30035944887E+02  0.13003934787E+03  0.13488657016E+03  0.41800000000E+01 0. -1.
        -11    1    1    2    0    0  0.30573606995E+02 -0.18666369955E+02  0.25755961721E+02  0.44119705077E+02  0.00000000000E+00 0. -1.
         11    1    1    2    0    0 -0.45183024491E+02  0.20190391682E+02  0.99742463089E+02  0.11134503384E+03  0.00000000000E+00 0.  1.
</event>
<event>
 7    1  0.2490079E-009  0.1369393E+03  0.7561462E-02  0.1217508E+00
         -2   -1    0    0    0  501 -0.00000000000E+00  0.00000000000E+00  0.11573427117E+03  0.11573427117E+03  0.00000000000E+00 0.  1.
          2   -1    0    0  501    0  0.00000000000E+00 -0.00000000000E+00 -0.37368824959E+03  0.37368824959E+03  0.00000000000E+00 0. -1.
         25    2    1    2    0    0  0.20213896157E+01  0.10965076667E+03  0.28568553999E+02  0.16879492391E+03  0.12509271526E+03 0.  0.
          5    1    3    3  502    0  0.27716874347E+02 -0.18335494213E+02 -0.51929717951E+01  0.33894761065E+02  0.41800000000E+01 0.  1.
         -5    1    3    3    0  502 -0.25695484731E+02  0.12798626089E+03  0.33761525794E+02  0.13490016284E+03  0.41800000000E+01 0.  1.
        -11    1    1    2    0    0  0.13462465170E+01 -0.58461052966E+02 -0.45190321500E+02  0.73903127477E+02  0.00000000000E+00 0.  1.
         11    1    1    2    0    0 -0.33676361328E+01 -0.51189713707E+02 -0.24133221092E+03  0.24672446937E+03  0.00000000000E+00 0. -1.
</event>
<event>
 7    1  0.2490079E-009  0.1414450E+03  0.7561462E-02  0.1211398E+00
          1   -1    0    0  501    0  0.00000000000E+00  0.00000000000E+00  0.45348374121E+02  0.45348374121E+02  0.00000000000E+00 0. -1.
         -1   -1    0    0    0  501 -0.00000000000E+00 -0.00000000000E+00 -0.58731960395E+03  0.58731960395E+03  0.00000000000E+00 0.  1.
         25    2    1    2    0    0 -0.95133957046E+02 -0.50188607129E+02 -0.39931455840E+03  0.43205272141E+03  0.12509225177E+03 0.  0.
          5    1    3    3  502    0  0.28156776101E+02 -0.27433765807E+02 -0.95032235967E+02  0.10292722584E+03  0.41800000000E+01 0. -1.
         -5    1    3    3    0  502 -0.12329073315E+03 -0.22754841322E+02 -0.30428232244E+03  0.32912549557E+03  0.41800000000E+01 0. -1.
        -11    1    1    2    0    0  0.49818631320E+01  0.23315577460E+02  0.60994627630E+01  0.24609724878E+02  0.00000000000E+00 0. -1.
         11    1    1    2    0    0  0.90152093914E+02  0.26873029669E+02 -0.14875613419E+03  0.17600553179E+03  0.00000000000E+00 0.  1.
</event>
<event>
 7    1  0.2490079E-009  0.1230874E+03  0.7561462E-02  0.1238089E+00
         -1   -1    0    0    0  501 -0.00000000000E+00  0.00000000000E+00  0.36907439496E+02  0.36907439496E+02  0.00000000000E+00 0.  1.
          1   -1    0    0  501    0  0.00000000000E+00 -0.00000000000E+00 -0.44808563592E+03  0.44808563592E+03  0.00000000000E+00 0. -1.
         25    2    1    2    0    0 -0.42528004704E+02  0.43816792313E+02 -0.16282350698E+03  0.21421157515E+03  0.12508621839E+03 0.  0.
          5    1    3    3  502    0  0.44341360209E+02  0.13192677741E+02 -0.63653654048E+02  0.78800146223E+02  0.41800000000E+01 0. -1.
         -5    1    3    3    0  502 -0.86869364913E+02  0.30624114572E+02 -0.99169852932E+02  0.13541142893E+03  0.41800000000E+01 0. -1.
        -11    1    1    2    0    0 -0.10098194387E+02  0.21432807096E+02 -0.64651485464E+02  0.68856033306E+02  0.00000000000E+00 0. -1.
         11    1    1    2    0    0  0.52626199091E+02 -0.65249599409E+02 -0.18370320398E+03  0.20192546696E+03  0.00000000000E+00 0.  1.
</event>
<event>
 7    1  0.2490079E-009  0.9654566E+02  0.7561462E-02  0.1287732E+00
          2   -1    0    0  501    0  0.00000000000E+00  0.00000000000E+00  0.19739142588E+03  0.19739142588E+03  0.00000000000E+00 0. -1.
         -2   -1    0    0    0  501 -0.00000000000E+00 -0.00000000000E+00 -0.73309436457E+02  0.73309436457E+02  0.00000000000E+00 0.  1.
         25    2    1    2    0    0  0.35969163160E+02 -0.69478609332E+01  0.11457501476E+03  0.17354421980E+03  0.12509240084E+03 0.  0.
          5    1    3    3  502    0  0.93196665708E+01  0.57456846479E+02  0.68011678133E+02  0.89616997019E+02  0.41800000000E+01 0. -1.
         -5    1    3    3    0  502  0.26649496590E+02 -0.64404707412E+02  0.46563336629E+02  0.83927222778E+02  0.41800000000E+01 0. -1.
        -11    1    1    2    0    0 -0.13086081367E+02 -0.23453295976E+02 -0.31379551882E+02  0.41303497358E+02  0.00000000000E+00 0.  1.
         11    1    1    2    0    0 -0.22883081794E+02  0.30401156909E+02  0.40886526543E+02  0.55853145180E+02  0.00000000000E+00 0. -1.
</event>
<event>
 7    1  0.2490079E-009  0.9600788E+02  0.7561462E-02  0.1288922E+00
          1   -1    0    0  501    0  0.00000000000E+00  0.00000000000E+00  0.68709692452E+03  0.68709692452E+03  0.00000000000E+00 0. -1.
         -1   -1    0    0    0  501 -0.00000000000E+00 -0.00000000000E+00 -0.25650924920E+02  0.25650924920E+02  0.00000000000E+00 0.  1.
         25    2    1    2    0    0 -0.73604111185E+02 -0.48902691862E+01  0.41335730341E+03  0.43812248172E+03  0.12508224810E+03 0.  0.
          5    1    3    3  502    0 -0.59914345837E+02  0.20466666632E+02  0.40182507781E+03  0.40680398085E+03  0.41800000000E+01 0.  1.
         -5    1    3    3    0  502 -0.13689765348E+02 -0.25356935818E+02  0.11532225604E+02  0.31318500870E+02  0.41800000000E+01 0.  1.
        -11    1    1    2    0    0  0.86465069908E+02  0.42714185592E+01  0.24696730393E+03  0.26170078819E+03  0.00000000000E+00 0. -1.
         11    1    1    2    0    0 -0.12860958723E+02  0.61885062699E+00  0.11213922591E+01  0.12924579528E+02  0.00000000000E+00 0.  1.
</event>
<event>
 7    1  0.2490079E-009  0.1062691E+03  0.7561462E-02  0.1267639E+00
          1   -1    0    0  501    0  0.00000000000E+00  0.00000000000E+00  0.34570442688E+03  0.34570442688E+03  0.00000000000E+00 0. -1.
         -1   -1    0    0    0  501 -0.00000000000E+00 -0.00000000000E+00 -0.51352694795E+02  0.51352694795E+02  0.00000000000E+00 0.  1.
         25    2    1    2    0    0  0.50391678957E+02 -0.36229314074E+02  0.10958328230E+03  0.17750519948E+03  0.12509082930E+03 0.  0.
          5    1    3    3  502    0  0.70520253369E+02 -0.14417004824E+02  0.12461790825E+03  0.14397239882E+03  0.41800000000E+01 0. -1.
         -5    1    3    3    0  502 -0.20128574412E+02 -0.21812309250E+02 -0.15034625954E+02  0.33532800663E+02  0.41800000000E+01 0. -1.
        -11    1    1    2    0    0  0.17642408725E+01 -0.27814373113E+02  0.17244905176E+02  0.32774054556E+02  0.00000000000E+00 0.  1.
         11    1    1    2    0    0 -0.52155919830E+02  0.64043687187E+02  0.16752354461E+03  0.18677786764E+03  0.00000000000E+00 0. -1.
</event>
<event>
 7    1  0.2490079E-009  0.1324508E+03  0.7561462E-02  0.1223864E+00
          2   -1    0    0  501    0  0.00000000000E+00  0.00000000000E+00  0.36772109468E+03  0.36772109468E+03  0.00000000000E+00 0. -1.
         -2   -1    0    0    0  501 -0.00000000000E+00 -0.00000000000E+00 -0.95116746869E+02  0.95116746869E+02  0.00000000000E+00 0.  1.
         25    2    1    2    0    0  0.84542173549E+02 -0.79890827892E+02  0.22283717415E+02  0.17226112746E+03  0.12508960182E+03 0.  0.
          5    1    3    3  502    0  0.10012801864E+03 -0.73447576458E+02  0.54486141714E+02  0.13567010962E+03  0.41800000000E+01 0.  1.
         -5    1    3    3    0  502 -0.15585845094E+02 -0.64432514340E+01 -0.32202424299E+02  0.36591017847E+02  0.41800000000E+01 0.  1.
        -11    1    1    2    0    0 -0.44470615733E+02  0.14851238702E+02  0.18248722780E+03  0.18841386166E+03  0.00000000000E+00 0.  1.
         11    1    1    2    0    0 -0.40071557816E+02  0.65039589190E+02  0.67833402591E+02  0.10216285242E+03  0.00000000000E+00 0. -1.
</event>
<event>
 7    1  0.2490079E-009  0.1409522E+03  0.7561462E-02  0.1212053E+00
         -3   -1    0    0    0  501 -0.00000000000E+00  0.00000000000E+00  0.12615834465E+03  0.12615834465E+03  0.00000000000E+00 0.  1.
          3   -1    0    0  501    0  0.00000000000E+00 -0.00000000000E+00 -0.24135684199E+03  0.24135684199E+03  0.00000000000E+00 0. -1.
         25    2    1    2    0    0  0.78598598089E+02 -0.47141069134E+02 -0.16680556583E+03  0.22775329193E+03  0.12508974846E+03 0.  0.
          5    1    3    3  502    0 -0.31753043124E+02 -0.24814540378E+02 -0.29373818811E+02  0.50043089366E+02  0.41800000000E+01 0.  1.
         -5    1    3    3    0  502  0.11035164121E+03 -0.22326528756E+02 -0.13743174702E+03  0.17771020256E+03  0.41800000000E+01 0.  1.
        -11    1    1    2    0    0  0.85010161332E+01  0.40487886820E+02  0.80316917168E+01  0.42143140916E+02  0.00000000000E+00 0. -1.
         11    1    1    2    0    0 -0.87099614222E+02  0.66531823143E+01  0.43575376774E+02  0.97618753800E+02  0.00000000000E+00 0.  1.
</event>
<event>
 7    1  0.2490079E-009  0.1138411E+03  0.7561462E-02  0.1253618E+00
         -2   -1    0    0    0  501 -0.00000000000E+00  0.00000000000E+00  0.81043091691E+02  0.81043091691E+02  0.00000000000E+00 0.  1.
          2   -1    0    0  501    0  0.00000000000E+00 -0.00000000000E+00 -0.25599917823E+03  0.25599917823E+03  0.00000000000E+00 0. -1.
         25    2    1    2    0    0  0.37438249023E+02 -0.14864962111E+02 -0.18075208072E+03  0.22347607501E+03  0.12509057450E+03 0.  0.
          5    1    3    3  502    0  0.21344299855E+02  0.46202060589E+02 -0.28241902951E+02  0.58354837171E+02  0.41800000000E+01 0. -1.
         -5    1    3    3    0  502  0.16093949168E+02 -0.61067022700E+02 -0.15251017777E+03  0.16512123784E+03  0.41800000000E+01 0. -1.
        -11    1    1    2    0    0 -0.55429434924E+02 -0.31386637960E+02  0.99071907149E+00  0.63706552431E+02  0.00000000000E+00 0.  1.
         11    1    1    2    0    0  0.17991185901E+02  0.46251600071E+02  0.48052751141E+01  0.49859642479E+02  0.00000000000E+00 0. -1.
</event>
<event>
 7    1  0.2490079E-009  0.3404351E+03  0.7561462E-02  0.1066611E+00
          3   -1    0    0  501    0  0.00000000000E+00  0.00000000000E+00  0.32462049885E+03  0.32462049885E+03  0.00000000000E+00 0. -1.
         -3   -1    0    0    0  501 -0.00000000000E+00 -0.00000000000E+00 -0.47170000377E+03  0.47170000377E+03  0.00000000000E+00 0.  1.
         25    2    1    2    0    0  0.23352202777E+03 -0.23397962747E+03 -0.25253603464E+03  0.43439805195E+03  0.12509282641E+03 0.  0.
          5    1    3    3  502    0  0.60128884530E+01  0.10066800588E+02 -0.32252052058E+02  0.34571123262E+02  0.41800000000E+01 0.  1.
         -5    1    3    3    0  502  0.22750913932E+03 -0.24404642806E+03 -0.22028398259E+03  0.39982692869E+03  0.41800000000E+01 0.  1.
        -11    1    1    2    0    0 -0.96347904636E+02  0.61213270226E+02 -0.68982614048E+01  0.11435719999E+03  0.00000000000E+00 0. -1.
         11    1    1    2    0    0 -0.13717412313E+03  0.17276635725E+03  0.11235479112E+03  0.24756525068E+03  0.00000000000E+00 0.  1.
</event>
<event>
 7    1  0.2490079E-009  0.1085105E+03  0.7561462E-02  0.1263353E+00
          1   -1    0    0  501    0  0.00000000000E+00  0.00000000000E+00  0.54342523498E+03  0.54342523498E+03  0.00000000000E+00 0.  1.
         -1   -1    0    0    0  501 -0.00000000000E+00 -0.00000000000E+00 -0.58661067655E+02  0.58661067655E+02  0.00000000000E+00 0. -1.
         25    2    1    2    0    0 -0.80148902869E+02  0.18996931508E+02  0.45622125315E+03  0.48017752655E+03  0.12509154704E+03 0.  0.
          5    1    3    3  502    0 -0.69994300859E+02 -0.26535554545E+02  0.12574644172E+03  0.14640006084E+03  0.41800000000E+01 0.  1.
         -5    1    3    3    0  502 -0.10154602010E+02  0.45532486053E+02  0.33047481143E+03  0.33377746571E+03  0.41800000000E+01 0.  1.
        -11    1    1    2    0    0  0.33145010843E+02  0.15809964979E+02  0.47849032208E+02  0.60316470551E+02  0.00000000000E+00 0.  1.
         11    1    1    2    0    0  0.47003892027E+02 -0.34806896487E+02 -0.19306118026E+02  0.61592305542E+02  0.00000000000E+00 0. -1.
</event>
<event>
 7    1  0.2490079E-009  0.1064613E+03  0.7561462E-02  0.1267267E+00
         -1   -1    0    0    0  501 -0.00000000000E+00  0.00000000000E+00  0.14143469319E+03  0.14143469319E+03  0.00000000000E+00 0.  1.
          1   -1    0    0  501    0  0.00000000000E+00 -0.00000000000E+00 -0.92453698668E+02  0.92453698668E+02  0.00000000000E+00 0. -1.
         25    2    1    2    0    0  0.36734827267E+02 -0.39364875554E+01  0.33127247448E+02  0.13457238663E+03  0.12508944501E+03 0.  0.
          5    1    3    3  502    0  0.29290528864E+02 -0.62098927187E+02  0.31773819211E+02  0.75771101524E+02  0.41800000000E+01 0. -1.
         -5    1    3    3    0  502  0.74442984032E+01  0.58162439632E+02  0.13534282371E+01  0.58801285111E+02  0.41800000000E+01 0. -1.
        -11    1    1    2    0    0 -0.22399770222E+02 -0.36289329867E+02 -0.16514090693E+02  0.45731612257E+02  0.00000000000E+00 0. -1.
         11    1    1    2    0    0 -0.14335057045E+02  0.40225817423E+02  0.32367837768E+02  0.53584392966E+02  0.00000000000E+00 0.  1.
</event>
<event>
 7    1  0.2490079E-009  0.1055154E+03  0.7561462E-02  0.1269107E+00
         -2   -1    0    0    0  501 -0.00000000000E+00  0.00000000000E+00  0.13729840136E+03  0.13729840136E+03  0.00000000000E+00 0.  1.
          2   -1    0    0  501    0  0.00000000000E+00 -0.00000000000E+00 -0.23401130704E+03  0.23401130704E+03  0.00000000000E+00 0. -1.
         25    2    1    2    0    0 -0.72197490400E+02  0.41348987914E+01  0.74539687348E+02  0.16258736889E+03  0.12509561353E+03 0.  0.
          5    1    3    3  502    0  0.61373057956E+01  0.21313433993E+02 -0.25663041858E+02  0.34175914156E+02  0.41800000000E+01 0. -1.
         -5    1    3    3    0  502 -0.78334796195E+02 -0.17178535202E+02  0.10020272921E+03  0.12841145473E+03  0.41800000000E+01 0. -1.
        -11    1    1    2    0    0 -0.96738250971E+00 -0.30402988684E+02 -0.14382693134E+02  0.33647279409E+02  0.00000000000E+00 0.  1.
         11    1    1    2    0    0  0.73164872909E+02  0.26268089892E+02 -0.15686989990E+03  0.17507506010E+03  0.00000000000E+00 0. -1.
</event>
<event>
 7    1  0.2490079E-009  0.1429647E+03  0.7561462E-02  0.1209395E+00
         -2   -1    0    0    0  501 -0.00000000000E+00  0.00000000000E+00  0.10218907469E+03  0.10218907469E+03  0.00000000000E+00 0.  1.
          2   -1    0    0  501    0  0.00000000000E+00 -0.00000000000E+00 -0.33479337573E+03  0.33479337573E+03  0.00000000000E+00 0. -1.
         25    2    1    2    0    0  0.54394966264E+02 -0.10063623219E+03 -0.23767975728E+03  0.29193464226E+03  0.12509078602E+03 0.  0.
          5    1    3    3  502    0  0.88002888259E+02 -0.90040580016E+02 -0.14167376741E+03  0.18958043982E+03  0.41800000000E+01 0.  1.
         -5    1    3    3    0  502 -0.33607921995E+02 -0.10595652178E+02 -0.96005989872E+02  0.10235420244E+03  0.41800000000E+01 0.  1.
        -11    1    1    2    0    0 -0.26908509301E+02  0.91701920070E+02  0.36547457849E+02  0.10231826177E+03  0.00000000000E+00 0.  1.
         11    1    1    2    0    0 -0.27486456963E+02  0.89343121240E+01 -0.31472001599E+02  0.42729546384E+02  0.00000000000E+00 0. -1.
</event>
<event>
 7    1  0.2490079E-009  0.1021279E+03  0.7561462E-02  0.1275884E+00
          2   -1    0    0  501    0  0.00000000000E+00  0.00000000000E+00  0.46145493707E+03  0.46145493707E+03  0.00000000000E+00 0. -1.
         -2   -1    0    0    0  501 -0.00000000000E+00 -0.00000000000E+00 -0.36903472532E+02  0.36903472532E+02  0.00000000000E+00 0.  1.
         25    2    1    2    0    0 -0.51592533402E+02  0.48939358528E+02  0.22494506064E+03  0.26702713726E+03  0.12508541644E+03 0.  0.
          5    1    3    3  502    0 -0.52223352955E+01  0.44100919901E+02  0.82849858061E+01  0.45368241225E+02  0.41800000000E+01 0.  1.
         -5    1    3    3    0  502 -0.46370198106E+02  0.48384386269E+01  0.21666007484E+03  0.22165889603E+03  0.41800000000E+01 0.  1.
        -11    1    1    2    0    0  0.76634351965E+02 -0.36741982533E+02  0.17330389976E+03  0.19302082492E+03  0.00000000000E+00 0. -1.
         11    1    1    2    0    0 -0.25041818563E+02 -0.12197375995E+02  0.26302504131E+02  0.38310447422E+02  0.00000000000E+00 0.  1.
</event>
<event>
 7    1  0.2490079E-009  0.1851737E+03  0.7561462E-02  0.1162888E+00
          2   -1    0    0  501    0  0.00000000000E+00  0.00000000000E+00  0.79231457310E+03  0.79231457310E+03  0.00000000000E+00 0. -1.
         -2   -1    0    0    0  501 -0.00000000000E+00 -0.00000000000E+00 -0.93824345994E+02  0.93824345994E+02  0.00000000000E+00 0.  1.
         25    2    1    2    0    0 -0.12318573360E+03  0.10629913159E+03  0.49328290094E+02  0.21108088175E+03  0.12509047964E+03 0.  0.
          5    1    3    3  502    0 -0.13685684064E+03  0.48882551935E+02  0.42790141582E+02  0.15155120366E+03  0.41800000000E+01 0.  1.
         -5    1    3    3    0  502  0.13671107044E+02  0.57416579658E+02  0.65381485112E+01  0.59529678089E+02  0.41800000000E+01 0.  1.
        -11    1    1    2    0    0  0.88468981796E+02 -0.56093546899E+02  0.53928587907E+03  0.54936554871E+03  0.00000000000E+00 0. -1.
         11    1    1    2    0    0  0.34716751804E+02 -0.50205584694E+02  0.10987605795E+03  0.12569248864E+03  0.00000000000E+00 0.  1.
</event>
<event>
 7    1  0.2490079E-009  0.1488897E+03  0.7561462E-02  0.1201844E+00
         -2   -1    0    0    0  501 -0.00000000000E+00  0.00000000000E+00  0.42079580647E+02  0.42079580647E+02  0.00000000000E+00 0.  1.
          2   -1    0    0  501    0  0.00000000000E+00 -0.00000000000E+00 -0.59739464106E+03  0.59739464106E+03  0.00000000000E+00 0. -1.
         25    2    1    2    0    0 -0.26591770294E+02 -0.11041286451E+03 -0.34684409467E+03  0.38580711320E+03  0.12509268440E+03 0.  0.
          5    1    3    3  502    0 -0.53815451891E+02 -0.37835846272E-01 -0.13414002773E+03  0.14459295879E+03  0.41800000000E+01 0.  1.
         -5    1    3    3    0  502  0.27223681597E+02 -0.11037502866E+03 -0.21270406694E+03  0.24121415440E+03  0.41800000000E+01 0.  1.
        -11    1    1    2    0    0  0.45861457806E+02  0.56387096333E+02 -0.59154861066E+02  0.93712728766E+02  0.00000000000E+00 0.  1.
         11    1    1    2    0    0 -0.19269687512E+02  0.54025768173E+02 -0.14931610468E+03  0.15995437975E+03  0.00000000000E+00 0. -1.
</event>
<event>
 7    1  0.2490079E-009  0.6725504E+02  0.7561462E-02  0.1369684E+00
          2   -1    0    0  501    0  0.00000000000E+00  0.00000000000E+00  0.34363257923E+03  0.34363257923E+03  0.00000000000E+00 0. -1.
         -2   -1    0    0    0  501 -0.00000000000E+00 -0.00000000000E+00 -0.36160875049E+02  0.36160875049E+02  0.00000000000E+00 0.  1.
         25    2    1    2    0    0 -0.25322702054E+02  0.49431735451E+01  0.16636944209E+03  0.20974224561E+03  0.12508934459E+03 0.  0.
          5    1    3    3  502    0 -0.20921964292E+02  0.47072528940E+02  0.16968451398E+02  0.54396252753E+02  0.41800000000E+01 0.  1.
         -5    1    3    3    0  502 -0.44007377620E+01 -0.42129355395E+02  0.14940099069E+03  0.15534599286E+03  0.41800000000E+01 0.  1.
        -11    1    1    2    0    0  0.14892177735E+01 -0.14506863783E+02 -0.94154116550E+01  0.17358480435E+02  0.00000000000E+00 0.  1.
         11    1    1    2    0    0  0.23833484281E+02  0.95636902375E+01  0.15051767375E+03  0.15269272823E+03  0.00000000000E+00 0. -1.
</event>
<event>
 7    1  0.2490079E-009  0.1025599E+03  0.7561462E-02  0.1275003E+00
         -2   -1    0    0    0  501 -0.00000000000E+00  0.00000000000E+00  0.42482083270E+02  0.42482083270E+02  0.00000000000E+00 0.  1.
          2   -1    0    0  501    0  0.00000000000E+00 -0.00000000000E+00 -0.34938219772E+03  0.34938219772E+03  0.00000000000E+00 0. -1.
         25    2    1    2    0    0  0.43334123113E+02 -0.12701531564E+02 -0.22000864703E+03  0.25708022973E+03  0.12508902676E+03 0.  0.
          5    1    3    3  502    0  0.83183903731E+02  0.36926329566E+01 -0.10422351429E+03  0.13346614069E+03  0.41800000000E+01 0.  1.
         -5    1    3    3    0  502 -0.39849780618E+02 -0.16394164521E+02 -0.11578513274E+03  0.12361408904E+03  0.41800000000E+01 0.  1.
        -11    1    1    2    0    0 -0.16873796079E+02 -0.26347120907E+02 -0.81510265584E+02  0.87308757692E+02  0.00000000000E+00 0. -1.
         11    1    1    2    0    0 -0.26460327034E+02  0.39048652471E+02 -0.53812018337E+01  0.47475293572E+02  0.00000000000E+00 0.  1.
</event>
<event>
 7    1  0.2490079E-009  0.9705660E+02  0.7561462E-02  0.1286610E+00
         -2   -1    0    0    0  501 -0.00000000000E+00  0.00000000000E+00  0.49054828114E+02  0.49054828114E+02  0.00000000000E+00 0.  1.
          2   -1    0    0  501    0  0.00000000000E+00 -0.00000000000E+00 -0.29448962152E+03  0.29448962152E+03  0.00000000000E+00 0. -1.
         25    2    1    2    0    0 -0.29691044926E+02 -0.32225664858E+02 -0.16867145186E+03  0.21451685944E+03  0.12508945873E+03 0.  0.
          5    1    3    3  502    0 -0.19101814764E+02  0.25451758754E+02 -0.14915904981E+03  0.15257314932E+03  0.41800000000E+01 0.  1.
         -5    1    3    3    0  502 -0.10589230162E+02 -0.57677423612E+02 -0.19512402047E+02  0.61943710121E+02  0.41800000000E+01 0.  1.
        -11    1    1    2    0    0 -0.29798430136E+02 -0.86731251882E+01 -0.17520196532E+02  0.35638838724E+02  0.00000000000E+00 0.  1.
         11    1    1    2    0    0  0.59489475062E+02  0.40898790047E+02 -0.59243145011E+02  0.93388751471E+02  0.00000000000E+00 0. -1.
</event>
<event>
 7    1  0.2490079E-009  0.1125868E+03  0.7561462E-02  0.1255853E+00
          1   -1    0    0  501    0  0.00000000000E+00  0.00000000000E+00  0.14909207190E+03  0.14909207190E+03  0.00000000000E+00 0. -1.
         -1   -1    0    0    0  501 -0.00000000000E+00 -0.00000000000E+00 -0.10813217174E+03  0.10813217174E+03  0.00000000000E+00 0.  1.
         25    2    1    2    0    0  0.56977513300E+02 -0.21633538946E+02 -0.47069025367E+01  0.13922633434E+03  0.12508944885E+03 0.  0.
          5    1    3    3  502    0 -0.37502819119E+02 -0.12774740187E+02  0.14354382803E+02  0.42345910480E+02  0.41800000000E+01 0.  1.
         -5    1    3    3    0  502  0.94480332419E+02 -0.88587987595E+01 -0.19061285339E+02  0.96880423865E+02  0.41800000000E+01 0.  1.
        -11    1    1    2    0    0 -0.14820419632E+02  0.41263929338E+02  0.55233927934E+02  0.70520518273E+02  0.00000000000E+00 0. -1.
         11    1    1    2    0    0 -0.42157093668E+02 -0.19630390392E+02 -0.95671252333E+01  0.47477391027E+02  0.00000000000E+00 0.  1.
</event>
<event>
 7    1  0.2490079E-009  0.1036002E+03  0.7561462E-02  0.1272902E+00
          2   -1    0    0  501    0  0.00000000000E+00  0.00000000000E+00  0.74108340951E+03  0.74108340951E+03  0.00000000000E+00 0.  1.
         -2   -1    0    0    0  501 -0.00000000000E+00 -0.00000000000E+00 -0.26714562364E+02  0.26714562364E+02  0.00000000000E+00 0. -1.
         25    2    1    2    0    0  0.71320871073E+02  0.51319824590E+02  0.43501548177E+03  0.46109268072E+03  0.12509036649E+03 0.  0.
          5    1    3    3  502    0  0.57091823681E+02  0.71638182858E+02  0.15607608525E+03  0.18102133123E+03  0.41800000000E+01 0.  1.
         -5    1    3    3    0  502  0.14229047392E+02 -0.20318358268E+02  0.27893939652E+03  0.28007134949E+03  0.41800000000E+01 0.  1.
        -11    1    1    2    0    0 -0.65149850743E+02 -0.37407684262E+02  0.28148472029E+03  0.29133740861E+03  0.00000000000E+00 0.  1.
         11    1    1    2    0    0 -0.61710203301E+01 -0.13912140328E+02 -0.21313549130E+01  0.15367882554E+02  0.00000000000E+00 0. -1.
</event>
<event>
 7    1  0.2490079E-009  0.8292546E+02  0.7561462E-02  0.1320949E+00
          1   -1    0    0  501    0  0.00000000000E+00  0.00000000000E+00  0.21991686991E+03  0.21991686991E+03  0.00000000000E+00 0. -1.
         -1   -1    0    0    0  501 -0.00000000000E+00 -0.00000000000E+00 -0.60609844510E+02  0.60609844510E+02  0.00000000000E+00 0.  1.
         25    2    1    2    0    0  0.39407498272E+02 -0.26742229789E+01  0.96895032481E+02  0.16308236541E+03  0.12508840153E+03 0.  0.
          5    1    3    3  502    0 -0.20615466518E+02  0.26448927234E+01 -0.21484146228E+02  0.30183337396E+02  0.41800000000E+01 0. -1.
         -5    1    3    3    0  502  0.60022964790E+02 -0.53191157023E+01  0.11837917871E+03  0.13289902801E+03  0.41800000000E+01 0. -1.
        -11    1    1    2    0    0 -0.32611452811E+01 -0.33177021662E+02 -0.42050079520E+01  0.33601070322E+02  0.00000000000E+00 0.  1.
         11    1    1    2    0    0 -0.36146352991E+02  0.35851244641E+02  0.66617000867E+02  0.83843278689E+02  0.00000000000E+00 0. -1.
</event>
<event>
 7    1  0.2490079E-009  0.1033549E+03  0.7561462E-02  0.1273395E+00
          2   -1    0    0  501    0  0.00000000000E+00  0.00000000000E+00  0.10175173339E+04  0.10175173339E+04  0.00000000000E+00 0. -1.
         -2   -1    0    0    0  501 -0.00000000000E+00 -0.00000000000E+00 -0.12048342242E+02  0.12048342242E+02  0.00000000000E+00 0.  1.
         25    2    1    2    0    0 -0.75480759687E+01 -0.11931619051E+02  0.68893759800E+03  0.70034547202E+03  0.12509767885E+03 0.  0.
          5    1    3    3  502    0  0.41798179527E+02 -0.41965873579E+02  0.47535185387E+03  0.47904601004E+03  0.41800000000E+01 0.  1.
         -5    1    3    3    0  502 -0.49346255495E+02  0.30034254528E+02  0.21358574413E+03  0.22129946198E+03  0.41800000000E+01 0.  1.
        -11    1    1    2    0    0  0.35019084453E+02 -0.25258318909E+02  0.12734346840E+03  0.13446441126E+03  0.00000000000E+00 0. -1.
         11    1    1    2    0    0 -0.27471008484E+02  0.37189937960E+02  0.18918792528E+03  0.19475579289E+03  0.00000000000E+00 0.  1.
</event>
<event>
 7    1  0.2695086E-009  0.8960299E+02  0.7561462E-02  0.1303816E+00
         -3   -1    0    0    0  501 -0.00000000000E+00  0.00000000000E+00  0.74538682102E+02  0.74538682102E+02  0.00000000000E+00 0.  1.
          3   -1    0    0  501    0  0.00000000000E+00 -0.00000000000E+00 -0.26685152875E+03  0.26685152875E+03  0.00000000000E+00 0. -1.
         25    2    1    2    0    0  0.47237250572E+02 -0.39330708587E+02 -0.18429027862E+03  0.23106033419E+03  0.12509080207E+03 0.  0.
          5    1    3    3  502    0 -0.16080878324E+02  0.19477350900E+02 -0.12147982491E+03  0.12414822635E+03  0.41800000000E+01 0. -1.
         -5    1    3    3    0  502  0.63318128896E+02 -0.58808059486E+02 -0.62810453711E+02  0.10691210784E+03  0.41800000000E+01 0. -1.
        -11    1    1    2    0    0 -0.28606844359E+02  0.64940187611E+01 -0.47422161810E+02  0.55761862008E+02  0.00000000000E+00 0. -1.
         11    1    1    2    0    0 -0.18630406212E+02  0.32836689825E+02  0.39399593776E+02  0.54568014661E+02  0.00000000000E+00 0.  1.
</event>
<event>
 7    1  0.2490079E-009  0.8665962E+02  0.7561462E-02  0.1311149E+00
         -2   -1    0    0    0  501 -0.00000000000E+00  0.00000000000E+00  0.47538550600E+02  0.47538550600E+02  0.00000000000E+00 0.  1.
          2   -1    0    0  501    0  0.00000000000E+00 -0.00000000000E+00 -0.28231592499E+03  0.28231592499E+03  0.00000000000E+00 0. -1.
         25    2    1    2    0    0  0.28376581579E+02 -0.32075314773E+02 -0.11553298288E+03  0.17558316468E+03  0.12509005310E+03 0.  0.
          5    1    3    3  502    0  0.34926501675E+02  0.41056745561E+02 -0.26824337480E+02  0.60353412137E+02  0.41800000000E+01 0. -1.
         -5    1    3    3    0  502 -0.65499200959E+01 -0.73132060334E+02 -0.88708645401E+02  0.11522975254E+03  0.41800000000E+01 0. -1.
        -11    1    1    2    0    0 -0.96380488386E+01  0.22902133013E+02 -0.12890635973E+03  0.13127927963E+03  0.00000000000E+00 0. -1.
         11    1    1    2    0    0 -0.18738532740E+02  0.91731817600E+01  0.96619682143E+01  0.22992031285E+02  0.00000000000E+00 0.  1.
</event>
<event>
 7    1  0.2490079E-009  0.7970277E+02  0.7561462E-02  0.1329897E+00
         -1   -1    0    0    0  501 -0.00000000000E+00  0.00000000000E+00  0.92461146878E+03  0.92461146878E+03  0.00000000000E+00 0.  1.
          1   -1    0    0  501    0  0.00000000000E+00 -0.00000000000E+00 -0.22457731591E+02  0.22457731591E+02  0.00000000000E+00 0. -1.
         25    2    1    2    0    0 -0.32763155333E+02 -0.26262766334E+02  0.76667421054E+03  0.77794576102E+03  0.12508838769E+03 0.  0.
          5    1    3    3  502    0 -0.46102423424E+02 -0.36957828637E+02  0.15370725608E+03  0.16472615917E+03  0.41800000000E+01 0.  1.
         -5    1    3    3    0  502  0.13339268091E+02  0.10695062303E+02  0.61296695446E+03  0.61321960185E+03  0.41800000000E+01 0.  1.
        -11    1    1    2    0    0  0.16110289071E+02  0.50587369999E+02  0.33052468888E+02  0.62538700953E+02  0.00000000000E+00 0. -1.
         11    1    1    2    0    0  0.16652866263E+02 -0.24324603665E+02  0.10242705776E+03  0.10658473840E+03  0.00000000000E+00 0.  1.
</event>
<event>
 7    1  0.2490079E-009  0.1043298E+03  0.7561462E-02  0.1271446E+00
         -3   -1    0    0    0  501 -0.00000000000E+00  0.00000000000E+00  0.51913389254E+02  0.51913389254E+02  0.00000000000E+00 0.  1.
          3   -1    0    0  501    0  0.00000000000E+00 -0.00000000000E+00 -0.33420405490E+03  0.33420405490E+03  0.00000000000E+00 0. -1.
         25    2    1    2    0    0 -0.90267735617E+01  0.25308688353E+02 -0.25736277095E+03  0.28741180928E+03  0.12509172595E+03 0.  0.
          5    1    3    3  502    0 -0.52143934775E+02 -0.27032738760E+02 -0.13856978509E+03  0.15056167055E+03  0.41800000000E+01 0.  1.
         -5    1    3    3    0  502  0.43117161213E+02  0.52341427113E+02 -0.11879298585E+03  0.13685013873E+03  0.41800000000E+01 0.  1.
        -11    1    1    2    0    0  0.33757140854E+02 -0.40566991726E+02 -0.39763953164E+02  0.66078720837E+02  0.00000000000E+00 0. -1.
         11    1    1    2    0    0 -0.24730367292E+02  0.15258303373E+02  0.14836058467E+02  0.32626914029E+02  0.00000000000E+00 0.  1.
</event>
<event>
 7    1  0.2490079E-009  0.1160935E+03  0.7561462E-02  0.1249684E+00
          4   -1    0    0  501    0  0.00000000000E+00  0.00000000000E+00  0.20678227937E+03  0.20678227937E+03  0.00000000000E+00 0. -1.
         -4   -1    0    0    0  501 -0.00000000000E+00 -0.00000000000E+00 -0.15707688743E+03  0.15707688743E+03  0.00000000000E+00 0.  1.
         25    2    1    2    0    0 -0.82936967272E+02  0.75096704932E+01  0.14459742333E+03  0.20854480981E+03  0.12509031606E+03 0.  0.
          5    1    3    3  502    0  0.10977361226E+02  0.13105160225E+02  0.10486673433E+03  0.10633321237E+03  0.41800000000E+01 0.  1.
         -5    1    3    3    0  502 -0.93914328498E+02 -0.55954897318E+01  0.39730689005E+02  0.10221159744E+03  0.41800000000E+01 0.  1.
        -11    1    1    2    0    0  0.78012241260E+02  0.29258017821E+02 -0.50359148487E+02  0.97354944556E+02  0.00000000000E+00 0. -1.
         11    1    1    2    0    0  0.49247260120E+01 -0.36767688314E+02 -0.44532882899E+02  0.57959412433E+02  0.00000000000E+00 0.  1.
</event>
<event>
 7    1  0.2490079E-009  0.1303891E+03  0.7561462E-02  0.1226879E+00
          2   -1    0    0  501    0  0.00000000000E+00  0.00000000000E+00  0.14610254294E+04  0.14610254294E+04  0.00000000000E+00 0. -1.
         -2   -1    0    0    0  501 -0.00000000000E+00 -0.00000000000E+00 -0.17440784971E+02  0.17440784971E+02  0.00000000000E+00 0.  1.
         25    2    1    2    0    0 -0.99526175258E+02  0.29495559500E+02  0.10432103149E+04  0.10557987425E+04  0.12509107101E+03 0.  0.
          5    1    3    3  502    0 -0.41667664066E+02  0.60535406178E+02  0.81433391168E+03  0.81765391318E+03  0.41800000000E+01 0.  1.
         -5    1    3    3    0  502 -0.57858511192E+02 -0.31039846677E+02  0.22887640319E+03  0.23814482933E+03  0.41800000000E+01 0.  1.
        -11    1    1    2    0    0  0.40270052551E+02 -0.44738205200E+02  0.10506335746E+03  0.12108465311E+03  0.00000000000E+00 0.  1.
         11    1    1    2    0    0  0.59256122707E+02  0.15242645699E+02  0.29531097210E+03  0.30158281876E+03  0.00000000000E+00 0. -1.
</event>
<event>
 7    1  0.2490079E-009  0.2163656E+03  0.7561462E-02  0.1136622E+00
          2   -1    0    0  501    0  0.00000000000E+00  0.00000000000E+00  0.29648850262E+03  0.29648850262E+03  0.00000000000E+00 0. -1.
         -2   -1    0    0    0  501 -0.00000000000E+00 -0.00000000000E+00 -0.16415048328E+03  0.16415048328E+03  0.00000000000E+00 0.  1.
         25    2    1    2    0    0  0.18677769124E+03 -0.42837708131E+02  0.63621273961E+02  0.23751324283E+03  0.12507557250E+03 0.  0.
          5    1    3    3  502    0  0.25157484840E+02 -0.55243416169E+02  0.41988008362E+02  0.73926986410E+02  0.41800000000E+01 0.  1.
         -5    1    3    3    0  502  0.16162020640E+03  0.12405708038E+02  0.21633265599E+02  0.16358625642E+03  0.41800000000E+01 0.  1.
        -11    1    1    2    0    0 -0.58266791646E+02  0.55669453864E+02  0.43358197068E+02  0.91509782839E+02  0.00000000000E+00 0.  1.
         11    1    1    2    0    0 -0.12851089959E+03 -0.12831745733E+02  0.25358548311E+02  0.13161596022E+03  0.00000000000E+00 0. -1.
</event>
<event>
 7    1  0.2547848E-009  0.1303653E+03  0.7561462E-02  0.1226915E+00
         -2   -1    0    0    0  501 -0.00000000000E+00  0.00000000000E+00  0.36979811001E+02  0.36979811001E+02  0.00000000000E+00 0. -1.
          2   -1    0    0  501    0  0.00000000000E+00 -0.00000000000E+00 -0.63347369712E+03  0.63347369712E+03  0.00000000000E+00 0.  1.
         25    2    1    2    0    0 -0.57249830365E+02  0.67606291458E+02 -0.18656864653E+03  0.24145826167E+03  0.12508428574E+03 0.  0.
          5    1    3    3  502    0 -0.90362495341E+02  0.24501121363E+02 -0.86663040072E+02  0.12764654491E+03  0.41800000000E+01 0.  1.
         -5    1    3    3    0  502  0.33112664977E+02  0.43105170095E+02 -0.99905606457E+02  0.11381171676E+03  0.41800000000E+01 0.  1.
        -11    1    1    2    0    0  0.68358371055E+02 -0.32531719048E+02 -0.35433966339E+03  0.36233655169E+03  0.00000000000E+00 0.  1.
         11    1    1    2    0    0 -0.11108540691E+02 -0.35074572410E+02 -0.55585576197E+02  0.66658694760E+02  0.00000000000E+00 0. -1.
</event>
<event>
 7    1  0.2490079E-009  0.9914294E+02  0.7561462E-02  0.1282109E+00
          1   -1    0    0  501    0  0.00000000000E+00  0.00000000000E+00  0.27663539055E+03  0.27663539055E+03  0.00000000000E+00 0. -1.
         -1   -1    0    0    0  501 -0.00000000000E+00 -0.00000000000E+00 -0.57095348136E+02  0.57095348136E+02  0.00000000000E+00 0.  1.
         25    2    1    2    0    0 -0.34010019297E+02 -0.43845031728E+02  0.90357112970E+02  0.16398478301E+03  0.12509009943E+03 0.  0.
          5    1    3    3  502    0 -0.43947129268E+02 -0.62618734347E+02  0.59505797058E+01  0.76846196138E+02  0.41800000000E+01 0. -1.
         -5    1    3    3    0  502  0.99371099712E+01  0.18773702619E+02  0.84406533264E+02  0.87138586873E+02  0.41800000000E+01 0. -1.
        -11    1    1    2    0    0  0.46943750226E+01  0.64175022994E+02  0.45594164948E+02  0.78862529825E+02  0.00000000000E+00 0.  1.
         11    1    1    2    0    0  0.29315644274E+02 -0.20329991266E+02  0.83588764493E+02  0.90883425846E+02  0.00000000000E+00 0. -1.
</event>
<event>
 7    1  0.2490079E-009  0.1028342E+03  0.7561462E-02  0.1274446E+00
         -1   -1    0    0    0  501 -0.00000000000E+00  0.00000000000E+00  0.37255928896E+02  0.37255928896E+02  0.00000000000E+00 0.  1.
          1   -1    0    0  501    0  0.00000000000E+00 -0.00000000000E+00 -0.50783244815E+03  0.50783244815E+03  0.00000000000E+00 0. -1.
         25    2    1    2    0    0  0.69867813407E+02  0.15866020784E+02 -0.35914940725E+03  0.38699928546E+03  0.12508760234E+03 0.  0.
          5    1    3    3  502    0 -0.16045227167E+02  0.36132765582E+02 -0.20922757860E+03  0.21297107341E+03  0.41800000000E+01 0.  1.
         -5    1    3    3    0  502  0.85913040574E+02 -0.20266744798E+02 -0.14992182864E+03  0.17402821205E+03  0.41800000000E+01 0.  1.
        -11    1    1    2    0    0 -0.34281793293E+02  0.73403496139E+01  0.38146783094E+01  0.35265760369E+02  0.00000000000E+00 0.  1.
         11    1    1    2    0    0 -0.35586020114E+02 -0.23206370398E+02 -0.11524179032E+03  0.12282333121E+03  0.00000000000E+00 0. -1.
</event>
<event>
 7    1  0.2862510E-009  0.9630902E+02  0.7561462E-02  0.1288255E+00
         -1   -1    0    0    0  501 -0.00000000000E+00  0.00000000000E+00  0.29830480880E+02  0.29830480880E+02  0.00000000000E+00 0.  1.
          1   -1    0    0  501    0  0.00000000000E+00 -0.00000000000E+00 -0.46626981415E+03  0.46626981415E+03  0.00000000000E+00 0. -1.
         25    2    1    2    0    0 -0.23055040472E+02 -0.27264767102E+02 -0.30980993608E+03  0.33601308751E+03  0.12509075133E+03 0.  0.
          5    1    3    3  502    0 -0.50763731498E+02  0.27198676571E+02 -0.21895269776E+03  0.22643869082E+03  0.41800000000E+01 0. -1.
         -5    1    3    3    0  502  0.27708691027E+02 -0.54463443673E+02 -0.90857238319E+02  0.10957439669E+03  0.41800000000E+01 0. -1.
        -11    1    1    2    0    0  0.45638991857E+02  0.20649242168E+02 -0.25411938286E+02  0.56170057747E+02  0.00000000000E+00 0.  1.
         11    1    1    2    0    0 -0.22583951385E+02  0.66155249337E+01 -0.10121745890E+03  0.10391714978E+03  0.00000000000E+00 0. -1.
</event>
<event>
 7    1  0.2490079E-009  0.1282730E+03  0.7561462E-02  0.1230041E+00
         -1   -1    0    0    0  501 -0.00000000000E+00  0.00000000000E+00  0.34503218962E+03  0.34503218962E+03  0.00000000000E+00 0.  1.
          1   -1    0    0  501    0  0.00000000000E+00 -0.00000000000E+00 -0.86698549154E+02  0.86698549154E+02  0.00000000000E+00 0. -1.
         25    2    1    2    0    0 -0.18826955526E+02 -0.12423311747E+03  0.78812753884E+02  0.19402850816E+03  0.12508912851E+03 0.  0.
          5    1    3    3  502    0  0.15634120443E+01 -0.81474407718E+01  0.75474783542E+02  0.76044331801E+02  0.41800000000E+01 0. -1.
         -5    1    3    3    0  502 -0.20390367570E+02 -0.11608567670E+03  0.33379703416E+01  0.11798417636E+03  0.41800000000E+01 0. -1.
        -11    1    1    2    0    0 -0.76604342864E+01  0.14107134353E+02  0.95075478287E+02  0.96421159839E+02  0.00000000000E+00 0.  1.
         11    1    1    2    0    0  0.26487389812E+02  0.11012598312E+03  0.84445408291E+02  0.14128107077E+03  0.00000000000E+00 0. -1.
</event>
<event>
 7    1  0.2490079E-009  0.1274614E+03  0.7561462E-02  0.1231272E+00
         -3   -1    0    0    0  501 -0.00000000000E+00  0.00000000000E+00  0.84735963655E+02  0.84735963655E+02  0.00000000000E+00 0.  1.
          3   -1    0    0  501    0  0.00000000000E+00 -0.00000000000E+00 -0.36383079507E+03  0.36383079507E+03  0.00000000000E+00 0. -1.
         25    2    1    2    0    0  0.56451736687E+02  0.57126273162E+02 -0.29038848763E+03  0.32622599316E+03  0.12509082781E+03 0.  0.
          5    1    3    3  502    0  0.95376464309E+02  0.39330097982E+02 -0.17641573588E+03  0.20441015341E+03  0.41800000000E+01 0. -1.
         -5    1    3    3    0  502 -0.38924727622E+02  0.17796175180E+02 -0.11397275175E+03  0.12181583974E+03  0.41800000000E+01 0. -1.
        -11    1    1    2    0    0 -0.18056717326E+02  0.17245630116E+02 -0.21002770275E+02  0.32627797319E+02  0.00000000000E+00 0. -1.
         11    1    1    2    0    0 -0.38395019360E+02 -0.74371903278E+02  0.32296426487E+02  0.89712968252E+02  0.00000000000E+00 0.  1.
</event>
<event>
 7    1  0.2490079E-009  0.1303364E+03  0.7561462E-02  0.1226957E+00
          1   -1    0    0  501    0  0.00000000000E+00  0.00000000000E+00  0.66827214277E+03  0.66827214277E+03  0.00000000000E+00 0. -1.
         -1   -1    0    0    0  501 -0.00000000000E+00 -0.00000000000E+00 -0.32816861612E+02  0.32816861612E+02  0.00000000000E+00 0.  1.
         25    2    1    2    0    0 -0.60629070193E+02  0.55171335780E+02  0.43043951968E+03  0.45568089041E+03  0.12508850202E+03 0.  0.
          5    1    3    3  502    0  0.11625775089E+02  0.71190510940E+02  0.16589592973E+03  0.18094800191E+03  0.41800000000E+01 0.  1.
         -5    1    3    3    0  502 -0.72254845283E+02 -0.16019175160E+02  0.26454358995E+03  0.27473288850E+03  0.41800000000E+01 0.  1.
        -11    1    1    2    0    0  0.19173849414E+02 -0.68194102811E+02  0.18394999318E+03  0.19711842165E+03  0.00000000000E+00 0. -1.
         11    1    1    2    0    0  0.41455220779E+02  0.13022767031E+02  0.21065768288E+02  0.48289692322E+02  0.00000000000E+00 0.  1.
</event>
<event>
 7    1  0.2490079E-009  0.9816553E+02  0.7561462E-02  0.1284202E+00
          2   -1    0    0  501    0  0.00000000000E+00  0.00000000000E+00  0.42979361335E+03  0.42979361335E+03  0.00000000000E+00 0. -1.
         -2   -1    0    0    0  501 -0.00000000000E+00 -0.00000000000E+00 -0.36027462200E+02  0.36027462200E+02  0.00000000000E+00 0.  1.
         25    2    1    2    0    0 -0.36076724069E+02  0.53080576953E+02  0.21729784543E+03  0.25881786660E+03  0.12509698947E+03 0.  0.
          5    1    3    3  502    0 -0.20126650340E+02  0.68359933417E+02  0.22421015792E+03  0.23529944723E+03  0.41800000000E+01 0. -1.
         -5    1    3    3    0  502 -0.15950073728E+02 -0.15279356464E+02 -0.69123124894E+01  0.23518419374E+02  0.41800000000E+01 0. -1.
        -11    1    1    2    0    0  0.48321804888E+02 -0.33872560903E+00  0.11695765750E+03  0.12654724497E+03  0.00000000000E+00 0.  1.
         11    1    1    2    0    0 -0.12245080819E+02 -0.52741851344E+02  0.59510648213E+02  0.80455963969E+02  0.00000000000E+00 0. -1.
</event>
<event>
 7    1  0.2490079E-009  0.2850415E+03  0.7561462E-02  0.1092967E+00
         -1   -1    0    0    0  501 -0.00000000000E+00  0.00000000000E+00  0.75262874958E+03  0.75262874958E+03  0.00000000000E+00 0.  1.
          1   -1    0    0  501    0  0.00000000000E+00 -0.00000000000E+00 -0.12257627470E+03  0.12257627470E+03  0.00000000000E+00 0. -1.
         25    2    1    2    0    0 -0.15272142514E+03 -0.22986065230E+03  0.22947180339E+03  0.38008449115E+03  0.12508860336E+03 0.  0.
          5    1    3    3  502    0 -0.74344972696E+02 -0.15446992743E+03  0.66093014449E+02  0.18377674609E+03  0.41800000000E+01 0. -1.
         -5    1    3    3    0  502 -0.78376452441E+02 -0.75390724868E+02  0.16337878894E+03  0.19630774506E+03  0.41800000000E+01 0. -1.
        -11    1    1    2    0    0  0.13316125550E+03  0.23449860962E+03  0.38301338389E+03  0.46842370790E+03  0.00000000000E+00 0.  1.
         11    1    1    2    0    0  0.19560169636E+02 -0.46379573177E+01  0.17567287592E+02  0.26696825235E+02  0.00000000000E+00 0. -1.
</event>
<event>
 7    1  0.2490079E-009  0.1274843E+03  0.7561462E-02  0.1231237E+00
         -2   -1    0    0    0  501 -0.00000000000E+00  0.00000000000E+00  0.35964814111E+02  0.35964814111E+02  0.00000000000E+00 0.  1.
          2   -1    0    0  501    0  0.00000000000E+00 -0.00000000000E+00 -0.46500020438E+03  0.46500020438E+03  0.00000000000E+00 0. -1.
         25    2    1    2    0    0  0.46231634314E+02 -0.52956940290E+02 -0.24192875963E+03  0.28128043879E+03  0.12508940392E+03 0.  0.
          5    1    3    3  502    0  0.26239804268E+02  0.39527839654E+02 -0.64817846629E+02  0.80435086109E+02  0.41800000000E+01 0.  1.
         -5    1    3    3    0  502  0.19991830046E+02 -0.92484779945E+02 -0.17711091300E+03  0.20084535269E+03  0.41800000000E+01 0.  1.
        -11    1    1    2    0    0  0.26223040894E+02  0.20253331803E+02 -0.77500379925E+02  0.84286144837E+02  0.00000000000E+00 0.  1.
         11    1    1    2    0    0 -0.72454675208E+02  0.32703608487E+02 -0.10960625071E+03  0.13539843486E+03  0.00000000000E+00 0. -1.
</event>
<event>
 7    1  0.2490079E-009  0.6097186E+02  0.7561462E-02  0.1393798E+00
         -2   -1    0    0    0  501 -0.00000000000E+00  0.00000000000E+00  0.50219432733E+02  0.50219432733E+02  0.00000000000E+00 0.  1.
          2   -1    0    0  501    0  0.00000000000E+00 -0.00000000000E+00 -0.28126669652E+03  0.28126669652E+03  0.00000000000E+00 0. -1.
         25    2    1    2    0    0 -0.45890125352E+02 -0.14395615083E+02 -0.13355131367E+03  0.18919139564E+03  0.12507715005E+03 0.  0.
          5    1    3    3  502    0 -0.32945707821E+02  0.15000001528E+02 -0.14893879186E+03  0.15333184871E+03  0.41800000000E+01 0.  1.
         -5    1    3    3    0  502 -0.12944417531E+02 -0.29395616611E+02  0.15387478187E+02  0.35859546931E+02  0.41800000000E+01 0.  1.
        -11    1    1    2    0    0  0.17078106253E+02  0.17108627853E+02  0.13431464772E+02  0.27654495225E+02  0.00000000000E+00 0.  1.
         11    1    1    2    0    0  0.28812019099E+02 -0.27130127702E+01 -0.11092741489E+03  0.11464023838E+03  0.00000000000E+00 0. -1.
</event>
<event>
 7    1  0.2490079E-009  0.2720272E+03  0.7561462E-02  0.1100125E+00
         -2   -1    0    0    0  501 -0.00000000000E+00  0.00000000000E+00  0.28688251976E+03  0.28688251976E+03  0.00000000000E+00 0.  1.
          2   -1    0    0  501    0  0.00000000000E+00 -0.00000000000E+00 -0.38223559583E+03  0.38223559583E+03  0.00000000000E+00 0. -1.
         25    2    1    2    0    0  0.26877589098E+03 -0.32389649095E+01 -0.20946797956E+03  0.36300899303E+03  0.12509086335E+03 0.  0.
          5    1    3    3  502    0  0.14833264653E+03 -0.93897210443E+01 -0.38232254129E+02  0.15352497694E+03  0.41800000000E+01 0.  1.
         -5    1    3    3    0  502  0.12044324445E+03  0.61507561349E+01 -0.17123572544E+03  0.20948401610E+03  0.41800000000E+01 0.  1.
        -11    1    1    2    0    0 -0.22407567951E+03  0.24094436750E+02  0.60691343354E+02  0.23339642497E+03  0.00000000000E+00 0. -1.
         11    1    1    2    0    0 -0.44700211470E+02 -0.20855471841E+02  0.53423560141E+02  0.72712697580E+02  0.00000000000E+00 0.  1.
</event>
<event>
 7    1  0.2490079E-009  0.1761216E+03  0.7561462E-02  0.1171610E+00
         -2   -1    0    0    0  501 -0.00000000000E+00  0.00000000000E+00  0.17593422282E+03  0.17593422282E+03  0.00000000000E+00 0.  1.
          2   -1    0    0  501    0  0.00000000000E+00 -0.00000000000E+00 -0.24633645799E+03  0.24633645799E+03  0.00000000000E+00 0. -1.
         25    2    1    2    0    0 -0.13397987106E+03 -0.70784284124E+02  0.56118606736E+02  0.20434798231E+03  0.12509108331E+03 0.  0.
          5    1    3    3  502    0  0.24102356332E+02 -0.84127468863E+01  0.13099603172E+02  0.28996032387E+02  0.41800000000E+01 0.  1.
         -5    1    3    3    0  502 -0.15808222739E+03 -0.62371537237E+02  0.43019003563E+02  0.17535194992E+03  0.41800000000E+01 0.  1.
        -11    1    1    2    0    0  0.85071038213E+02  0.23276955415E+02 -0.12070074014E+03  0.14949102604E+03  0.00000000000E+00 0.  1.
         11    1    1    2    0    0  0.48908832842E+02  0.47507328709E+02 -0.58201017659E+01  0.68431672460E+02  0.00000000000E+00 0. -1.
</event>
<event>
 7    1  0.2490079E-009  0.1863273E+03  0.7561462E-02  0.1161816E+00
         -2   -1    0    0    0  501 -0.00000000000E+00  0.00000000000E+00  0.90849612810E+02  0.90849612810E+02  0.00000000000E+00 0.  1.
          2   -1    0    0  501    0  0.00000000000E+00 -0.00000000000E+00 -0.52202326224E+03  0.52202326224E+03  0.00000000000E+00 0. -1.
         25    2    1    2    0    0  0.63169997234E+02  0.17402012534E+03 -0.27487433696E+03  0.35422736804E+03  0.12509066542E+03 0.  0.
          5    1    3    3  502    0  0.49052463552E+02  0.11229295785E+03 -0.73187242938E+02  0.14279249802E+03  0.41800000000E+01 0.  1.
         -5    1    3    3    0  502  0.14117533682E+02  0.61727167491E+02 -0.20168709402E+03  0.21143487001E+03  0.41800000000E+01 0.  1.
        -11    1    1    2    0    0 -0.17138209926E+02 -0.22855125978E+02 -0.76419890981E+02  0.81584770395E+02  0.00000000000E+00 0. -1.
         11    1    1    2    0    0 -0.46031787308E+02 -0.15116499936E+03 -0.79879421494E+02  0.17706073662E+03  0.00000000000E+00 0.  1.
</event>
<event>
 7    1  0.2490079E-009  0.1101394E+03  0.7561462E-02  0.1260312E+00
         -2   -1    0    0    0  501 -0.00000000000E+00  0.00000000000E+00  0.37247561916E+02  0.37247561916E+02  0.00000000000E+00 0.  1.
          2   -1    0    0  501    0  0.00000000000E+00 -0.00000000000E+00 -0.40722328468E+03  0.40722328468E+03  0.00000000000E+00 0. -1.
         25    2    1    2    0    0 -0.56327183458E+02  0.61866941947E+01 -0.22542150503E+03  0.26395714820E+03  0.12508994515E+03 0.  0.
          5    1    3    3  502    0 -0.13702599626E+02  0.53417667691E+02 -0.17233459347E+03  0.18099141682E+03  0.41800000000E+01 0. -1.
         -5    1    3    3    0  502 -0.42624583832E+02 -0.47230973496E+02 -0.53086911563E+02  0.82965731381E+02  0.41800000000E+01 0. -1.
        -11    1    1    2    0    0  0.65284764470E+02 -0.32852904335E+02 -0.71553748575E+02  0.10228075445E+03  0.00000000000E+00 0.  1.
         11    1    1    2    0    0 -0.89575810120E+01  0.26666210141E+02 -0.73000469157E+02  0.78232943943E+02  0.00000000000E+00 0. -1.
</event>
<event>
 7    1  0.2490079E-009  0.1199774E+03  0.7561462E-02  0.1243134E+00
         -1   -1    0    0    0  501 -0.00000000000E+00  0.00000000000E+00  0.33410152505E+02  0.33410152505E+02  0.00000000000E+00 0.  1.
          1   -1    0    0  501    0  0.00000000000E+00 -0.00000000000E+00 -0.74780493701E+03  0.74780493701E+03  0.00000000000E+00 0. -1.
         25    2    1    2    0    0  0.87187990728E+02 -0.57920522629E+02 -0.26644566170E+03  0.31240554660E+03  0.12508957687E+03 0.  0.
          5    1    3    3  502    0  0.72470738430E+02 -0.35749103516E+02 -0.51801027646E+02  0.96077183534E+02  0.41800000000E+01 0. -1.
         -5    1    3    3    0  502  0.14717252298E+02 -0.22171419112E+02 -0.21464463405E+03  0.21632836307E+03  0.41800000000E+01 0. -1.
        -11    1    1    2    0    0 -0.41897432039E+02  0.73166054286E+02 -0.21360678694E+03  0.22964434619E+03  0.00000000000E+00 0. -1.
         11    1    1    2    0    0 -0.45290558689E+02 -0.15245531657E+02 -0.23434233587E+03  0.23916519672E+03  0.00000000000E+00 0.  1.
</event>
<event>
 7    1  0.2490079E-009  0.1714185E+03  0.7561462E-02  0.1176377E+00
         -1   -1    0    0    0  501 -0.00000000000E+00  0.00000000000E+00  0.10043849782E+03  0.10043849782E+03  0.00000000000E+00 0.  1.
          1   -1    0    0  501    0  0.00000000000E+00 -0.00000000000E+00 -0.34097878259E+03  0.34097878259E+03  0.00000000000E+00 0. -1.
         25    2    1    2    0    0 -0.10431663518E+03  0.10783012205E+03 -0.11303192054E+03  0.22568291594E+03  0.12508903985E+03 0.  0.
          5    1    3    3  502    0 -0.11709452654E+03  0.48679336548E+02 -0.45212987405E+02  0.13469407033E+03  0.41800000000E+01 0. -1.
         -5    1    3    3    0  502  0.12777891368E+02  0.59150785501E+02 -0.67818933136E+02  0.90988845607E+02  0.41800000000E+01 0. -1.
        -11    1    1    2    0    0  0.84283140183E+01 -0.31880044671E+02  0.72235187786E+01  0.33757265129E+02  0.00000000000E+00 0.  1.
         11    1    1    2    0    0  0.95888321157E+02 -0.75950077378E+02 -0.13473188300E+03  0.18197709934E+03  0.00000000000E+00 0. -1.
</event>
<event>
 7    1  0.2490079E-009  0.8327017E+02  0.7561462E-02  0.1320019E+00
          2   -1    0    0  501    0  0.00000000000E+00  0.00000000000E+00  0.19682636930E+03  0.19682636930E+03  0.00000000000E+00 0. -1.
         -2   -1    0    0    0  501 -0.00000000000E+00 -0.00000000000E+00 -0.84968224206E+02  0.84968224206E+02  0.00000000000E+00 0.  1.
         25    2    1    2    0    0 -0.63243589927E+02  0.12200841783E+02  0.32670530031E+02  0.14444206269E+03  0.12509010246E+03 0.  0.
          5    1    3    3  502    0 -0.52501310321E+02  0.44389856717E+01  0.79571382538E+02  0.95525753063E+02  0.41800000000E+01 0.  1.
         -5    1    3    3    0  502 -0.10742279606E+02  0.77618561112E+01 -0.46900852508E+02  0.48916309625E+02  0.41800000000E+01 0.  1.
        -11    1    1    2    0    0 -0.13956518863E+02 -0.17528199057E+02 -0.50483050129E+01  0.22967532834E+02  0.00000000000E+00 0.  1.
         11    1    1    2    0    0  0.77200108790E+02  0.53273572740E+01  0.84235920078E+02  0.11438499799E+03  0.00000000000E+00 0. -1.
</event>
<event>
 7    1  0.2490079E-009  0.1391312E+03  0.7561462E-02  0.1214503E+00
          1   -1    0    0  501    0  0.00000000000E+00  0.00000000000E+00  0.10237088828E+03  0.10237088828E+03  0.00000000000E+00 0. -1.
         -1   -1    0    0    0  501 -0.00000000000E+00 -0.00000000000E+00 -0.23788376321E+03  0.23788376321E+03  0.00000000000E+00 0.  1.
         25    2    1    2    0    0  0.88545698191E+02 -0.55150125318E+02 -0.10893781982E+03  0.19595138397E+03  0.12509044448E+03 0.  0.
          5    1    3    3  502    0  0.90707754221E+02 -0.18738827932E+01 -0.10975600563E+03  0.14246143789E+03  0.41800000000E+01 0. -1.
         -5    1    3    3    0  502 -0.21620560299E+01 -0.53276242525E+02  0.81818580616E+00  0.53489946082E+02  0.41800000000E+01 0. -1.
        -11    1    1    2    0    0 -0.28663352386E+02  0.67034212939E+02  0.92946605901E+01  0.73495334476E+02  0.00000000000E+00 0. -1.
         11    1    1    2    0    0 -0.59882345806E+02 -0.11884087621E+02 -0.35869715696E+02  0.70807933043E+02  0.00000000000E+00 0.  1.
</event>
<event>
 7    1  0.2623884E-009  0.1337522E+03  0.7561462E-02  0.1221992E+00
          2   -1    0    0  501    0  0.00000000000E+00  0.00000000000E+00  0.14788638308E+04  0.14788638308E+04  0.00000000000E+00 0. -1.
         -2   -1    0    0    0  501 -0.00000000000E+00 -0.00000000000E+00 -0.16550625216E+02  0.16550625216E+02  0.00000000000E+00 0.  1.
         25    2    1    2    0    0  0.20200932919E+02 -0.97218999407E+02  0.10363231766E+04  0.10485573913E+04  0.12508902846E+03 0.  0.
          5    1    3    3  502    0 -0.33447465780E+02 -0.67024819175E+02  0.82516575357E+03  0.82856928051E+03  0.41800000000E+01 0. -1.
         -5    1    3    3    0  502  0.53648398699E+02 -0.30194180232E+02  0.21115742301E+03  0.21998811080E+03  0.41800000000E+01 0. -1.
        -11    1    1    2    0    0  0.18906133075E+02  0.88779397352E+02  0.23949975528E+03  0.25612371237E+03  0.00000000000E+00 0. -1.
         11    1    1    2    0    0 -0.39107065994E+02  0.84396020557E+01  0.18649027378E+03  0.19073335238E+03  0.00000000000E+00 0.  1.
</event>
<event>
 7    1  0.2490079E-009  0.9978379E+02  0.7561462E-02  0.1280751E+00
          2   -1    0    0  501    0  0.00000000000E+00  0.00000000000E+00  0.37407854383E+03  0.37407854383E+03  0.00000000000E+00 0. -1.
         -2   -1    0    0    0  501 -0.00000000000E+00 -0.00000000000E+00 -0.40234437561E+02  0.40234437561E+02  0.00000000000E+00 0.  1.
         25    2    1    2    0    0  0.14629195511E+02  0.42670600599E+02  0.25298221431E+03  0.28580081718E+03  0.12508921948E+03 0.  0.
          5    1    3    3  502    0  0.56848460610E+02 -0.16412024910E+02  0.97125083845E+02  0.11380622280E+03  0.41800000000E+01 0.  1.
         -5    1    3    3    0  502 -0.42219265099E+02  0.59082625509E+02  0.15585713046E+03  0.17199459439E+03  0.41800000000E+01 0.  1.
        -11    1    1    2    0    0  0.11956873505E+01 -0.50041335380E+02  0.45873614214E+01  0.50265383712E+02  0.00000000000E+00 0.  1.
         11    1    1    2    0    0 -0.15824882861E+02  0.73707347815E+01  0.76274530541E+02  0.78246780496E+02  0.00000000000E+00 0. -1.
</event>
<event>
 7    1  0.2490079E-009  0.1107534E+03  0.7561462E-02  0.1259181E+00
          2   -1    0    0  501    0  0.00000000000E+00  0.00000000000E+00  0.38706126458E+03  0.38706126458E+03  0.00000000000E+00 0. -1.
         -2   -1    0    0    0  501 -0.00000000000E+00 -0.00000000000E+00 -0.48954656082E+02  0.48954656082E+02  0.00000000000E+00 0.  1.
         25    2    1    2    0    0 -0.28983094813E+02  0.68012321556E+02  0.12562476137E+03  0.19208534759E+03  0.12509797929E+03 0.  0.
          5    1    3    3  502    0 -0.24126219690E+02 -0.32297569809E+02  0.16602960585E+02  0.43798837797E+02  0.41800000000E+01 0. -1.
         -5    1    3    3    0  502 -0.48568751224E+01  0.10030989137E+03  0.10902180078E+03  0.14828650979E+03  0.41800000000E+01 0. -1.
        -11    1    1    2    0    0  0.32425333703E+02 -0.36744710732E+02  0.27301883002E+02  0.56097850655E+02  0.00000000000E+00 0.  1.
         11    1    1    2    0    0 -0.34422388907E+01 -0.31267610824E+02  0.18517996413E+03  0.18783272241E+03  0.00000000000E+00 0. -1.
</event>
<event>
 7    1  0.2490079E-009  0.1847315E+03  0.7561462E-02  0.1163301E+00
         -4   -1    0    0    0  501 -0.00000000000E+00  0.00000000000E+00  0.16661891261E+03  0.16661891261E+03  0.00000000000E+00 0.  1.
          4   -1    0    0  501    0  0.00000000000E+00 -0.00000000000E+00 -0.24035743970E+03  0.24035743970E+03  0.00000000000E+00 0. -1.
         25    2    1    2    0    0 -0.16293010040E+03 -0.12576888167E+02  0.75471231623E+00  0.20579694102E+03  0.12508963032E+03 0.  0.
          5    1    3    3  502    0 -0.17190361276E+03  0.13818345993E+02  0.16859272014E+02  0.17333062689E+03  0.41800000000E+01 0.  1.
         -5    1    3    3    0  502  0.89735123596E+01 -0.26395234160E+02 -0.16104559698E+02  0.32466314135E+02  0.41800000000E+01 0.  1.
        -11    1    1    2    0    0  0.16296838738E+02  0.14944161045E+02  0.17381114681E+02  0.28125043107E+02  0.00000000000E+00 0.  1.
         11    1    1    2    0    0  0.14663326166E+03 -0.23672728780E+01 -0.91874354088E+02  0.17305436818E+03  0.00000000000E+00 0. -1.
</event>
<event>
 7    1  0.2490079E-009  0.9289641E+02  0.7561462E-02  0.1295985E+00
         -1   -1    0    0    0  501 -0.00000000000E+00  0.00000000000E+00  0.36067878013E+03  0.36067878013E+03  0.00000000000E+00 0.  1.
          1   -1    0    0  501    0  0.00000000000E+00 -0.00000000000E+00 -0.31621556134E+02  0.31621556134E+02  0.00000000000E+00 0. -1.
         25    2    1    2    0    0  0.22200677028E+02 -0.92737572218E+01  0.22480547369E+03  0.25838645059E+03  0.12508870539E+03 0.  0.
          5    1    3    3  502    0  0.53927004129E+02 -0.41750550692E+02  0.73470605397E+02  0.10033260943E+03  0.41800000000E+01 0.  1.
         -5    1    3    3    0  502 -0.31726327101E+02  0.32476793470E+02  0.15133486829E+03  0.15805384116E+03  0.41800000000E+01 0.  1.
        -11    1    1    2    0    0  0.14389133590E+02  0.27467193379E+02  0.81375129605E+02  0.87082751426E+02  0.00000000000E+00 0.  1.
         11    1    1    2    0    0 -0.36589810617E+02 -0.18193436157E+02  0.22876620706E+02  0.46831134250E+02  0.00000000000E+00 0. -1.
</event>
<event>
 7    1  0.2490079E-009  0.8691384E+02  0.7561462E-02  0.1310502E+00
          1   -1    0    0  501    0  0.00000000000E+00  0.00000000000E+00  0.70508037683E+02  0.70508037683E+02  0.00000000000E+00 0. -1.
         -1   -1    0    0    0  501 -0.00000000000E+00 -0.00000000000E+00 -0.18248681413E+03  0.18248681413E+03  0.00000000000E+00 0.  1.
         25    2    1    2    0    0 -0.11147086260E+02  0.19134276499E+02 -0.63738531535E+02  0.14212725430E+03  0.12508868031E+03 0.  0.
          5    1    3    3  502    0 -0.31128381272E+02  0.40853352704E+02 -0.89141344025E+02  0.10296418874E+03  0.41800000000E+01 0. -1.
         -5    1    3    3    0  502  0.19981295012E+02 -0.21719076205E+02  0.25402812489E+02  0.39163065558E+02  0.41800000000E+01 0. -1.
        -11    1    1    2    0    0 -0.38789596160E+02 -0.17425830412E+02 -0.43249279096E+02  0.60653050032E+02  0.00000000000E+00 0.  1.
         11    1    1    2    0    0  0.49936682420E+02 -0.17084460873E+01 -0.49909658123E+01  0.50214547483E+02  0.00000000000E+00 0. -1.
</event>
<event>
 7    1  0.2490079E-009  0.1207441E+03  0.7561462E-02  0.1241875E+00
         -2   -1    0    0    0  501 -0.00000000000E+00  0.00000000000E+00  0.15925708234E+02  0.15925708234E+02  0.00000000000E+00 0.  1.
          2   -1    0    0  501    0  0.00000000000E+00 -0.00000000000E+00 -0.95795022232E+03  0.95795022232E+03  0.00000000000E+00 0. -1.
         25    2    1    2    0    0  0.60783278664E+02  0.22504045112E+01 -0.54657509934E+03  0.56399405919E+03  0.12508112684E+03 0.  0.
          5    1    3    3  502    0  0.99056084770E+02  0.32945207902E+00 -0.42699497008E+03  0.43835418709E+03  0.41800000000E+01 0. -1.
         -5    1    3    3    0  502 -0.38272806106E+02  0.19209524322E+01 -0.11958012927E+03  0.12563987210E+03  0.41800000000E+01 0. -1.
        -11    1    1    2    0    0  0.16630828368E+02 -0.18307133621E+02 -0.53939533639E+02  0.59339774880E+02  0.00000000000E+00 0.  1.
         11    1    1    2    0    0 -0.77414107032E+02  0.16056729109E+02 -0.34150988110E+03  0.35054209648E+03  0.00000000000E+00 0. -1.
</event>
<event>
 7    1  0.2490079E-009  0.6818026E+02  0.7561462E-02  0.1366393E+00
         -1   -1    0    0    0  501 -0.00000000000E+00  0.00000000000E+00  0.34806683754E+03  0.34806683754E+03  0.00000000000E+00 0.  1.
          1   -1    0    0  501    0  0.00000000000E+00 -0.00000000000E+00 -0.36469260588E+02  0.36469260588E+02  0.00000000000E+00 0. -1.
         25    2    1    2    0    0  0.22735525303E+02 -0.15489377613E+02  0.20531750771E+03  0.24199196970E+03  0.12509200414E+03 0.  0.
          5    1    3    3  502    0 -0.21908827087E+02 -0.56435423418E+01  0.19312777411E+03  0.19449333101E+03  0.41800000000E+01 0.  1.
         -5    1    3    3    0  502  0.44644352390E+02 -0.98458352712E+01  0.12189733597E+02  0.47498638692E+02  0.41800000000E+01 0.  1.
        -11    1    1    2    0    0  0.11356651736E+01  0.35972931764E+02  0.10507300017E+03  0.11106609257E+03  0.00000000000E+00 0.  1.
         11    1    1    2    0    0 -0.23871190476E+02 -0.20483554151E+02  0.12070690782E+01  0.31478035853E+02  0.00000000000E+00 0. -1.
</event>
<event>
 7    1  0.2941582E-009  0.1354275E+03  0.7561462E-02  0.1219617E+00
          1   -1    0    0  501    0  0.00000000000E+00  0.00000000000E+00  0.93235405249E+03  0.93235405249E+03  0.00000000000E+00 0. -1.
         -1   -1    0    0    0  501 -0.00000000000E+00 -0.00000000000E+00 -0.21543447073E+02  0.21543447073E+02  0.00000000000E+00 0.  1.
         25    2    1    2    0    0  0.15910020417E+02  0.86694366740E+02  0.56234737938E+03  0.58279632361E+03  0.12509171734E+03 0.  0.
          5    1    3    3  502    0  0.23803160094E+02 -0.23507873351E+02  0.23201928995E+03  0.23445603820E+03  0.41800000000E+01 0.  1.
         -5    1    3    3    0  502 -0.78931396770E+01  0.11020224009E+03  0.33032808943E+03  0.34834028541E+03  0.41800000000E+01 0.  1.
        -11    1    1    2    0    0 -0.46999587577E+02 -0.16510645881E+02  0.11449549018E+03  0.12486304470E+03  0.00000000000E+00 0. -1.
         11    1    1    2    0    0  0.31089567160E+02 -0.70183720859E+02  0.23396773585E+03  0.24623813125E+03  0.00000000000E+00 0.  1.
</event>
<event>
 7    1  0.2490079E-009  0.1554728E+03  0.7561462E-02  0.1193905E+00
         -2   -1    0    0    0  501 -0.00000000000E+00  0.00000000000E+00  0.63944931680E+02  0.63944931680E+02  0.00000000000E+00 0. -1.
          2   -1    0    0  501    0  0.00000000000E+00 -0.00000000000E+00 -0.41405041825E+03  0.41405041825E+03  0.00000000000E+00 0.  1.
         25    2    1    2    0    0 -0.76228162668E+02 -0.92173086309E+02 -0.16273046772E+03  0.23756307575E+03  0.12509356182E+03 0.  0.
          5    1    3    3  502    0  0.44362388713E+01 -0.81784303041E+02 -0.42558630256E+02  0.92396222047E+02  0.41800000000E+01 0.  1.
         -5    1    3    3    0  502 -0.80664401539E+02 -0.10388783267E+02 -0.12017183746E+03  0.14516685370E+03  0.41800000000E+01 0.  1.
        -11    1    1    2    0    0 -0.12495535466E+02  0.45621715214E+02 -0.38542429534E+02  0.61016376326E+02  0.00000000000E+00 0. -1.
         11    1    1    2    0    0  0.88723698133E+02  0.46551371095E+02 -0.14883258931E+03  0.17941589785E+03  0.00000000000E+00 0.  1.
</event>
<event>
 7    1  0.2490079E-009  0.1678838E+03  0.7561462E-02  0.1180073E+00
          1   -1    0    0  501    0  0.00000000000E+00  0.00000000000E+00  0.79459427086E+02  0.79459427086E+02  0.00000000000E+00 0. -1.
         -1   -1    0    0    0  501 -0.00000000000E+00 -0.00000000000E+00 -0.49309684755E+03  0.49309684755E+03  0.00000000000E+00 0.  1.
         25    2    1    2    0    0  0.12748414358E+03  0.73428855750E+02 -0.31282375444E+03  0.36762782778E+03  0.12509002636E+03 0.  0.
          5    1    3    3  502    0  0.10230797746E+03  0.10215564925E+03 -0.18909468060E+03  0.23806925370E+03  0.41800000000E+01 0.  1.
         -5    1    3    3    0  502  0.25176166123E+02 -0.28726793496E+02 -0.12372907384E+03  0.12955857409E+03  0.41800000000E+01 0.  1.
        -11    1    1    2    0    0 -0.11139202136E+01 -0.12254842592E+02 -0.56319825405E+02  0.57648458079E+02  0.00000000000E+00 0.  1.
         11    1    1    2    0    0 -0.12637022337E+03 -0.61174013158E+02 -0.44493840614E+02  0.14727998877E+03  0.00000000000E+00 0. -1.
</event>
<event>
 7    1  0.2490079E-009  0.2076334E+03  0.7561462E-02  0.1143454E+00
         -1   -1    0    0    0  501 -0.00000000000E+00  0.00000000000E+00  0.45110561504E+02  0.45110561504E+02  0.00000000000E+00 0.  1.
          1   -1    0    0  501    0  0.00000000000E+00 -0.00000000000E+00 -0.10286694854E+04  0.10286694854E+04  0.00000000000E+00 0. -1.
         25    2    1    2    0    0 -0.10069246265E+03 -0.14944711204E+03 -0.62166048276E+03  0.65923021581E+03  0.12509720331E+03 0.  0.
          5    1    3    3  502    0 -0.76114345933E+02 -0.13631183056E+02 -0.16735210194E+03  0.18440011180E+03  0.41800000000E+01 0.  1.
         -5    1    3    3    0  502 -0.24578116714E+02 -0.13581592899E+03 -0.45430838082E+03  0.47483010401E+03  0.41800000000E+01 0.  1.
        -11    1    1    2    0    0 -0.90193322127E+01  0.52703129265E+02 -0.12746525467E+03  0.13822575497E+03  0.00000000000E+00 0.  1.
         11    1    1    2    0    0  0.10971179486E+03  0.96743982779E+02 -0.23443318650E+03  0.27632407616E+03  0.00000000000E+00 0. -1.
</event>
<event>
 7    1  0.2490079E-009  0.6139185E+02  0.7561462E-02  0.1392082E+00
         -1   -1    0    0    0  501 -0.00000000000E+00  0.00000000000E+00  0.37811862172E+02  0.37811862172E+02  0.00000000000E+00 0.  1.
          1   -1    0    0  501    0  0.00000000000E+00 -0.00000000000E+00 -0.33342426898E+03  0.33342426898E+03  0.00000000000E+00 0. -1.
         25    2    1    2    0    0 -0.29344837547E+02  0.28195943284E+01 -0.15690279469E+03  0.20280974080E+03  0.12507691385E+03 0.  0.
          5    1    3    3  502    0 -0.23277122972E+02  0.37304607583E+02 -0.22922677950E+01  0.44228781267E+02  0.41800000000E+01 0.  1.
         -5    1    3    3    0  502 -0.60677145757E+01 -0.34485013254E+02 -0.15461052690E+03  0.15858095954E+03  0.41800000000E+01 0.  1.
        -11    1    1    2    0    0  0.56116863824E+01  0.13451959053E+02  0.95333834735E+01  0.17416418313E+02  0.00000000000E+00 0.  1.
         11    1    1    2    0    0  0.23733151165E+02 -0.16271553381E+02 -0.14824299559E+03  0.15100997204E+03  0.00000000000E+00 0. -1.
</event>
<event>
 7    1  0.2490079E-009  0.1161747E+03  0.7561462E-02  0.1249544E+00
         -1   -1    0    0    0  501 -0.00000000000E+00  0.00000000000E+00  0.29843834489E+03  0.29843834489E+03  0.00000000000E+00 0.  1.
          1   -1    0    0  501    0  0.00000000000E+00 -0.00000000000E+00 -0.92011136198E+02  0.92011136198E+02  0.00000000000E+00 0. -1.
         25    2    1    2    0    0  0.35969119244E+02  0.75567873207E+02 -0.19498335180E+00  0.15050689458E+03  0.12509199133E+03 0.  0.
          5    1    3    3  502    0 -0.23162632053E+01  0.87411780613E+02  0.37587643129E+02  0.95270602922E+02  0.41800000000E+01 0. -1.
         -5    1    3    3    0  502  0.38285382450E+02 -0.11843907405E+02 -0.37782626481E+02  0.55236291654E+02  0.41800000000E+01 0. -1.
        -11    1    1    2    0    0 -0.43437038053E+02 -0.18924288522E+02  0.34567988555E+02  0.58650241292E+02  0.00000000000E+00 0. -1.
         11    1    1    2    0    0  0.74679188090E+01 -0.56643584686E+02  0.17205420348E+03  0.18129234522E+03  0.00000000000E+00 0.  1.
</event>
<event>
 7    1  0.2490079E-009  0.7928778E+02  0.7561462E-02  0.1331085E+00
          2   -1    0    0  501    0  0.00000000000E+00  0.00000000000E+00  0.40113397458E+03  0.40113397458E+03  0.00000000000E+00 0. -1.
         -2   -1    0    0    0  501 -0.00000000000E+00 -0.00000000000E+00 -0.30613454707E+02  0.30613454707E+02  0.00000000000E+00 0.  1.
         25    2    1    2    0    0  0.15709043324E+02 -0.53506453936E+01  0.16435859387E+03  0.20721359998E+03  0.12509326597E+03 0.  0.
          5    1    3    3  502    0  0.39981338096E+02  0.18696766335E+02  0.55070033134E+01  0.44675227507E+02  0.41800000000E+01 0. -1.
         -5    1    3    3    0  502 -0.24272294772E+02 -0.24047411729E+02  0.15885159056E+03  0.16253837248E+03  0.41800000000E+01 0. -1.
        -11    1    1    2    0    0 -0.39255849126E+02 -0.20967418386E+02  0.63347744433E+02  0.77418286270E+02  0.00000000000E+00 0.  1.
         11    1    1    2    0    0  0.23546805802E+02  0.26318063779E+02  0.14281418157E+03  0.14711554303E+03  0.00000000000E+00 0. -1.
</event>
<event>
 7    1  0.2490079E-009  0.1225044E+03  0.7561462E-02  0.1239022E+00
         -1   -1    0    0    0  501 -0.00000000000E+00  0.00000000000E+00  0.42215358131E+02  0.42215358131E+02  0.00000000000E+00 0. -1.
          1   -1    0    0  501    0  0.00000000000E+00 -0.00000000000E+00 -0.44502477362E+03  0.44502477362E+03  0.00000000000E+00 0.  1.
         25    2    1    2    0    0 -0.65466414736E+02  0.31848908963E+02 -0.29386767817E+03  0.32757827739E+03  0.12509640716E+03 0.  0.
          5    1    3    3  502    0  0.25238279151E+02 -0.26121280597E+02 -0.63689003403E+02  0.73437412733E+02  0.41800000000E+01 0.  1.
         -5    1    3    3    0  502 -0.90704693887E+02  0.57970189559E+02 -0.23017867476E+03  0.25414086465E+03  0.41800000000E+01 0.  1.
        -11    1    1    2    0    0  0.14979520008E+02  0.22185185904E+02  0.14295367618E+01  0.26806940680E+02  0.00000000000E+00 0. -1.
         11    1    1    2    0    0  0.50486894728E+02 -0.54034094867E+02 -0.11037127409E+03  0.13285491369E+03  0.00000000000E+00 0.  1.
</event>
<event>
 7    1  0.2490079E-009  0.1261505E+03  0.7561462E-02  0.1233282E+00
          1   -1    0    0  501    0  0.00000000000E+00  0.00000000000E+00  0.10177576812E+04  0.10177576812E+04  0.00000000000E+00 0. -1.
         -1   -1    0    0    0  501 -0.00000000000E+00 -0.00000000000E+00 -0.20196420319E+02  0.20196420319E+02  0.00000000000E+00 0.  1.
         25    2    1    2    0    0  0.86844049541E+02  0.34183943356E+02  0.50919924739E+03  0.53258089331E+03  0.12509237968E+03 0.  0.
          5    1    3    3  502    0  0.97725989830E+02  0.44532704190E+00  0.46780144642E+03  0.47791864692E+03  0.41800000000E+01 0.  1.
         -5    1    3    3    0  502 -0.10881940289E+02  0.33738616314E+02  0.41397800974E+02  0.54662246393E+02  0.41800000000E+01 0.  1.
        -11    1    1    2    0    0 -0.97965665415E+02 -0.40490588090E+02  0.47574157757E+03  0.48740825593E+03  0.00000000000E+00 0. -1.
         11    1    1    2    0    0  0.11121615874E+02  0.63066447342E+01  0.12620435938E+02  0.17964952288E+02  0.00000000000E+00 0.  1.
</event>
<event>
 7    1  0.2513895E-009  0.9328087E+02  0.7561462E-02  0.1295096E+00
          2   -1    0    0  501    0  0.00000000000E+00  0.00000000000E+00  0.38060595706E+03  0.38060595706E+03  0.00000000000E+00 0. -1.
         -2   -1    0    0    0  501 -0.00000000000E+00 -0.00000000000E+00 -0.33223768177E+02  0.33223768177E+02  0.00000000000E+00 0.  1.
         25    2    1    2    0    0  0.14251784817E+02 -0.10113709981E+02  0.15213220922E+03  0.19773036192E+03  0.12509071285E+03 0.  0.
          5    1    3    3  502    0 -0.26696307541E+02 -0.49285508858E+02  0.31611256989E+02  0.64486418633E+02  0.41800000000E+01 0. -1.
         -5    1    3    3    0  502  0.40948092358E+02  0.39171798876E+02  0.12052095223E+03  0.13324394329E+03  0.41800000000E+01 0. -1.
        -11    1    1    2    0    0  0.11925008042E+02  0.35268156540E+02  0.32721228278E+02  0.49565385730E+02  0.00000000000E+00 0.  1.
         11    1    1    2    0    0 -0.26176792859E+02 -0.25154446559E+02  0.16252875138E+03  0.16653397759E+03  0.00000000000E+00 0. -1.
</event>
<event>
 7    1  0.2490079E-009  0.1041257E+03  0.7561462E-02  0.1271852E+00
          2   -1    0    0  501    0  0.00000000000E+00  0.00000000000E+00  0.39052721215E+02  0.39052721215E+02  0.00000000000E+00 0. -1.
         -2   -1    0    0    0  501 -0.00000000000E+00 -0.00000000000E+00 -0.31893364694E+03  0.31893364694E+03  0.00000000000E+00 0.  1.
         25    2    1    2    0    0 -0.20373890673E+01 -0.25760050146E+02 -0.15922292052E+03  0.20412389238E+03  0.12508754488E+03 0.  0.
          5    1    3    3  502    0 -0.56261573312E+02 -0.36910465671E+02 -0.59172129933E+02  0.89702622416E+02  0.41800000000E+01 0. -1.
         -5    1    3    3    0  502  0.54224184245E+02  0.11150415525E+02 -0.10005079059E+03  0.11442126996E+03  0.41800000000E+01 0. -1.
        -11    1    1    2    0    0 -0.41773414012E+01  0.55134262273E+02 -0.41298076597E+02  0.69012811768E+02  0.00000000000E+00 0. -1.
         11    1    1    2    0    0  0.62147304685E+01 -0.29374212127E+02 -0.79359928608E+02  0.84849664004E+02  0.00000000000E+00 0.  1.
</event>
<event>
 7    1  0.2490079E-009  0.1611131E+03  0.7561462E-02  0.1187446E+00
         -2   -1    0    0    0  501 -0.00000000000E+00  0.00000000000E+00  0.60627335852E+02  0.60627335852E+02  0.00000000000E+00 0.  1.
          2   -1    0    0  501    0  0.00000000000E+00 -0.00000000000E+00 -0.47942374133E+03  0.47942374133E+03  0.00000000000E+00 0. -1.
         25    2    1    2    0    0 -0.11346627862E+02 -0.11769462045E+03 -0.23278178530E+03  0.28950847300E+03  0.12508807586E+03 0.  0.
          5    1    3    3  502    0 -0.65683970375E+02 -0.50297552464E+02 -0.88690944101E+02  0.12135808055E+03  0.41800000000E+01 0.  1.
         -5    1    3    3    0  502  0.54337342513E+02 -0.67397067986E+02 -0.14409084120E+03  0.16815039245E+03  0.41800000000E+01 0.  1.
        -11    1    1    2    0    0 -0.42223211797E+02  0.38729171463E+02 -0.23175215973E+02  0.61804845863E+02  0.00000000000E+00 0.  1.
         11    1    1    2    0    0  0.53569839659E+02  0.78965448986E+02 -0.16283940421E+03  0.18873775832E+03  0.00000000000E+00 0. -1.
</event>
<event>
 7    1  0.2490079E-009  0.1096324E+03  0.7561462E-02  0.1261252E+00
          1   -1    0    0  501    0  0.00000000000E+00  0.00000000000E+00  0.47903170629E+03  0.47903170629E+03  0.00000000000E+00 0.  1.
         -1   -1    0    0    0  501 -0.00000000000E+00 -0.00000000000E+00 -0.31873491481E+02  0.31873491481E+02  0.00000000000E+00 0. -1.
         25    2    1    2    0    0 -0.36484291365E+02  0.28202525659E+02  0.17644075314E+03  0.22114965825E+03  0.12509734611E+03 0.  0.
          5    1    3    3  502    0  0.23683910230E+02 -0.35705932168E+02  0.78769418162E+02  0.89766000431E+02  0.41800000000E+01 0.  1.
         -5    1    3    3    0  502 -0.60168201595E+02  0.63908457827E+02  0.97671334975E+02  0.13138365781E+03  0.41800000000E+01 0.  1.
        -11    1    1    2    0    0 -0.58941273232E+01 -0.43038016886E+02  0.20880443048E+03  0.21327517864E+03  0.00000000000E+00 0.  1.
         11    1    1    2    0    0  0.42378418688E+02  0.14835491227E+02  0.61913031197E+02  0.76480360894E+02  0.00000000000E+00 0. -1.
</event>
<event>
 7    1  0.2490079E-009  0.1348326E+03  0.7561462E-02  0.1220456E+00
         -1   -1    0    0    0  501 -0.00000000000E+00  0.00000000000E+00  0.46080035691E+03  0.46080035691E+03  0.00000000000E+00 0.  1.
          1   -1    0    0  501    0  0.00000000000E+00 -0.00000000000E+00 -0.71280753313E+02  0.71280753313E+02  0.00000000000E+00 0. -1.
         25    2    1    2    0    0 -0.72592936325E+02  0.81636893614E+02  0.65746006874E+02  0.17862647305E+03  0.12510220881E+03 0.  0.
          5    1    3    3  502    0 -0.45746318950E+00  0.50014690733E+02  0.83829995269E+02  0.97706801546E+02  0.41800000000E+01 0.  1.
         -5    1    3    3    0  502 -0.72135473136E+02  0.31622202882E+02 -0.18083988394E+02  0.80919671501E+02  0.41800000000E+01 0.  1.
        -11    1    1    2    0    0 -0.16866044769E+02 -0.36916744294E+02  0.11522048897E+03  0.12216002027E+03  0.00000000000E+00 0.  1.
         11    1    1    2    0    0  0.89458981094E+02 -0.44720149320E+02  0.20855310775E+03  0.23129461690E+03  0.00000000000E+00 0. -1.
</event>
<event>
 7    1  0.2490079E-009  0.8431420E+02  0.7561462E-02  0.1317236E+00
         -1   -1    0    0    0  501 -0.00000000000E+00  0.00000000000E+00  0.14093492831E+02  0.14093492831E+02  0.00000000000E+00 0.  1.
          1   -1    0    0  501    0  0.00000000000E+00 -0.00000000000E+00 -0.14722544980E+04  0.14722544980E+04  0.00000000000E+00 0. -1.
         25    2    1    2    0    0  0.63618931519E+02 -0.17457093320E+02 -0.11226194944E+04  0.11314916755E+04  0.12508702489E+03 0.  0.
          5    1    3    3  502    0  0.75766446529E+02 -0.28071792625E+02 -0.37242437962E+03  0.38111149405E+03  0.41800000000E+01 0. -1.
         -5    1    3    3    0  502 -0.12147515009E+02  0.10614699306E+02 -0.75019511482E+03  0.75038018142E+03  0.41800000000E+01 0. -1.
        -11    1    1    2    0    0 -0.57987328288E+02  0.60089150692E+01 -0.33700868219E+03  0.34201387278E+03  0.00000000000E+00 0. -1.
         11    1    1    2    0    0 -0.56316032315E+01  0.11448178250E+02  0.14671714355E+01  0.12842442612E+02  0.00000000000E+00 0.  1.
</event>
<event>
 7    1  0.2490079E-009  0.1377833E+03  0.7561462E-02  0.1216343E+00
          2   -1    0    0  501    0  0.00000000000E+00  0.00000000000E+00  0.74615848026E+03  0.74615848026E+03  0.00000000000E+00 0. -1.
         -2   -1    0    0    0  501 -0.00000000000E+00 -0.00000000000E+00 -0.52974402157E+02  0.52974402157E+02  0.00000000000E+00 0.  1.
         25    2    1    2    0    0  0.67053653591E+02 -0.10012383610E+03  0.58674458548E+03  0.61191317230E+03  0.12509015481E+03 0.  0.
          5    1    3    3  502    0  0.46477178062E+02 -0.88650334795E+02  0.57771812495E+03  0.58634010116E+03  0.41800000000E+01 0. -1.
         -5    1    3    3    0  502  0.20576475529E+02 -0.11473501309E+02  0.90264605273E+01  0.25573071132E+02  0.41800000000E+01 0. -1.
        -11    1    1    2    0    0 -0.39201758332E+02  0.11384750955E+03  0.69734847348E+02  0.13914374661E+03  0.00000000000E+00 0.  1.
         11    1    1    2    0    0 -0.27851895259E+02 -0.13723673442E+02  0.36704645282E+02  0.48075963512E+02  0.00000000000E+00 0. -1.
</event>
<event>
 7    1  0.2490079E-009  0.7234423E+02  0.7561462E-02  0.1352298E+00
         -2   -1    0    0    0  501 -0.00000000000E+00  0.00000000000E+00  0.87467884580E+02  0.87467884580E+02  0.00000000000E+00 0.  1.
          2   -1    0    0  501    0  0.00000000000E+00 -0.00000000000E+00 -0.14651103033E+03  0.14651103033E+03  0.00000000000E+00 0. -1.
         25    2    1    2    0    0 -0.30099892094E+02 -0.39766152821E+01 -0.47478518898E+02  0.13718826788E+03  0.12507835190E+03 0.  0.
          5    1    3    3  502    0 -0.25250187971E+01 -0.17092046882E+02 -0.86021104167E+02  0.87838582347E+02  0.41800000000E+01 0. -1.
         -5    1    3    3    0  502 -0.27574873296E+02  0.13115431600E+02  0.38542585269E+02  0.49349685537E+02  0.41800000000E+01 0. -1.
        -11    1    1    2    0    0  0.11836923590E+02  0.47468392204E+02 -0.54119889411E+01  0.49220429120E+02  0.00000000000E+00 0.  1.
         11    1    1    2    0    0  0.18262968503E+02 -0.43491776921E+02 -0.61526379098E+01  0.47570217906E+02  0.00000000000E+00 0. -1.
</event>
<event>
 7    1  0.2490079E-009  0.1095313E+03  0.7561462E-02  0.1261440E+00
         -1   -1    0    0    0  501 -0.00000000000E+00  0.00000000000E+00  0.50406115621E+02  0.50406115621E+02  0.00000000000E+00 0.  1.
          1   -1    0    0  501    0  0.00000000000E+00 -0.00000000000E+00 -0.24280736532E+03  0.24280736532E+03  0.00000000000E+00 0. -1.
         25    2    1    2    0    0 -0.68300938851E+01 -0.21571639812E+02 -0.10651546940E+03  0.16584541596E+03  0.12508865235E+03 0.  0.
          5    1    3    3  502    0  0.24289006611E+02 -0.66708389681E+02 -0.70358049317E+02  0.10003845560E+03  0.41800000000E+01 0. -1.
         -5    1    3    3    0  502 -0.31119100497E+02  0.45136749869E+02 -0.36157420080E+02  0.65806960356E+02  0.41800000000E+01 0. -1.
        -11    1    1    2    0    0  0.45504725406E+02 -0.53833155854E+01 -0.52019467287E+02  0.69323048821E+02  0.00000000000E+00 0.  1.
         11    1    1    2    0    0 -0.38674631521E+02  0.26954955397E+02 -0.33866313013E+02  0.58045016158E+02  0.00000000000E+00 0. -1.
</event>
<event>
 7    1  0.2490079E-009  0.1902060E+03  0.7561462E-02  0.1158276E+00
          1   -1    0    0  501    0  0.00000000000E+00  0.00000000000E+00  0.13596394003E+03  0.13596394003E+03  0.00000000000E+00 0. -1.
         -1   -1    0    0    0  501 -0.00000000000E+00 -0.00000000000E+00 -0.47747181378E+03  0.47747181378E+03  0.00000000000E+00 0.  1.
         25    2    1    2    0    0  0.23663719191E+02  0.15468038375E+03 -0.37961765008E+03  0.42923496979E+03  0.12508839400E+03 0.  0.
          5    1    3    3  502    0  0.74879084341E+02  0.10295225658E+03 -0.23687151459E+03  0.26894540567E+03  0.41800000000E+01 0. -1.
         -5    1    3    3    0  502 -0.51215365150E+02  0.51728127166E+02 -0.14274613550E+03  0.16028956412E+03  0.41800000000E+01 0. -1.
        -11    1    1    2    0    0  0.32169213414E+01 -0.15317082990E+03  0.30350380290E+02  0.15618193653E+03  0.00000000000E+00 0.  1.
         11    1    1    2    0    0 -0.26880640533E+02 -0.15095538519E+01  0.77593960417E+01  0.28018847500E+02  0.00000000000E+00 0. -1.
</event>
<event>
 7    1  0.2490079E-009  0.9253900E+02  0.7561462E-02  0.1296817E+00
         -1   -1    0    0    0  501 -0.00000000000E+00  0.00000000000E+00  0.45258533908E+02  0.45258533908E+02  0.00000000000E+00 0.  1.
          1   -1    0    0  501    0  0.00000000000E+00 -0.00000000000E+00 -0.30644962665E+03  0.30644962665E+03  0.00000000000E+00 0. -1.
         25    2    1    2    0    0 -0.12054921823E+02  0.34138385472E+02 -0.19136965566E+03  0.23146955768E+03  0.12508021636E+03 0.  0.
          5    1    3    3  502    0 -0.25722824392E+02 -0.26941050094E+02 -0.15390574750E+03  0.15840434144E+03  0.41800000000E+01 0.  1.
         -5    1    3    3    0  502  0.13667902569E+02  0.61079435566E+02 -0.37463908160E+02  0.73065216241E+02  0.41800000000E+01 0.  1.
        -11    1    1    2    0    0 -0.32665278686E+02 -0.18179678145E+02 -0.19858186690E+01  0.37436140358E+02  0.00000000000E+00 0.  1.
         11    1    1    2    0    0  0.44720200510E+02 -0.15958707327E+02 -0.67835618411E+02  0.82802462514E+02  0.00000000000E+00 0. -1.
</event>
<event>
 7    1  0.2490079E-009  0.1965902E+03  0.7561462E-02  0.1152648E+00
          2   -1    0    0  501    0  0.00000000000E+00  0.00000000000E+00  0.16752628640E+04  0.16752628640E+04  0.00000000000E+00 0.  1.
         -2   -1    0    0    0  501 -0.00000000000E+00 -0.00000000000E+00 -0.26445163096E+02  0.26445163096E+02  0.00000000000E+00 0. -1.
         25    2    1    2    0    0 -0.10612372653E+03 -0.14020330743E+03  0.10151669600E+04  0.10378491248E+04  0.12509051312E+03 0.  0.
          5    1    3    3  502    0 -0.57755872516E+02  0.80526768964E+01  0.22831318447E+03  0.23567980189E+03  0.41800000000E+01 0. -1.
         -5    1    3    3    0  502 -0.48367854012E+02 -0.14825598433E+03  0.78685377553E+03  0.80216932294E+03  0.41800000000E+01 0. -1.
        -11    1    1    2    0    0  0.53145860959E+02  0.44459408524E+02  0.39870695647E+03  0.40468303483E+03  0.00000000000E+00 0.  1.
         11    1    1    2    0    0  0.52977865569E+02  0.95743898906E+02  0.23494378440E+03  0.25917586741E+03  0.00000000000E+00 0. -1.
</event>
<event>
 7    1  0.2490079E-009  0.2065912E+03  0.7561462E-02  0.1144294E+00
         -2   -1    0    0    0  501 -0.00000000000E+00  0.00000000000E+00  0.76880287795E+02  0.76880287795E+02  0.00000000000E+00 0.  1.
          2   -1    0    0  501    0  0.00000000000E+00 -0.00000000000E+00 -0.77904515082E+03  0.77904515082E+03  0.00000000000E+00 0. -1.
         25    2    1    2    0    0 -0.14636985846E+03 -0.11881673482E+03 -0.55525161352E+03  0.59957795463E+03  0.12509123642E+03 0.  0.
          5    1    3    3  502    0 -0.60769327155E+02 -0.99525794986E+02 -0.18250132018E+03  0.21661601801E+03  0.41800000000E+01 0. -1.
         -5    1    3    3    0  502 -0.85600531300E+02 -0.19290939838E+02 -0.37275029334E+03  0.38296193662E+03  0.41800000000E+01 0. -1.
        -11    1    1    2    0    0  0.34949345434E+02 -0.11871903374E+02 -0.38054484586E+02  0.53014551145E+02  0.00000000000E+00 0. -1.
         11    1    1    2    0    0  0.11142051302E+03  0.13068863820E+03 -0.10885876492E+03  0.20333293284E+03  0.00000000000E+00 0.  1.
</event>
<event>
 7    1  0.2490079E-009  0.9456719E+02  0.7561462E-02  0.1292154E+00
          2   -1    0    0  501    0  0.00000000000E+00  0.00000000000E+00  0.11510094577E+03  0.11510094577E+03  0.00000000000E+00 0. -1.
         -2   -1    0    0    0  501 -0.00000000000E+00 -0.00000000000E+00 -0.13474690763E+03  0.13474690763E+03  0.00000000000E+00 0.  1.
         25    2    1    2    0    0  0.33845484117E+02  0.37012695625E+02 -0.46257667002E+02  0.14248607286E+03  0.12508817998E+03 0.  0.
          5    1    3    3  502    0 -0.19418440813E+02  0.68106975009E+02 -0.36892261522E+02  0.79963411938E+02  0.41800000000E+01 0. -1.
         -5    1    3    3    0  502  0.53263924930E+02 -0.31094279384E+02 -0.93654054792E+01  0.62522660925E+02  0.41800000000E+01 0. -1.
        -11    1    1    2    0    0 -0.12174984056E+02  0.14139116492E+01 -0.31847428907E+02  0.34124596861E+02  0.00000000000E+00 0.  1.
         11    1    1    2    0    0 -0.21670500062E+02 -0.38426607274E+02  0.58459134046E+02  0.73237183677E+02  0.00000000000E+00 0. -1.
</event>
<event>
 7    1  0.2490079E-009  0.1370173E+03  0.7561462E-02  0.1217400E+00
          2   -1    0    0  501    0  0.00000000000E+00  0.00000000000E+00  0.37008003616E+03  0.37008003616E+03  0.00000000000E+00 0. -1.
         -2   -1    0    0    0  501 -0.00000000000E+00 -0.00000000000E+00 -0.66215464400E+02  0.66215464400E+02  0.00000000000E+00 0.  1.
         25    2    1    2    0    0  0.34365923609E+02  0.90506267598E+02  0.24013435666E+03  0.28754873661E+03  0.12508942999E+03 0.  0.
          5    1    3    3  502    0  0.74277822094E+02  0.53357054050E+02  0.92649530919E+02  0.13025197907E+03  0.41800000000E+01 0.  1.
         -5    1    3    3    0  502 -0.39911898486E+02  0.37149213548E+02  0.14748482575E+03  0.15729675754E+03  0.41800000000E+01 0.  1.
        -11    1    1    2    0    0 -0.62201912839E+02 -0.58631101057E+02  0.63403389768E+02  0.10642684721E+03  0.00000000000E+00 0. -1.
         11    1    1    2    0    0  0.27835989231E+02 -0.31875166540E+02  0.32682532838E+00  0.42319916744E+02  0.00000000000E+00 0.  1.
</event>
<event>
 7    1  0.2490079E-009  0.1002499E+03  0.7561462E-02  0.1279771E+00
         -2   -1    0    0    0  501 -0.00000000000E+00  0.00000000000E+00  0.27841841487E+02  0.27841841487E+02  0.00000000000E+00 0. -1.
          2   -1    0    0  501    0  0.00000000000E+00 -0.00000000000E+00 -0.49875584469E+03  0.49875584469E+03  0.00000000000E+00 0.  1.
         25    2    1    2    0    0 -0.23502443098E+02  0.16334585469E+02 -0.18339535317E+03  0.22383570189E+03  0.12509749144E+03 0.  0.
          5    1    3    3  502    0  0.39568020196E+02 -0.26235927420E+02 -0.10053298545E+03  0.11125783421E+03  0.41800000000E+01 0. -1.
         -5    1    3    3    0  502 -0.63070463294E+02  0.42570512890E+02 -0.82862367718E+02  0.11257786768E+03  0.41800000000E+01 0. -1.
        -11    1    1    2    0    0  0.47657896219E+02 -0.20917707074E+02 -0.26277687873E+03  0.26788152892E+03  0.00000000000E+00 0.  1.
         11    1    1    2    0    0 -0.24155453121E+02  0.45831216047E+01 -0.24741771305E+02  0.34880455364E+02  0.00000000000E+00 0. -1.
</event>
<event>
 7    1  0.2490079E-009  0.1364116E+03  0.7561462E-02  0.1218241E+00
          1   -1    0    0  501    0  0.00000000000E+00  0.00000000000E+00  0.24166808167E+03  0.24166808167E+03  0.00000000000E+00 0. -1.
         -1   -1    0    0    0  501 -0.00000000000E+00 -0.00000000000E+00 -0.80605368260E+02  0.80605368260E+02  0.00000000000E+00 0.  1.
         25    2    1    2    0    0 -0.86448679653E+02 -0.37914138437E+01  0.10305143701E+03  0.18372573852E+03  0.12509116392E+03 0.  0.
          5    1    3    3  502    0  0.24518838978E+02  0.26663994446E+02  0.18633233869E+02  0.40948893380E+02  0.41800000000E+01 0.  1.
         -5    1    3    3    0  502 -0.11096751863E+03 -0.30455408290E+02  0.84418203142E+02  0.14277684514E+03  0.41800000000E+01 0.  1.
        -11    1    1    2    0    0  0.43062731644E+01  0.33565354839E+02  0.30990814958E+00  0.33841883475E+02  0.00000000000E+00 0.  1.
         11    1    1    2    0    0  0.82142406489E+02 -0.29773940996E+02  0.57701368247E+02  0.10470582794E+03  0.00000000000E+00 0. -1.
</event>
<event>
 7    1  0.2490079E-009  0.1124564E+03  0.7561462E-02  0.1256087E+00
         -3   -1    0    0    0  501 -0.00000000000E+00  0.00000000000E+00  0.22480004391E+02  0.22480004391E+02  0.00000000000E+00 0.  1.
          3   -1    0    0  501    0  0.00000000000E+00 -0.00000000000E+00 -0.10426944445E+04  0.10426944445E+04  0.00000000000E+00 0. -1.
         25    2    1    2    0    0 -0.66424390278E+02  0.71438682549E+02 -0.69952938233E+03  0.71729198952E+03  0.12510298358E+03 0.  0.
          5    1    3    3  502    0 -0.74921496741E+02  0.40885350683E+02 -0.66403523247E+03  0.66951109396E+03  0.41800000000E+01 0.  1.
         -5    1    3    3    0  502  0.84971064634E+01  0.30553331866E+02 -0.35494149857E+02  0.47780895559E+02  0.41800000000E+01 0.  1.
        -11    1    1    2    0    0  0.15790396564E+02 -0.50092697180E+02 -0.53002934708E+02  0.74618536719E+02  0.00000000000E+00 0.  1.
         11    1    1    2    0    0  0.50633993713E+02 -0.21345985369E+02 -0.26768212309E+03  0.27326392267E+03  0.00000000000E+00 0. -1.
</event>
<event>
 7    1  0.2490079E-009  0.1502224E+03  0.7561462E-02  0.1200200E+00
         -1   -1    0    0    0  501 -0.00000000000E+00  0.00000000000E+00  0.10250656653E+04  0.10250656653E+04  0.00000000000E+00 0.  1.
          1   -1    0    0  501    0  0.00000000000E+00 -0.00000000000E+00 -0.24954105835E+02  0.24954105835E+02  0.00000000000E+00 0. -1.
         25    2    1    2    0    0 -0.24164132131E+02  0.11135113560E+03  0.62302227787E+03  0.64559061756E+03  0.12508999192E+03 0.  0.
          5    1    3    3  502    0 -0.64963633042E+02  0.36754532813E+02  0.39892713843E+03  0.40587128930E+03  0.41800000000E+01 0.  1.
         -5    1    3    3    0  502  0.40799500911E+02  0.74596602785E+02  0.22409513944E+03  0.23971932826E+03  0.41800000000E+01 0.  1.
        -11    1    1    2    0    0 -0.29105265415E+02 -0.21805145429E+02  0.15358166933E+03  0.15782873628E+03  0.00000000000E+00 0.  1.
         11    1    1    2    0    0  0.53269397546E+02 -0.89545990170E+02  0.22350761228E+03  0.24660041731E+03  0.00000000000E+00 0. -1.
</event>
<event>
 7    1  0.2490079E-009  0.1623024E+03  0.7561462E-02  0.1186122E+00
         -1   -1    0    0    0  501 -0.00000000000E+00  0.00000000000E+00  0.40560021182E+03  0.40560021182E+03  0.00000000000E+00 0.  1.
          1   -1    0    0  501    0  0.00000000000E+00 -0.00000000000E+00 -0.11930261346E+03  0.11930261346E+03  0.00000000000E+00 0. -1.
         25    2    1    2    0    0  0.98348895252E+02 -0.12452537523E+03  0.27566418583E+03  0.34178650063E+03  0.12509274316E+03 0.  0.
          5    1    3    3  502    0  0.15918833110E+01 -0.21905621590E+01 -0.12851429135E+02  0.13782753203E+02  0.41800000000E+01 0. -1.
         -5    1    3    3    0  502  0.96757011941E+02 -0.12233481307E+03  0.28851561496E+03  0.32800374743E+03  0.41800000000E+01 0. -1.
        -11    1    1    2    0    0 -0.10733423883E+02  0.41586450542E+02 -0.33690351736E+02  0.54586436567E+02  0.00000000000E+00 0. -1.
         11    1    1    2    0    0 -0.87615471369E+02  0.82938924684E+02  0.44323764265E+02  0.12852988808E+03  0.00000000000E+00 0.  1.
</event>
<event>
 7    1  0.2490079E-009  0.9934253E+02  0.7561462E-02  0.1281685E+00
         -3   -1    0    0    0  501 -0.00000000000E+00  0.00000000000E+00  0.48816385485E+03  0.48816385485E+03  0.00000000000E+00 0.  1.
          3   -1    0    0  501    0  0.00000000000E+00 -0.00000000000E+00 -0.28845485009E+02  0.28845485009E+02  0.00000000000E+00 0. -1.
         25    2    1    2    0    0  0.46046772749E+02  0.21940187080E+01  0.29127372727E+03  0.32033360467E+03  0.12509242619E+03 0.  0.
          5    1    3    3  502    0  0.22026668479E+02 -0.41159154110E+02  0.33017506166E+02  0.57331302137E+02  0.41800000000E+01 0. -1.
         -5    1    3    3    0  502  0.24020104270E+02  0.43353172818E+02  0.25825622110E+03  0.26300230254E+03  0.41800000000E+01 0. -1.
        -11    1    1    2    0    0 -0.53028980154E+02  0.35452695998E+02  0.10939586142E+03  0.12663499076E+03  0.00000000000E+00 0.  1.
         11    1    1    2    0    0  0.69822074051E+01 -0.37646714706E+02  0.58648781158E+02  0.70040744426E+02  0.00000000000E+00 0. -1.
</event>
<event>
 7    1  0.2490079E-009  0.1251451E+03  0.7561462E-02  0.1234843E+00
         -2   -1    0    0    0  501 -0.00000000000E+00  0.00000000000E+00  0.84014852892E+02  0.84014852892E+02  0.00000000000E+00 0.  1.
          2   -1    0    0  501    0  0.00000000000E+00 -0.00000000000E+00 -0.24237302343E+03  0.24237302343E+03  0.00000000000E+00 0. -1.
         25    2    1    2    0    0 -0.52207842478E+02 -0.64605000021E+02 -0.29498559196E+02  0.15303066499E+03  0.12509498227E+03 0.  0.
          5    1    3    3  502    0 -0.86984202011E+02 -0.67507200048E+02 -0.52120072875E+01  0.11030916044E+03  0.41800000000E+01 0.  1.
         -5    1    3    3    0  502  0.34776359532E+02  0.29022000277E+01 -0.24286551909E+02  0.42721504549E+02  0.41800000000E+01 0.  1.
        -11    1    1    2    0    0  0.93839960087E+01  0.61291523512E+02 -0.37652517787E+02  0.72542555312E+02  0.00000000000E+00 0.  1.
         11    1    1    2    0    0  0.42823846469E+02  0.33134765084E+01 -0.91207093555E+02  0.10081465602E+03  0.00000000000E+00 0. -1.
</event>
<event>
 7    1  0.2490079E-009  0.1074353E+03  0.7561462E-02  0.1265394E+00
         -1   -1    0    0    0  501 -0.00000000000E+00  0.00000000000E+00  0.99976992742E+02  0.99976992742E+02  0.00000000000E+00 0.  1.
          1   -1    0    0  501    0  0.00000000000E+00 -0.00000000000E+00 -0.15689740097E+03  0.15689740097E+03  0.00000000000E+00 0. -1.
         25    2    1    2    0    0 -0.31404972885E+02 -0.25116278821E+01 -0.87756066244E+02  0.15601163276E+03  0.12508365919E+03 0.  0.
          5    1    3    3  502    0 -0.71688461724E+02  0.28201657213E+02 -0.43212729381E+02  0.88427266126E+02  0.41800000000E+01 0.  1.
         -5    1    3    3    0  502  0.40283488839E+02 -0.30713285095E+02 -0.44543336864E+02  0.67584366634E+02  0.41800000000E+01 0.  1.
        -11    1    1    2    0    0  0.46627324862E+02  0.30018456818E+02  0.39698251991E+02  0.68199460296E+02  0.00000000000E+00 0.  1.
         11    1    1    2    0    0 -0.15222351977E+02 -0.27506828936E+02 -0.88625939745E+01  0.32663300656E+02  0.00000000000E+00 0. -1.
</event>
<event>
 7    1  0.2490079E-009  0.1109014E+03  0.7561462E-02  0.1258910E+00
          1   -1    0    0  501    0  0.00000000000E+00  0.00000000000E+00  0.48403418328E+02  0.48403418328E+02  0.00000000000E+00 0. -1.
         -1   -1    0    0    0  501 -0.00000000000E+00 -0.00000000000E+00 -0.38850521134E+03  0.38850521134E+03  0.00000000000E+00 0.  1.
         25    2    1    2    0    0 -0.43613894903E+02  0.70919204776E+02 -0.19521590525E+03  0.24634923488E+03  0.12508793080E+03 0.  0.
          5    1    3    3  502    0 -0.64603419314E+02  0.66496245845E+02 -0.62599628039E+02  0.11194435372E+03  0.41800000000E+01 0.  1.
         -5    1    3    3    0  502  0.20989524411E+02  0.44229589308E+01 -0.13261627721E+03  0.13440488117E+03  0.41800000000E+01 0.  1.
        -11    1    1    2    0    0  0.21194456463E+02  0.98131909725E+01 -0.83463252577E+02  0.86669592318E+02  0.00000000000E+00 0.  1.
         11    1    1    2    0    0  0.22419438440E+02 -0.80732395749E+02 -0.61422635188E+02  0.10388980247E+03  0.00000000000E+00 0. -1.
</event>
<event>
 7    1  0.2490079E-009  0.2790242E+03  0.7561462E-02  0.1096223E+00
         -1   -1    0    0    0  501 -0.00000000000E+00  0.00000000000E+00  0.18622962012E+03  0.18622962012E+03  0.00000000000E+00 0.  1.
          1   -1    0    0  501    0  0.00000000000E+00 -0.00000000000E+00 -0.46985305531E+03  0.46985305531E+03  0.00000000000E+00 0. -1.
         25    2    1    2    0    0  0.25902458985E+03 -0.89291149942E+02 -0.13514533044E+03  0.33012094894E+03  0.12509569531E+03 0.  0.
          5    1    3    3  502    0  0.28941499886E+02 -0.13047543336E+02  0.24096823267E+02  0.40074656509E+02  0.41800000000E+01 0.  1.
         -5    1    3    3    0  502  0.23008308997E+03 -0.76243606607E+02 -0.15924215370E+03  0.29004629243E+03  0.41800000000E+01 0.  1.
        -11    1    1    2    0    0 -0.97030179101E+02  0.71722768964E+02 -0.97799885990E+02  0.15531847586E+03  0.00000000000E+00 0. -1.
         11    1    1    2    0    0 -0.16199441075E+03  0.17568380979E+02 -0.50678218771E+02  0.17064325062E+03  0.00000000000E+00 0.  1.
</event>
<event>
 7    1  0.2490079E-009  0.1553158E+03  0.7561462E-02  0.1194089E+00
         -2   -1    0    0    0  501 -0.00000000000E+00  0.00000000000E+00  0.90430248440E+03  0.90430248440E+03  0.00000000000E+00 0.  1.
          2   -1    0    0  501    0  0.00000000000E+00 -0.00000000000E+00 -0.35138159450E+02  0.35138159450E+02  0.00000000000E+00 0. -1.
         25    2    1    2    0    0  0.12230685316E+03 -0.44467081304E+02  0.60237634870E+03  0.62884303764E+03  0.12510001145E+03 0.  0.
          5    1    3    3  502    0  0.97545936444E+02 -0.77727338451E+02  0.32114820417E+03  0.34454374221E+03  0.41800000000E+01 0. -1.
         -5    1    3    3    0  502  0.24760916714E+02  0.33260257147E+02  0.28122814453E+03  0.28429929542E+03  0.41800000000E+01 0. -1.
        -11    1    1    2    0    0 -0.42368355907E+02  0.48149810762E+02  0.18658529424E+03  0.19730066874E+03  0.00000000000E+00 0.  1.
         11    1    1    2    0    0 -0.79938497251E+02 -0.36827294583E+01  0.80202682017E+02  0.11329693748E+03  0.00000000000E+00 0. -1.
</event>
<event>
 7    1  0.2521560E-009  0.1445927E+03  0.7561462E-02  0.1207279E+00
          2   -1    0    0  501    0  0.00000000000E+00  0.00000000000E+00  0.48937144012E+03  0.48937144012E+03  0.00000000000E+00 0.  1.
         -2   -1    0    0    0  501 -0.00000000000E+00 -0.00000000000E+00 -0.67025036882E+02  0.67025036882E+02  0.00000000000E+00 0. -1.
         25    2    1    2    0    0 -0.49285268797E+02 -0.91105589958E+02  0.68001796470E+02  0.17607189012E+03  0.12509116645E+03 0.  0.
          5    1    3    3  502    0 -0.17936770152E+02  0.30940227739E+02  0.19824389064E+02  0.41103579136E+02  0.41800000000E+01 0.  1.
         -5    1    3    3    0  502 -0.31348498644E+02 -0.12204581770E+03  0.48177407406E+02  0.13496831098E+03  0.41800000000E+01 0.  1.
        -11    1    1    2    0    0  0.67267351818E+02  0.55479527825E+02  0.16293430517E+03  0.18479843730E+03  0.00000000000E+00 0. -1.
         11    1    1    2    0    0 -0.17982083021E+02  0.35626062133E+02  0.19141030161E+03  0.19552614959E+03  0.00000000000E+00 0.  1.
</event>
<event>
 7    1  0.2490079E-009  0.9945057E+02  0.7561462E-02  0.1281456E+00
         -2   -1    0    0    0  501 -0.00000000000E+00  0.00000000000E+00  0.37227025844E+02  0.37227025844E+02  0.00000000000E+00 0.  1.
          2   -1    0    0  501    0  0.00000000000E+00 -0.00000000000E+00 -0.54154734783E+03  0.54154734783E+03  0.00000000000E+00 0. -1.
         25    2    1    2    0    0 -0.12015566703E+02  0.48172620613E+02 -0.43272857446E+03  0.45317338589E+03  0.12508846191E+03 0.  0.
          5    1    3    3  502    0 -0.48391648662E+02  0.35416085117E+02 -0.89818650844E+02  0.10807827342E+03  0.41800000000E+01 0.  1.
         -5    1    3    3    0  502  0.36376081960E+02  0.12756535496E+02 -0.34290992362E+03  0.34509511247E+03  0.41800000000E+01 0.  1.
        -11    1    1    2    0    0  0.49816672913E+02 -0.26068782364E+02 -0.24606613854E+02  0.61373999050E+02  0.00000000000E+00 0.  1.
         11    1    1    2    0    0 -0.37801106210E+02 -0.22103838249E+02 -0.46985133672E+02  0.64226988737E+02  0.00000000000E+00 0. -1.
</event>
<event>
 7    1  0.2490079E-009  0.1051285E+03  0.7561462E-02  0.1269867E+00
         -1   -1    0    0    0  501 -0.00000000000E+00  0.00000000000E+00  0.22913400530E+02  0.22913400530E+02  0.00000000000E+00 0.  1.
          1   -1    0    0  501    0  0.00000000000E+00 -0.00000000000E+00 -0.84068222077E+03  0.84068222077E+03  0.00000000000E+00 0. -1.
         25    2    1    2    0    0 -0.10294981493E+02  0.33841193775E+02 -0.70263285509E+03  0.71455704251E+03  0.12509046686E+03 0.  0.
          5    1    3    3  502    0  0.33715034300E+02 -0.25464516906E+02 -0.42922458888E+03  0.43131933096E+03  0.41800000000E+01 0. -1.
         -5    1    3    3    0  502 -0.44010015793E+02  0.59305710681E+02 -0.27340826622E+03  0.28323771155E+03  0.41800000000E+01 0. -1.
        -11    1    1    2    0    0  0.47721347904E+02 -0.80948247182E+01 -0.49655215478E+02  0.69343302901E+02  0.00000000000E+00 0.  1.
         11    1    1    2    0    0 -0.37426366411E+02 -0.25746369057E+02 -0.65480749668E+02  0.79695275892E+02  0.00000000000E+00 0. -1.
</event>
<event>
 7    1  0.2490079E-009  0.9074034E+02  0.7561462E-02  0.1301069E+00
         -2   -1    0    0    0  501 -0.00000000000E+00  0.00000000000E+00  0.68142905414E+02  0.68142905414E+02  0.00000000000E+00 0.  1.
          2   -1    0    0  501    0  0.00000000000E+00 -0.00000000000E+00 -0.26750272508E+03  0.26750272508E+03  0.00000000000E+00 0. -1.
         25    2    1    2    0    0 -0.55928788940E+02 -0.30511810879E+02 -0.17400540553E+03  0.22357218806E+03  0.12509053555E+03 0.  0.
          5    1    3    3  502    0 -0.13270633520E+02 -0.25942122840E+02  0.12623390672E+02  0.32030077170E+02  0.41800000000E+01 0.  1.
         -5    1    3    3    0  502 -0.42658155420E+02 -0.45696880384E+01 -0.18662879620E+03  0.19154211089E+03  0.41800000000E+01 0.  1.
        -11    1    1    2    0    0  0.24186688384E+02  0.60570914599E+02 -0.11603719718E+02  0.66245587790E+02  0.00000000000E+00 0.  1.
         11    1    1    2    0    0  0.31742100556E+02 -0.30059103721E+02 -0.13750694418E+02  0.45827854643E+02  0.00000000000E+00 0. -1.
</event>
<event>
 7    1  0.2490079E-009  0.1835662E+03  0.7561462E-02  0.1164396E+00
          2   -1    0    0  501    0  0.00000000000E+00  0.00000000000E+00  0.87459267399E+02  0.87459267399E+02  0.00000000000E+00 0. -1.
         -2   -1    0    0    0  501 -0.00000000000E+00 -0.00000000000E+00 -0.44887237317E+03  0.44887237317E+03  0.00000000000E+00 0.  1.
         25    2    1    2    0    0  0.81528578255E+02 -0.12876256634E+03 -0.10756109051E+03  0.22459611276E+03  0.12508924060E+03 0.  0.
          5    1    3    3  502    0 -0.28772742745E+02 -0.48550101371E+02 -0.53352345791E+02  0.77774856281E+02  0.41800000000E+01 0.  1.
         -5    1    3    3    0  502  0.11030132100E+03 -0.80212464968E+02 -0.54208744715E+02  0.14682125648E+03  0.41800000000E+01 0.  1.
        -11    1    1    2    0    0  0.14366639429E+02  0.43378454234E+02 -0.33340727327E+02  0.56565844102E+02  0.00000000000E+00 0. -1.
         11    1    1    2    0    0 -0.95895217684E+02  0.85384112105E+02 -0.22051128794E+03  0.25516968371E+03  0.00000000000E+00 0.  1.
</event>
<event>
 7    1  0.2490079E-009  0.9969129E+02  0.7561462E-02  0.1280946E+00
         -1   -1    0    0    0  501 -0.00000000000E+00  0.00000000000E+00  0.28943304928E+02  0.28943304928E+02  0.00000000000E+00 0.  1.
          1   -1    0    0  501    0  0.00000000000E+00 -0.00000000000E+00 -0.58583724562E+03  0.58583724562E+03  0.00000000000E+00 0. -1.
         25    2    1    2    0    0  0.33272905595E+01  0.12294017624E+02 -0.47111854167E+03  0.48760863238E+03  0.12508910561E+03 0.  0.
          5    1    3    3  502    0 -0.42615133108E+02 -0.21969537688E+02 -0.88868250323E+02  0.10106309154E+03  0.41800000000E+01 0.  1.
         -5    1    3    3    0  502  0.45942423667E+02  0.34263555312E+02 -0.38225029134E+03  0.38654554085E+03  0.41800000000E+01 0.  1.
        -11    1    1    2    0    0 -0.43333732210E+02 -0.27126335041E+02 -0.49644509687E+02  0.71261684951E+02  0.00000000000E+00 0.  1.
         11    1    1    2    0    0  0.40006441650E+02  0.14832317417E+02 -0.36130889338E+02  0.55910233212E+02  0.00000000000E+00 0. -1.
</event>
<event>
 7    1  0.2490079E-009  0.1212226E+03  0.7561462E-02  0.1241094E+00
         -1   -1    0    0    0  501 -0.00000000000E+00  0.00000000000E+00  0.98758452233E+01  0.98758452233E+01  0.00000000000E+00 0.  1.
          1   -1    0    0  501    0  0.00000000000E+00 -0.00000000000E+00 -0.17290535626E+04  0.17290535626E+04  0.00000000000E+00 0. -1.
         25    2    1    2    0    0 -0.40017143754E+02  0.50840276042E+02 -0.11424997294E+04  0.11511465064E+04  0.12508613856E+03 0.  0.
          5    1    3    3  502    0  0.35876611613E+02  0.38638142860E+02 -0.70041844739E+03  0.70241263599E+03  0.41800000000E+01 0. -1.
         -5    1    3    3    0  502 -0.75893755367E+02  0.12202133182E+02 -0.44208128204E+03  0.44873387045E+03  0.41800000000E+01 0. -1.
        -11    1    1    2    0    0 -0.29548039125E+02 -0.70700537413E+01 -0.12128323838E+03  0.12503078097E+03  0.00000000000E+00 0. -1.
         11    1    1    2    0    0  0.69565182879E+02 -0.43770222301E+02 -0.45539474959E+03  0.46275212045E+03  0.00000000000E+00 0.  1.
</event>
<event>
 7    1  0.2490079E-009  0.8407520E+02  0.7561462E-02  0.1317869E+00
          1   -1    0    0  501    0  0.00000000000E+00  0.00000000000E+00  0.32606731138E+03  0.32606731138E+03  0.00000000000E+00 0. -1.
         -1   -1    0    0    0  501 -0.00000000000E+00 -0.00000000000E+00 -0.47186591577E+02  0.47186591577E+02  0.00000000000E+00 0.  1.
         25    2    1    2    0    0  0.16540527434E+02  0.58429870975E+02  0.14004133343E+03  0.19734588885E+03  0.12508471492E+03 0.  0.
          5    1    3    3  502    0 -0.29245279115E+01 -0.36271956454E+01  0.13146233616E+03  0.13161127475E+03  0.41800000000E+01 0.  1.
         -5    1    3    3    0  502  0.19465055346E+02  0.62057066620E+02  0.85789972669E+01  0.65734614103E+02  0.41800000000E+01 0.  1.
        -11    1    1    2    0    0  0.27524145313E+02 -0.40891240489E+02  0.31339039107E+02  0.58410679641E+02  0.00000000000E+00 0.  1.
         11    1    1    2    0    0 -0.44064672747E+02 -0.17538630485E+02  0.10750034727E+03  0.11749733447E+03  0.00000000000E+00 0. -1.
</event>
<event>
 7    1  0.2490079E-009  0.1075663E+03  0.7561462E-02  0.1265144E+00
         -2   -1    0    0    0  501 -0.00000000000E+00  0.00000000000E+00  0.39335903314E+02  0.39335903314E+02  0.00000000000E+00 0.  1.
          2   -1    0    0  501    0  0.00000000000E+00 -0.00000000000E+00 -0.36138123699E+03  0.36138123699E+03  0.00000000000E+00 0. -1.
         25    2    1    2    0    0  0.44431673720E+02  0.21987506146E+02 -0.18535148367E+03  0.22904207847E+03  0.12508987630E+03 0.  0.
          5    1    3    3  502    0  0.37361716131E+02  0.61393608214E+02 -0.49533981557E+02  0.87385128544E+02  0.41800000000E+01 0.  1.
         -5    1    3    3    0  502  0.70699575898E+01 -0.39406102069E+02 -0.13581750212E+03  0.14165694992E+03  0.41800000000E+01 0.  1.
        -11    1    1    2    0    0 -0.24238676562E+02 -0.57297597771E+02 -0.70930555517E+02  0.94348671732E+02  0.00000000000E+00 0.  1.
         11    1    1    2    0    0 -0.20192997159E+02  0.35310091625E+02 -0.65763294488E+02  0.77326390105E+02  0.00000000000E+00 0. -1.
</event>
<event>
 7    1  0.2490079E-009  0.1436811E+03  0.7561462E-02  0.1208460E+00
          2   -1    0    0  501    0  0.00000000000E+00  0.00000000000E+00  0.72589954070E+03  0.72589954070E+03  0.00000000000E+00 0. -1.
         -2   -1    0    0    0  501 -0.00000000000E+00 -0.00000000000E+00 -0.35377033581E+02  0.35377033581E+02  0.00000000000E+00 0.  1.
         25    2    1    2    0    0  0.33543188720E+02 -0.11100893352E+03  0.34408169656E+03  0.38404077558E+03  0.12508786740E+03 0.  0.
          5    1    3    3  502    0 -0.42812606594E+02 -0.35427272159E+02  0.69000169485E+02  0.88693329427E+02  0.41800000000E+01 0. -1.
         -5    1    3    3    0  502  0.76355795313E+02 -0.75581661366E+02  0.27508152707E+03  0.29534744615E+03  0.41800000000E+01 0. -1.
        -11    1    1    2    0    0  0.18179052964E+00  0.74176232447E+02  0.30001732473E+03  0.30905103405E+03  0.00000000000E+00 0. -1.
         11    1    1    2    0    0 -0.33724979249E+02  0.36832701077E+02  0.46423485835E+02  0.68184764655E+02  0.00000000000E+00 0.  1.
</event>
<event>
 7    1  0.2490079E-009  0.1349857E+03  0.7561462E-02  0.1220240E+00
          3   -1    0    0  501    0  0.00000000000E+00  0.00000000000E+00  0.50637973325E+02  0.50637973325E+02  0.00000000000E+00 0. -1.
         -3   -1    0    0    0  501 -0.00000000000E+00 -0.00000000000E+00 -0.70008080526E+03  0.70008080526E+03  0.00000000000E+00 0.  1.
         25    2    1    2    0    0 -0.10632161903E+03  0.71466885057E+02 -0.51054460656E+03  0.54103297235E+03  0.12509628110E+03 0.  0.
          5    1    3    3  502    0 -0.80043193790E+02  0.57948053106E+02 -0.15261881754E+03  0.18186496529E+03  0.41800000000E+01 0. -1.
         -5    1    3    3    0  502 -0.26278425245E+02  0.13518831951E+02 -0.35792578902E+03  0.35916800706E+03  0.41800000000E+01 0. -1.
        -11    1    1    2    0    0  0.78107398508E+02 -0.17084888332E+02 -0.12246574623E+03  0.14625497636E+03  0.00000000000E+00 0.  1.
         11    1    1    2    0    0  0.28214220527E+02 -0.54381996725E+02 -0.16432479143E+02  0.63430829874E+02  0.00000000000E+00 0. -1.
</event>
<event>
 7    1  0.2490079E-009  0.1101555E+03  0.7561462E-02  0.1260282E+00
         -2   -1    0    0    0  501 -0.00000000000E+00  0.00000000000E+00  0.13856261147E+02  0.13856261147E+02  0.00000000000E+00 0.  1.
          2   -1    0    0  501    0  0.00000000000E+00 -0.00000000000E+00 -0.12233656963E+04  0.12233656963E+04  0.00000000000E+00 0. -1.
         25    2    1    2    0    0  0.32288941617E+02  0.54541440088E+02 -0.92082438287E+03  0.93144146096E+03  0.12509319196E+03 0.  0.
          5    1    3    3  502    0  0.79635204850E+02  0.32695409774E+02 -0.64115913183E+03  0.64692600844E+03  0.41800000000E+01 0. -1.
         -5    1    3    3    0  502 -0.47346263233E+02  0.21846030314E+02 -0.27966525104E+03  0.28451545252E+03  0.41800000000E+01 0. -1.
        -11    1    1    2    0    0 -0.23855284177E+02  0.26513293524E+01 -0.20900446292E+02  0.31826604999E+02  0.00000000000E+00 0.  1.
         11    1    1    2    0    0 -0.84336574396E+01 -0.57192769441E+02 -0.26778460596E+03  0.27395389145E+03  0.00000000000E+00 0. -1.
</event>
<event>
 7    1  0.2490079E-009  0.1149385E+03  0.7561462E-02  0.1251689E+00
         -2   -1    0    0    0  501 -0.00000000000E+00  0.00000000000E+00  0.47254671902E+02  0.47254671902E+02  0.00000000000E+00 0.  1.
          2   -1    0    0  501    0  0.00000000000E+00 -0.00000000000E+00 -0.31879372615E+03  0.31879372615E+03  0.00000000000E+00 0. -1.
         25    2    1    2    0    0 -0.51136993375E+02 -0.18369188487E+02 -0.12906196808E+03  0.18776754022E+03  0.12508892189E+03 0.  0.
          5    1    3    3  502    0  0.32314364259E+02  0.25801051276E+02 -0.33737810200E+02  0.53531529228E+02  0.41800000000E+01 0.  1.
         -5    1    3    3    0  502 -0.83451357634E+02 -0.44170239763E+02 -0.95324157880E+02  0.13423601099E+03  0.41800000000E+01 0.  1.
        -11    1    1    2    0    0 -0.38146921472E+01  0.35915579515E+02 -0.16466198145E+02  0.39694034935E+02  0.00000000000E+00 0.  1.
         11    1    1    2    0    0  0.54951685522E+02 -0.17546391028E+02 -0.12601088803E+03  0.13858682290E+03  0.00000000000E+00 0. -1.
</event>
<event>
 7    1  0.2490079E-009  0.1563706E+03  0.7561462E-02  0.1192856E+00
          1   -1    0    0  501    0  0.00000000000E+00  0.00000000000E+00  0.14544919398E+04  0.14544919398E+04  0.00000000000E+00 0. -1.
         -1   -1    0    0    0  501 -0.00000000000E+00 -0.00000000000E+00 -0.16873331563E+02  0.16873331563E+02  0.00000000000E+00 0.  1.
         25    2    1    2    0    0 -0.49989534162E+02  0.85545342389E+02  0.70689838202E+03  0.72468496072E+03  0.12508401442E+03 0.  0.
          5    1    3    3  502    0 -0.43784667614E+02 -0.23540936295E+02  0.20005584917E+03  0.20618217184E+03  0.41800000000E+01 0.  1.
         -5    1    3    3    0  502 -0.62048665483E+01  0.10908627868E+03  0.50684253286E+03  0.51850278888E+03  0.41800000000E+01 0.  1.
        -11    1    1    2    0    0  0.38405563169E+02  0.22723487395E+02  0.22068705164E+03  0.22515354522E+03  0.00000000000E+00 0.  1.
         11    1    1    2    0    0  0.11583970993E+02 -0.10826882978E+03  0.51003317461E+03  0.52152676546E+03  0.00000000000E+00 0. -1.
</event>
<event>
 7    1  0.2490079E-009  0.1002448E+03  0.7561462E-02  0.1279782E+00
          1   -1    0    0  501    0  0.00000000000E+00  0.00000000000E+00  0.66092836170E+02  0.66092836170E+02  0.00000000000E+00 0. -1.
         -1   -1    0    0    0  501 -0.00000000000E+00 -0.00000000000E+00 -0.31228501044E+03  0.31228501044E+03  0.00000000000E+00 0.  1.
         25    2    1    2    0    0  0.15530289591E+02  0.73381784584E+02 -0.60275760614E+02  0.15781778573E+03  0.12508880833E+03 0.  0.
          5    1    3    3  502    0  0.34103527495E+02  0.21180621991E+02 -0.87189165511E+02  0.96078573668E+02  0.41800000000E+01 0. -1.
         -5    1    3    3    0  502 -0.18573237904E+02  0.52201162594E+02  0.26913404897E+02  0.61739212058E+02  0.41800000000E+01 0. -1.
        -11    1    1    2    0    0  0.29275500857E+02 -0.34417608123E+02 -0.13493245300E+03  0.14229685019E+03  0.00000000000E+00 0.  1.
         11    1    1    2    0    0 -0.44805790448E+02 -0.38964176461E+02 -0.50983960651E+02  0.78263210698E+02  0.00000000000E+00 0. -1.
</event>
<event>
 7    1  0.2490079E-009  0.1097108E+03  0.7561462E-02  0.1261106E+00
          3   -1    0    0  501    0  0.00000000000E+00  0.00000000000E+00  0.13093908955E+03  0.13093908955E+03  0.00000000000E+00 0. -1.
         -3   -1    0    0    0  501 -0.00000000000E+00 -0.00000000000E+00 -0.10396582168E+03  0.10396582168E+03  0.00000000000E+00 0.  1.
         25    2    1    2    0    0  0.44603315417E+02  0.51257902363E+01  0.60927574041E+01  0.13303660686E+03  0.12508352249E+03 0.  0.
          5    1    3    3  502    0  0.25344497526E+02 -0.52699147743E+02  0.31871572677E+02  0.66729403358E+02  0.41800000000E+01 0. -1.
         -5    1    3    3    0  502  0.19258817891E+02  0.57824937979E+02 -0.25778815272E+02  0.66307203498E+02  0.41800000000E+01 0. -1.
        -11    1    1    2    0    0 -0.64604548763E+02 -0.27040093104E+02  0.14500518312E+02  0.71520482291E+02  0.00000000000E+00 0.  1.
         11    1    1    2    0    0  0.20001233346E+02  0.21914302867E+02  0.63799921568E+01  0.30347822087E+02  0.00000000000E+00 0. -1.
</event>
<event>
 7    1  0.2490079E-009  0.2104279E+03  0.7561462E-02  0.1141228E+00
          1   -1    0    0  501    0  0.00000000000E+00  0.00000000000E+00  0.73159353732E+03  0.73159353732E+03  0.00000000000E+00 0. -1.
         -1   -1    0    0    0  501 -0.00000000000E+00 -0.00000000000E+00 -0.64051811286E+02  0.64051811286E+02  0.00000000000E+00 0.  1.
         25    2    1    2    0    0 -0.29823300464E+02  0.18553016978E+03  0.35526187995E+03  0.42091544592E+03  0.12509171082E+03 0.  0.
          5    1    3    3  502    0 -0.27112303540E+02 -0.33008481750E+01  0.97556531085E+02  0.10139389409E+03  0.41800000000E+01 0. -1.
         -5    1    3    3    0  502 -0.27109969240E+01  0.18883101796E+03  0.25770534886E+03  0.31952155183E+03  0.41800000000E+01 0. -1.
        -11    1    1    2    0    0 -0.15672945542E+02 -0.13667154198E+03  0.17991933842E+03  0.22648558441E+03  0.00000000000E+00 0.  1.
         11    1    1    2    0    0  0.45496246006E+02 -0.48858627802E+02  0.13236050766E+03  0.14824431827E+03  0.00000000000E+00 0. -1.
</event>
<event>
 7    1  0.2490079E-009  0.1257022E+03  0.7561462E-02  0.1233976E+00
          2   -1    0    0  501    0  0.00000000000E+00  0.00000000000E+00  0.19726499608E+03  0.19726499608E+03  0.00000000000E+00 0.  1.
         -2   -1    0    0    0  501 -0.00000000000E+00 -0.00000000000E+00 -0.14050555549E+03  0.14050555549E+03  0.00000000000E+00 0. -1.
         25    2    1    2    0    0 -0.32465921799E+02 -0.91428150075E+02 -0.49737764229E+02  0.16593878100E+03  0.12509472869E+03 0.  0.
          5    1    3    3  502    0  0.12657970765E+02  0.55064084995E+01  0.29468610910E+02  0.32808782169E+02  0.41800000000E+01 0.  1.
         -5    1    3    3    0  502 -0.45123892565E+02 -0.96934558575E+02 -0.79206375138E+02  0.13312999883E+03  0.41800000000E+01 0.  1.
        -11    1    1    2    0    0  0.75852241926E+01  0.10247423958E+03  0.63036330969E+02  0.12054909550E+03  0.00000000000E+00 0.  1.
         11    1    1    2    0    0  0.24880697607E+02 -0.11046089502E+02  0.43460873849E+02  0.51282675070E+02  0.00000000000E+00 0. -1.
</event>
<event>
 7    1  0.2490079E-009  0.8741768E+02  0.7561462E-02  0.1309228E+00
         -1   -1    0    0    0  501 -0.00000000000E+00  0.00000000000E+00  0.48982794589E+02  0.48982794589E+02  0.00000000000E+00 0.  1.
          1   -1    0    0  501    0  0.00000000000E+00 -0.00000000000E+00 -0.30839751338E+03  0.30839751338E+03  0.00000000000E+00 0. -1.
         25    2    1    2    0    0  0.40899827559E+02 -0.21345655719E+02 -0.10169204011E+03  0.16768191349E+03  0.12509004828E+03 0.  0.
          5    1    3    3  502    0  0.39711778667E+02 -0.69489834018E+02 -0.40794516141E+02  0.89930680771E+02  0.41800000000E+01 0. -1.
         -5    1    3    3    0  502  0.11880488917E+01  0.48144178299E+02 -0.60897523967E+02  0.77751232721E+02  0.41800000000E+01 0. -1.
        -11    1    1    2    0    0 -0.24098616371E+02  0.15025610455E+02 -0.16706544539E+03  0.16946201735E+03  0.00000000000E+00 0. -1.
         11    1    1    2    0    0 -0.16801211188E+02  0.63200452641E+01  0.93427667082E+01  0.20236377128E+02  0.00000000000E+00 0.  1.
</event>
<event>
 7    1  0.2490079E-009  0.1140661E+03  0.7561462E-02  0.1253220E+00
         -2   -1    0    0    0  501 -0.00000000000E+00  0.00000000000E+00  0.57814593253E+02  0.57814593253E+02  0.00000000000E+00 0.  1.
          2   -1    0    0  501    0  0.00000000000E+00 -0.00000000000E+00 -0.27817614285E+03  0.27817614285E+03  0.00000000000E+00 0. -1.
         25    2    1    2    0    0 -0.11697774878E+02  0.61468350932E+02 -0.90253222852E+02  0.16645703571E+03  0.12508838635E+03 0.  0.
          5    1    3    3  502    0 -0.66599193242E+02  0.21943965619E+02 -0.32451956127E+02  0.77379532333E+02  0.41800000000E+01 0.  1.
         -5    1    3    3    0  502  0.54901418364E+02  0.39524385312E+02 -0.57801266725E+02  0.89077503376E+02  0.41800000000E+01 0.  1.
        -11    1    1    2    0    0  0.31526993843E+02 -0.72105840432E+01 -0.98522232515E+02  0.10369461974E+03  0.00000000000E+00 0.  1.
         11    1    1    2    0    0 -0.19829218965E+02 -0.54257766889E+02 -0.31586094225E+02  0.65839080651E+02  0.00000000000E+00 0. -1.
</event>
<event>
 7    1  0.2490079E-009  0.1031245E+03  0.7561462E-02  0.1273859E+00
         -1   -1    0    0    0  501 -0.00000000000E+00  0.00000000000E+00  0.71107076496E+03  0.71107076496E+03  0.00000000000E+00 0.  1.
          1   -1    0    0  501    0  0.00000000000E+00 -0.00000000000E+00 -0.16459297237E+02  0.16459297237E+02  0.00000000000E+00 0. -1.
         25    2    1    2    0    0  0.17833129713E+01 -0.49124283426E+01  0.40519692027E+03  0.42409797006E+03  0.12508889580E+03 0.  0.
          5    1    3    3  502    0 -0.28546428310E+01 -0.60903079452E+02  0.13646653727E+03  0.14952565756E+03  0.41800000000E+01 0.  1.
         -5    1    3    3    0  502  0.46379558023E+01  0.55990651110E+02  0.26873038299E+03  0.27457231250E+03  0.41800000000E+01 0.  1.
        -11    1    1    2    0    0 -0.42728879128E+02 -0.12176004500E+02  0.17911723918E+03  0.18454538078E+03  0.00000000000E+00 0.  1.
         11    1    1    2    0    0  0.40945566157E+02  0.17088432843E+02  0.11029730828E+03  0.11888671136E+03  0.00000000000E+00 0. -1.
</event>
<event>
 7    1  0.3126528E-009  0.1157152E+03  0.7561462E-02  0.1250338E+00
         -1   -1    0    0    0  501 -0.00000000000E+00  0.00000000000E+00  0.49109104500E+02  0.49109104500E+02  0.00000000000E+00 0.  1.
          1   -1    0    0  501    0  0.00000000000E+00 -0.00000000000E+00 -0.45885376398E+03  0.45885376398E+03  0.00000000000E+00 0. -1.
         25    2    1    2    0    0 -0.79182575063E+02 -0.40500868021E+02 -0.13264174959E+03  0.20285985202E+03  0.12509230720E+03 0.  0.
          5    1    3    3  502    0 -0.45060176177E+02 -0.69365496752E+02 -0.13447548923E+03  0.15793391409E+03  0.41800000000E+01 0. -1.
         -5    1    3    3    0  502 -0.34122398886E+02  0.28864628731E+02  0.18337396367E+01  0.44925937926E+02  0.41800000000E+01 0. -1.
        -11    1    1    2    0    0  0.53701820448E+02 -0.24741028189E+01 -0.52975405948E+02  0.75474501254E+02  0.00000000000E+00 0.  1.
         11    1    1    2    0    0  0.25480754615E+02  0.42974970840E+02 -0.22412750394E+03  0.22962851521E+03  0.00000000000E+00 0. -1.
</event>
<event>
 7    1  0.2490079E-009  0.3257403E+03  0.7561462E-02  0.1073037E+00
          2   -1    0    0  501    0  0.00000000000E+00  0.00000000000E+00  0.24130110696E+04  0.24130110696E+04  0.00000000000E+00 0. -1.
         -2   -1    0    0    0  501 -0.00000000000E+00 -0.00000000000E+00 -0.73624506759E+02  0.73624506759E+02  0.00000000000E+00 0.  1.
         25    2    1    2    0    0 -0.19693056296E+03 -0.25253197497E+03  0.19258005012E+04  0.19562488465E+04  0.12509170235E+03 0.  0.
          5    1    3    3  502    0 -0.59325266666E+02 -0.61675188287E+02  0.25623061965E+03  0.27017571867E+03  0.41800000000E+01 0. -1.
         -5    1    3    3    0  502 -0.13760529630E+03 -0.19085678669E+03  0.16695698816E+04  0.16860731279E+04  0.41800000000E+01 0. -1.
        -11    1    1    2    0    0  0.20448611102E+03  0.23579773157E+03  0.40089419165E+03  0.50806622866E+03  0.00000000000E+00 0. -1.
         11    1    1    2    0    0 -0.75555480599E+01  0.16734243409E+02  0.12691869956E+02  0.22320501158E+02  0.00000000000E+00 0.  1.
</event>
<event>
 7    1  0.2490079E-009  0.1102375E+03  0.7561462E-02  0.1260131E+00
         -1   -1    0    0    0  501 -0.00000000000E+00  0.00000000000E+00  0.12868942476E+03  0.12868942476E+03  0.00000000000E+00 0.  1.
          1   -1    0    0  501    0  0.00000000000E+00 -0.00000000000E+00 -0.10552575325E+03  0.10552575325E+03  0.00000000000E+00 0. -1.
         25    2    1    2    0    0  0.16787548489E+02 -0.39431102192E+02  0.15373673392E+02  0.13311962421E+03  0.12509137025E+03 0.  0.
          5    1    3    3  502    0  0.23038140197E+02 -0.77734569713E+02  0.36185524660E+02  0.88883540811E+02  0.41800000000E+01 0.  1.
         -5    1    3    3    0  502 -0.62505917084E+01  0.38303467521E+02 -0.20811851268E+02  0.44236083394E+02  0.41800000000E+01 0.  1.
        -11    1    1    2    0    0 -0.50550480172E+02  0.42919816311E+02  0.10082766813E+02  0.67075508678E+02  0.00000000000E+00 0.  1.
         11    1    1    2    0    0  0.33762931684E+02 -0.34887141191E+01 -0.22927686900E+01  0.34020045126E+02  0.00000000000E+00 0. -1.
</event>
<event>
 7    1  0.2490079E-009  0.1886929E+03  0.7561462E-02  0.1159646E+00
         -1   -1    0    0    0  501 -0.00000000000E+00  0.00000000000E+00  0.19238703607E+03  0.19238703607E+03  0.00000000000E+00 0.  1.
          1   -1    0    0  501    0  0.00000000000E+00 -0.00000000000E+00 -0.19909673206E+03  0.19909673206E+03  0.00000000000E+00 0. -1.
         25    2    1    2    0    0 -0.14908391054E+03 -0.42220150592E+02 -0.51446143664E+02  0.20567668633E+03  0.12509052763E+03 0.  0.
          5    1    3    3  502    0 -0.44557330192E+02 -0.76858759281E+02 -0.23634704417E+02  0.92025519314E+02  0.41800000000E+01 0.  1.
         -5    1    3    3    0  502 -0.10452658034E+03  0.34638608689E+02 -0.27811439247E+02  0.11365116701E+03  0.41800000000E+01 0.  1.
        -11    1    1    2    0    0  0.11445489680E+03 -0.10758113739E+02  0.42213699807E+02  0.12246492095E+03  0.00000000000E+00 0.  1.
         11    1    1    2    0    0  0.34629013733E+02  0.52978264332E+02  0.25227478713E+01  0.63342160845E+02  0.00000000000E+00 0. -1.
</event>
<event>
 7    1  0.2490079E-009  0.1989495E+03  0.7561462E-02  0.1150628E+00
          1   -1    0    0  501    0  0.00000000000E+00  0.00000000000E+00  0.45842742902E+03  0.45842742902E+03  0.00000000000E+00 0. -1.
         -1   -1    0    0    0  501 -0.00000000000E+00 -0.00000000000E+00 -0.10359717677E+03  0.10359717677E+03  0.00000000000E+00 0.  1.
         25    2    1    2    0    0  0.56333582924E+02  0.15232355322E+03  0.85725518927E+02  0.22219632078E+03  0.12508558248E+03 0.  0.
          5    1    3    3  502    0 -0.39091916084E+02  0.60793629058E+02  0.24583034513E+02  0.76458101095E+02  0.41800000000E+01 0. -1.
         -5    1    3    3    0  502  0.95425499008E+02  0.91529924160E+02  0.61142484414E+02  0.14573821969E+03  0.41800000000E+01 0. -1.
        -11    1    1    2    0    0 -0.84789845250E+02 -0.13638346128E+03  0.16298714325E+03  0.22881122182E+03  0.00000000000E+00 0.  1.
         11    1    1    2    0    0  0.28456262326E+02 -0.15940091942E+02  0.10611759007E+03  0.11101706319E+03  0.00000000000E+00 0. -1.
</event>
<event>
 7    1  0.2490079E-009  0.1497394E+03  0.7561462E-02  0.1200794E+00
         -1   -1    0    0    0  501 -0.00000000000E+00  0.00000000000E+00  0.17683139741E+02  0.17683139741E+02  0.00000000000E+00 0.  1.
          1   -1    0    0  501    0  0.00000000000E+00 -0.00000000000E+00 -0.15144950732E+04  0.15144950732E+04  0.00000000000E+00 0. -1.
         25    2    1    2    0    0 -0.10214706830E+03  0.41150721351E+02 -0.10396088583E+04  0.10528812592E+04  0.12507982439E+03 0.  0.
          5    1    3    3  502    0 -0.36028065554E+02  0.81226018462E+02 -0.52605963370E+03  0.53352778577E+03  0.41800000000E+01 0. -1.
         -5    1    3    3    0  502 -0.66119002749E+02 -0.40075297112E+02 -0.51354922456E+03  0.51935347347E+03  0.41800000000E+01 0. -1.
        -11    1    1    2    0    0  0.44596493403E+02  0.20215046267E+02 -0.88749069454E+02  0.10136021235E+03  0.00000000000E+00 0.  1.
         11    1    1    2    0    0  0.57550574900E+02 -0.61365767617E+02 -0.36845400576E+03  0.37793674136E+03  0.00000000000E+00 0. -1.
</event>
<event>
 7    1  0.2490079E-009  0.1291640E+03  0.7561462E-02  0.1228702E+00
         -1   -1    0    0    0  501 -0.00000000000E+00  0.00000000000E+00  0.44318458718E+03  0.44318458718E+03  0.00000000000E+00 0.  1.
          1   -1    0    0  501    0  0.00000000000E+00 -0.00000000000E+00 -0.40609093573E+02  0.40609093573E+02  0.00000000000E+00 0. -1.
         25    2    1    2    0    0  0.72295670887E+02  0.23978789205E+02  0.26461800326E+03  0.30244484407E+03  0.12509416331E+03 0.  0.
          5    1    3    3  502    0  0.10280953624E+03  0.38875369289E+02  0.22232698330E+03  0.24804809006E+03  0.41800000000E+01 0.  1.
         -5    1    3    3    0  502 -0.30513865357E+02 -0.14896580084E+02  0.42291019960E+02  0.54396754007E+02  0.41800000000E+01 0.  1.
        -11    1    1    2    0    0 -0.16096341507E+02  0.31360546279E+02  0.64822473823E+02  0.73787052966E+02  0.00000000000E+00 0. -1.
         11    1    1    2    0    0 -0.56199329381E+02 -0.55339335484E+02  0.73135016524E+02  0.10756178372E+03  0.00000000000E+00 0.  1.
</event>
<event>
 7    1  0.2490079E-009  0.1195424E+03  0.7561462E-02  0.1243854E+00
          2   -1    0    0  501    0  0.00000000000E+00  0.00000000000E+00  0.56877624518E+03  0.56877624518E+03  0.00000000000E+00 0. -1.
         -2   -1    0    0    0  501 -0.00000000000E+00 -0.00000000000E+00 -0.28477630098E+02  0.28477630098E+02  0.00000000000E+00 0.  1.
         25    2    1    2    0    0  0.27720929980E+02 -0.43574828591E+02  0.35425532803E+03  0.37922600220E+03  0.12509319590E+03 0.  0.
          5    1    3    3  502    0  0.64981988015E+02  0.49682653688E+01  0.24881555739E+03  0.25724306876E+03  0.41800000000E+01 0. -1.
         -5    1    3    3    0  502 -0.37261058034E+02 -0.48543093959E+02  0.10543977065E+03  0.12198293344E+03  0.41800000000E+01 0. -1.
        -11    1    1    2    0    0  0.32440382842E+02 -0.77597183088E+01  0.70725940984E+02  0.78196869472E+02  0.00000000000E+00 0.  1.
         11    1    1    2    0    0 -0.60161312822E+02  0.51334546899E+02  0.11531734606E+03  0.13983100360E+03  0.00000000000E+00 0. -1.
</event>
<event>
 7    1  0.2490079E-009  0.1228520E+03  0.7561462E-02  0.1238465E+00
         -1   -1    0    0    0  501 -0.00000000000E+00  0.00000000000E+00  0.54203786673E+02  0.54203786673E+02  0.00000000000E+00 0.  1.
          1   -1    0    0  501    0  0.00000000000E+00 -0.00000000000E+00 -0.43926740675E+03  0.43926740675E+03  0.00000000000E+00 0. -1.
         25    2    1    2    0    0 -0.32900458126E+02 -0.75345765822E+02 -0.32010812545E+03  0.35337750216E+03  0.12508805892E+03 0.  0.
          5    1    3    3  502    0  0.32374674074E+02 -0.24249569083E+01 -0.21625974070E+02  0.39232067137E+02  0.41800000000E+01 0. -1.
         -5    1    3    3    0  502 -0.65275132200E+02 -0.72920808914E+02 -0.29848215138E+03  0.31414543503E+03  0.41800000000E+01 0. -1.
        -11    1    1    2    0    0 -0.15206266997E+02  0.63735946650E+02 -0.10243361590E+02  0.66320644659E+02  0.00000000000E+00 0.  1.
         11    1    1    2    0    0  0.48106725123E+02  0.11609819172E+02 -0.54712133041E+02  0.73773046604E+02  0.00000000000E+00 0. -1.
</event>
<event>
 7    1  0.2490079E-009  0.1036837E+03  0.7561462E-02  0.1272735E+00
         -1   -1    0    0    0  501 -0.00000000000E+00  0.00000000000E+00  0.21339803244E+02  0.21339803244E+02  0.00000000000E+00 0.  1.
          1   -1    0    0  501    0  0.00000000000E+00 -0.00000000000E+00 -0.67690623458E+03  0.67690623458E+03  0.00000000000E+00 0. -1.
         25    2    1    2    0    0 -0.48402141815E+02  0.62768011278E+01 -0.41802559039E+03  0.43906039799E+03  0.12508586369E+03 0.  0.
          5    1    3    3  502    0  0.27960664809E+02  0.66375082160E+01 -0.27798482333E+03  0.27949756653E+03  0.41800000000E+01 0.  1.
         -5    1    3    3    0  502 -0.76362806624E+02 -0.36070708823E+00 -0.14004076706E+03  0.15956283146E+03  0.41800000000E+01 0.  1.
        -11    1    1    2    0    0  0.73503386421E+02 -0.15476826286E+02 -0.15170451339E+03  0.16928242481E+03  0.00000000000E+00 0.  1.
         11    1    1    2    0    0 -0.25101244607E+02  0.92000251583E+01 -0.85836327554E+02  0.89903215024E+02  0.00000000000E+00 0. -1.
</event>
<event>
 7    1  0.2490079E-009  0.1655131E+03  0.7561462E-02  0.1182609E+00
          1   -1    0    0  501    0  0.00000000000E+00  0.00000000000E+00  0.11497749061E+04  0.11497749061E+04  0.00000000000E+00 0. -1.
         -1   -1    0    0    0  501 -0.00000000000E+00 -0.00000000000E+00 -0.27272533280E+02  0.27272533280E+02  0.00000000000E+00 0.  1.
         25    2    1    2    0    0  0.13188998455E+03 -0.44554629508E+02  0.56798457559E+03  0.59802518749E+03  0.12509022236E+03 0.  0.
          5    1    3    3  502    0  0.28584750553E+02 -0.68529327742E+02  0.31538419858E+03  0.32403398254E+03  0.41800000000E+01 0. -1.
         -5    1    3    3    0  502  0.10330523400E+03  0.23974698235E+02  0.25260037701E+03  0.27399120495E+03  0.41800000000E+01 0. -1.
        -11    1    1    2    0    0 -0.75473942805E+02 -0.47162095270E+01  0.40262693230E+03  0.40966694435E+03  0.00000000000E+00 0. -1.
         11    1    1    2    0    0 -0.56416041744E+02  0.49270839035E+02  0.15189086496E+03  0.16935530757E+03  0.00000000000E+00 0.  1.
</event>
<event>
 7    1  0.2490079E-009  0.7714905E+02  0.7561462E-02  0.1337342E+00
         -1   -1    0    0    0  501 -0.00000000000E+00  0.00000000000E+00  0.33052629576E+02  0.33052629576E+02  0.00000000000E+00 0.  1.
          1   -1    0    0  501    0  0.00000000000E+00 -0.00000000000E+00 -0.54273142257E+03  0.54273142257E+03  0.00000000000E+00 0. -1.
         25    2    1    2    0    0 -0.74922684666E+02 -0.15544625957E+02 -0.31712222634E+03  0.34938521866E+03  0.12509388678E+03 0.  0.
          5    1    3    3  502    0 -0.54469272241E+02 -0.68695823674E+01 -0.32165074921E+03  0.32632923505E+03  0.41800000000E+01 0.  1.
         -5    1    3    3    0  502 -0.20453412425E+02 -0.86750435896E+01  0.45285228700E+01  0.23055983616E+02  0.41800000000E+01 0.  1.
        -11    1    1    2    0    0  0.38069531109E+02  0.57712909841E+01 -0.18311588518E+03  0.18712034738E+03  0.00000000000E+00 0. -1.
         11    1    1    2    0    0  0.36853153557E+02  0.97733349729E+01 -0.94406814726E+01  0.39278486099E+02  0.00000000000E+00 0.  1.
</event>
<event>
 7    1  0.2490079E-009  0.1405979E+03  0.7561462E-02  0.1212527E+00
         -1   -1    0    0    0  501 -0.00000000000E+00  0.00000000000E+00  0.12917253830E+03  0.12917253830E+03  0.00000000000E+00 0.  1.
          1   -1    0    0  501    0  0.00000000000E+00 -0.00000000000E+00 -0.22088029916E+03  0.22088029916E+03  0.00000000000E+00 0. -1.
         25    2    1    2    0    0 -0.38960665522E+02  0.94980436125E+02 -0.12823779365E+03  0.20647582901E+03  0.12509244398E+03 0.  0.
          5    1    3    3  502    0 -0.55844284379E+02 -0.64020142680E+01 -0.63632073287E+02  0.85006370557E+02  0.41800000000E+01 0. -1.
         -5    1    3    3    0  502  0.16883618857E+02  0.10138245039E+03 -0.64605720361E+02  0.12146945845E+03  0.41800000000E+01 0. -1.
        -11    1    1    2    0    0  0.34088633156E+02 -0.10523245481E+03  0.53725588955E+02  0.12297293753E+03  0.00000000000E+00 0.  1.
         11    1    1    2    0    0  0.48720323655E+01  0.10252018684E+02 -0.17195556168E+02  0.20604070918E+02  0.00000000000E+00 0. -1.
</event>
<event>
 7    1  0.2490079E-009  0.9857540E+02  0.7561462E-02  0.1283321E+00
          1   -1    0    0  501    0  0.00000000000E+00  0.00000000000E+00  0.90538962486E+02  0.90538962486E+02  0.00000000000E+00 0. -1.
         -1   -1    0    0    0  501 -0.00000000000E+00 -0.00000000000E+00 -0.13594220954E+03  0.13594220954E+03  0.00000000000E+00 0.  1.
         25    2    1    2    0    0  0.18612497375E+00  0.80188114370E+01 -0.33771751598E+02  0.12981750050E+03  0.12509083200E+03 0.  0.
          5    1    3    3  502    0 -0.48225683656E+02 -0.23398166747E+02 -0.45904282143E+02  0.70695588902E+02  0.41800000000E+01 0.  1.
         -5    1    3    3    0  502  0.48411808630E+02  0.31416978184E+02  0.12132530544E+02  0.59121911593E+02  0.41800000000E+01 0.  1.
        -11    1    1    2    0    0  0.17231402562E+02 -0.43066148506E+02 -0.28066946255E+02  0.54215937265E+02  0.00000000000E+00 0.  1.
         11    1    1    2    0    0 -0.17417527536E+02  0.35047337069E+02  0.16435450802E+02  0.42447734264E+02  0.00000000000E+00 0. -1.
</event>
<event>
 7    1  0.2490079E-009  0.9814259E+02  0.7561462E-02  0.1284251E+00
         -1   -1    0    0    0  501 -0.00000000000E+00  0.00000000000E+00  0.73401499264E+02  0.73401499264E+02  0.00000000000E+00 0.  1.
          1   -1    0    0  501    0  0.00000000000E+00 -0.00000000000E+00 -0.27802842291E+03  0.27802842291E+03  0.00000000000E+00 0. -1.
         25    2    1    2    0    0 -0.18875284039E+02 -0.53743316475E+02 -0.19858270846E+03  0.24151104668E+03  0.12509145917E+03 0.  0.
          5    1    3    3  502    0  0.44511394270E+02  0.10990463210E+02 -0.78836169362E+02  0.91294405640E+02  0.41800000000E+01 0. -1.
         -5    1    3    3    0  502 -0.63386678309E+02 -0.64733779686E+02 -0.11974653909E+03  0.15021664104E+03  0.41800000000E+01 0. -1.
        -11    1    1    2    0    0  0.22591793321E+00  0.26696667804E+02  0.43162999500E+02  0.50752415081E+02  0.00000000000E+00 0.  1.
         11    1    1    2    0    0  0.18649366106E+02  0.27046648671E+02 -0.49207214689E+02  0.59166460414E+02  0.00000000000E+00 0. -1.
</event>
<event>
 7    1  0.2490079E-009  0.2516673E+03  0.7561462E-02  0.1112256E+00
         -1   -1    0    0    0  501 -0.00000000000E+00  0.00000000000E+00  0.12764316054E+03  0.12764316054E+03  0.00000000000E+00 0.  1.
          1   -1    0    0  501    0  0.00000000000E+00 -0.00000000000E+00 -0.65334222587E+03  0.65334222587E+03  0.00000000000E+00 0. -1.
         25    2    1    2    0    0 -0.15291992261E+03 -0.18245650337E+03 -0.10362467958E+03  0.28820184580E+03  0.12508937346E+03 0.  0.
          5    1    3    3  502    0 -0.17267561137E+02 -0.71942778831E+02  0.16505596645E+02  0.75919952675E+02  0.41800000000E+01 0.  1.
         -5    1    3    3    0  502 -0.13565236147E+03 -0.11051372453E+03 -0.12013027622E+03  0.21228189312E+03  0.41800000000E+01 0.  1.
        -11    1    1    2    0    0  0.66526491571E+02  0.18771270464E+02 -0.12188754271E+03  0.14012390140E+03  0.00000000000E+00 0.  1.
         11    1    1    2    0    0  0.86393431036E+02  0.16368523290E+03 -0.30018684303E+03  0.35265963921E+03  0.00000000000E+00 0. -1.
</event>
<event>
 7    1  0.2490079E-009  0.1047739E+03  0.7561462E-02  0.1270566E+00
         -1   -1    0    0    0  501 -0.00000000000E+00  0.00000000000E+00  0.19432403052E+03  0.19432403052E+03  0.00000000000E+00 0.  1.
          1   -1    0    0  501    0  0.00000000000E+00 -0.00000000000E+00 -0.67324036671E+02  0.67324036671E+02  0.00000000000E+00 0. -1.
         25    2    1    2    0    0 -0.11295004914E+02 -0.33020525477E+02  0.78125850597E+02  0.15155399668E+03  0.12508810152E+03 0.  0.
          5    1    3    3  502    0 -0.34393361802E+02  0.34469500805E+02  0.60837480720E+02  0.78036666268E+02  0.41800000000E+01 0. -1.
         -5    1    3    3    0  502  0.23098356889E+02 -0.67490026282E+02  0.17288369877E+02  0.73517330417E+02  0.41800000000E+01 0. -1.
        -11    1    1    2    0    0  0.29714718923E+02 -0.18160586559E+02  0.43074188824E+02  0.55390948428E+02  0.00000000000E+00 0.  1.
         11    1    1    2    0    0 -0.18419714009E+02  0.51181112036E+02  0.57999544221E+01  0.54703122075E+02  0.00000000000E+00 0. -1.
</event>
<event>
 7    1  0.2490079E-009  0.2075507E+03  0.7561462E-02  0.1143520E+00
          1   -1    0    0  501    0  0.00000000000E+00  0.00000000000E+00  0.45884681860E+03  0.45884681860E+03  0.00000000000E+00 0. -1.
         -1   -1    0    0    0  501 -0.00000000000E+00 -0.00000000000E+00 -0.11410598780E+03  0.11410598780E+03  0.00000000000E+00 0.  1.
         25    2    1    2    0    0 -0.11181271590E+03 -0.16168399795E+03  0.23402393345E+03  0.33023878281E+03  0.12508658447E+03 0.  0.
          5    1    3    3  502    0 -0.87885684883E+02 -0.10209816602E+03  0.22897193246E+03  0.26569446243E+03  0.41800000000E+01 0. -1.
         -5    1    3    3    0  502 -0.23927031018E+02 -0.59585831927E+02  0.50520009984E+01  0.64544320385E+02  0.41800000000E+01 0. -1.
        -11    1    1    2    0    0  0.12078379591E+03  0.10951301823E+03  0.82369673589E+02  0.18266523929E+03  0.00000000000E+00 0.  1.
         11    1    1    2    0    0 -0.89710800134E+01  0.52170979719E+02  0.28347223758E+02  0.60048784302E+02  0.00000000000E+00 0. -1.
</event>
<event>
 7    1  0.2490079E-009  0.1355254E+03  0.7561462E-02  0.1219480E+00
         -2   -1    0    0    0  501 -0.00000000000E+00  0.00000000000E+00  0.14756213554E+03  0.14756213554E+03  0.00000000000E+00 0. -1.
          2   -1    0    0  501    0  0.00000000000E+00 -0.00000000000E+00 -0.13374665648E+03  0.13374665648E+03  0.00000000000E+00 0.  1.
         25    2    1    2    0    0  0.32997434764E+02 -0.78365098014E+02 -0.11036097813E+02  0.15165329947E+03  0.12508800301E+03 0.  0.
          5    1    3    3  502    0  0.68864612293E+02 -0.12158460541E+02  0.15423656363E+02  0.71732311859E+02  0.41800000000E+01 0. -1.
         -5    1    3    3    0  502 -0.35867177529E+02 -0.66206637473E+02 -0.26459754176E+02  0.79920987609E+02  0.41800000000E+01 0. -1.
        -11    1    1    2    0    0 -0.70000952095E+01 -0.21384358919E+02 -0.34389798864E+01  0.22762221376E+02  0.00000000000E+00 0. -1.
         11    1    1    2    0    0 -0.25997339555E+02  0.99749456933E+02  0.28290556757E+02  0.10689327118E+03  0.00000000000E+00 0.  1.
</event>
<event>
 7    1  0.3050970E-009  0.1574670E+03  0.7561462E-02  0.1191586E+00
          2   -1    0    0  501    0  0.00000000000E+00  0.00000000000E+00  0.40477835746E+03  0.40477835746E+03  0.00000000000E+00 0.  1.
         -2   -1    0    0    0  501 -0.00000000000E+00 -0.00000000000E+00 -0.88306643583E+02  0.88306643583E+02  0.00000000000E+00 0. -1.
         25    2    1    2    0    0  0.86064337607E+02 -0.12686007532E+03  0.19229223869E+03  0.27590606539E+03  0.12508917994E+03 0.  0.
          5    1    3    3  502    0  0.70395590790E+02 -0.62652050263E+02  0.18703132793E+03  0.20947316924E+03  0.41800000000E+01 0.  1.
         -5    1    3    3    0  502  0.15668746817E+02 -0.64208025055E+02  0.52609107643E+01  0.66432896146E+02  0.41800000000E+01 0.  1.
        -11    1    1    2    0    0 -0.69035369468E+02  0.87211805432E+02  0.13274658678E+03  0.17318613555E+03  0.00000000000E+00 0.  1.
         11    1    1    2    0    0 -0.17028968139E+02  0.39648269886E+02 -0.85671115912E+01  0.43992800114E+02  0.00000000000E+00 0. -1.
</event>
<event>
 7    1  0.2490079E-009  0.9922669E+02  0.7561462E-02  0.1281931E+00
          2   -1    0    0  501    0  0.00000000000E+00  0.00000000000E+00  0.92314396495E+03  0.92314396495E+03  0.00000000000E+00 0. -1.
         -2   -1    0    0    0  501 -0.00000000000E+00 -0.00000000000E+00 -0.21683424990E+02  0.21683424990E+02  0.00000000000E+00 0.  1.
         25    2    1    2    0    0 -0.64640244926E+02 -0.15016084161E+02  0.69896831070E+03  0.71316755088E+03  0.12508961673E+03 0.  0.
          5    1    3    3  502    0 -0.30099810291E+02  0.20867056189E+02  0.49191057486E+02  0.61470847970E+02  0.41800000000E+01 0. -1.
         -5    1    3    3    0  502 -0.34540434635E+02 -0.35883140350E+02  0.64977725322E+03  0.65169670291E+03  0.41800000000E+01 0. -1.
        -11    1    1    2    0    0 -0.19421453876E+02 -0.12572575164E+02  0.54988855280E+02  0.59657662726E+02  0.00000000000E+00 0. -1.
         11    1    1    2    0    0  0.84061698802E+02  0.27588659325E+02  0.14750337398E+03  0.17200217633E+03  0.00000000000E+00 0.  1.
</event>
<event>
 7    1  0.2490079E-009  0.1542675E+03  0.7561462E-02  0.1195325E+00
          1   -1    0    0  501    0  0.00000000000E+00  0.00000000000E+00  0.63514893552E+03  0.63514893552E+03  0.00000000000E+00 0. -1.
         -1   -1    0    0    0  501 -0.00000000000E+00 -0.00000000000E+00 -0.37969524466E+02  0.37969524466E+02  0.00000000000E+00 0.  1.
         25    2    1    2    0    0 -0.10583866316E+03  0.24734510193E+02  0.33628079675E+03  0.37489391713E+03  0.12508819378E+03 0.  0.
          5    1    3    3  502    0 -0.53083759802E+02  0.75446850914E+02  0.18198049429E+03  0.20406980563E+03  0.41800000000E+01 0.  1.
         -5    1    3    3    0  502 -0.52754903359E+02 -0.50712340721E+02  0.15430030246E+03  0.17082411150E+03  0.41800000000E+01 0.  1.
        -11    1    1    2    0    0 -0.11382889734E+02  0.15259827331E+02  0.21742408364E+02  0.28899218507E+02  0.00000000000E+00 0. -1.
         11    1    1    2    0    0  0.11722155289E+03 -0.39994337525E+02  0.23915620594E+03  0.26932532435E+03  0.00000000000E+00 0.  1.
</event>
<event>
 7    1  0.2490079E-009  0.1279367E+03  0.7561462E-02  0.1230550E+00
          2   -1    0    0  501    0  0.00000000000E+00  0.00000000000E+00  0.65199087192E+03  0.65199087192E+03  0.00000000000E+00 0. -1.
         -2   -1    0    0    0  501 -0.00000000000E+00 -0.00000000000E+00 -0.29615369591E+02  0.29615369591E+02  0.00000000000E+00 0.  1.
         25    2    1    2    0    0 -0.49971477799E+02  0.58084059812E+02  0.45560518637E+03  0.47863770047E+03  0.12508819236E+03 0.  0.
          5    1    3    3  502    0 -0.81503115894E+01  0.88332273269E+02  0.34899931291E+03  0.36012082819E+03  0.41800000000E+01 0. -1.
         -5    1    3    3    0  502 -0.41821166210E+02 -0.30248213457E+02  0.10660587346E+03  0.11851687228E+03  0.41800000000E+01 0. -1.
        -11    1    1    2    0    0  0.51364666140E+02  0.55246055362E+01  0.66365016876E+02  0.84102114474E+02  0.00000000000E+00 0.  1.
         11    1    1    2    0    0 -0.13931883408E+01 -0.63608665349E+02  0.10040529909E+03  0.11886642657E+03  0.00000000000E+00 0. -1.
</event>
<event>
 7    1  0.2490079E-009  0.8917247E+02  0.7561462E-02  0.1304868E+00
          1   -1    0    0  501    0  0.00000000000E+00  0.00000000000E+00  0.68867979739E+03  0.68867979739E+03  0.00000000000E+00 0. -1.
         -1   -1    0    0    0  501 -0.00000000000E+00 -0.00000000000E+00 -0.18644631175E+02  0.18644631175E+02  0.00000000000E+00 0.  1.
         25    2    1    2    0    0 -0.28992707024E+02  0.14211285302E+02  0.35887726202E+03  0.38142250699E+03  0.12509077486E+03 0.  0.
          5    1    3    3  502    0 -0.64239009663E+01  0.44129983886E+02  0.39178568761E+02  0.59507601461E+02  0.41800000000E+01 0.  1.
         -5    1    3    3    0  502 -0.22568806058E+02 -0.29918698585E+02  0.31969869326E+03  0.32191490553E+03  0.41800000000E+01 0.  1.
        -11    1    1    2    0    0 -0.98252272706E+01  0.33169395091E+02  0.90032710819E+02  0.96450157485E+02  0.00000000000E+00 0.  1.
         11    1    1    2    0    0  0.38817934295E+02 -0.47380680392E+02  0.22112519338E+03  0.22945176409E+03  0.00000000000E+00 0. -1.
</event>
<event>
 7    1  0.2490079E-009  0.1054469E+03  0.7561462E-02  0.1269242E+00
          1   -1    0    0  501    0  0.00000000000E+00  0.00000000000E+00  0.30299418656E+03  0.30299418656E+03  0.00000000000E+00 0. -1.
         -1   -1    0    0    0  501 -0.00000000000E+00 -0.00000000000E+00 -0.50331554498E+02  0.50331554498E+02  0.00000000000E+00 0.  1.
         25    2    1    2    0    0 -0.20325033651E+02 -0.21945263428E+02  0.21304104404E+03  0.24885511043E+03  0.12509067895E+03 0.  0.
          5    1    3    3  502    0  0.31035392502E+02  0.38125836236E+02  0.87389681233E+02  0.10035538731E+03  0.41800000000E+01 0. -1.
         -5    1    3    3    0  502 -0.51360426153E+02 -0.60071099664E+02  0.12565136281E+03  0.14849972312E+03  0.41800000000E+01 0. -1.
        -11    1    1    2    0    0  0.48429502835E+02  0.30103917580E+01 -0.46192396127E+01  0.48742348917E+02  0.00000000000E+00 0.  1.
         11    1    1    2    0    0 -0.28104469184E+02  0.18934871670E+02  0.44240827633E+02  0.55728281715E+02  0.00000000000E+00 0. -1.
</event>
<event>
 7    1  0.2490079E-009  0.1018226E+03  0.7561462E-02  0.1276509E+00
         -1   -1    0    0    0  501 -0.00000000000E+00  0.00000000000E+00  0.28142944079E+02  0.28142944079E+02  0.00000000000E+00 0.  1.
          1   -1    0    0  501    0  0.00000000000E+00 -0.00000000000E+00 -0.54890029487E+03  0.54890029487E+03  0.00000000000E+00 0. -1.
         25    2    1    2    0    0 -0.19206946437E+02  0.20460727670E+02 -0.41743355850E+03  0.43667082719E+03  0.12507232863E+03 0.  0.
          5    1    3    3  502    0 -0.70460013721E+02  0.22003584002E+02 -0.19983815864E+03  0.21307635554E+03  0.41800000000E+01 0. -1.
         -5    1    3    3    0  502  0.51253067284E+02 -0.15428563313E+01 -0.21759539986E+03  0.22359447165E+03  0.41800000000E+01 0. -1.
        -11    1    1    2    0    0  0.41738164511E+02  0.74466346086E+01 -0.94292017997E+02  0.10338525718E+03  0.00000000000E+00 0. -1.
         11    1    1    2    0    0 -0.22531218074E+02 -0.27907362279E+02 -0.90317742979E+01  0.36987154584E+02  0.00000000000E+00 0.  1.
</event>
<event>
 7    1  0.2490079E-009  0.1402730E+03  0.7561462E-02  0.1212962E+00
          2   -1    0    0  501    0  0.00000000000E+00  0.00000000000E+00  0.12053980623E+03  0.12053980623E+03  0.00000000000E+00 0. -1.
         -2   -1    0    0    0  501 -0.00000000000E+00 -0.00000000000E+00 -0.23762215477E+03  0.23762215477E+03  0.00000000000E+00 0.  1.
         25    2    1    2    0    0  0.80348651999E+02  0.77761476377E+02  0.64029465504E+01  0.16790186339E+03  0.12508910791E+03 0.  0.
          5    1    3    3  502    0  0.81520848953E+02  0.10140414432E+03  0.30674268841E+02  0.13374166317E+03  0.41800000000E+01 0. -1.
         -5    1    3    3    0  502 -0.11721969536E+01 -0.23642667942E+02 -0.24271322291E+02  0.34160200217E+02  0.41800000000E+01 0. -1.
        -11    1    1    2    0    0 -0.69906694172E+02 -0.27703398629E+02 -0.24916308541E+02  0.79216454206E+02  0.00000000000E+00 0. -1.
         11    1    1    2    0    0 -0.10441957828E+02 -0.50058077749E+02 -0.98568986553E+02  0.11104364341E+03  0.00000000000E+00 0.  1.
</event>
<event>
 7    1  0.2490079E-009  0.1297977E+03  0.7561462E-02  0.1227756E+00
          1   -1    0    0  501    0  0.00000000000E+00  0.00000000000E+00  0.16736096373E+03  0.16736096373E+03  0.00000000000E+00 0. -1.
         -1   -1    0    0    0  501 -0.00000000000E+00 -0.00000000000E+00 -0.10771573293E+03  0.10771573293E+03  0.00000000000E+00 0.  1.
         25    2    1    2    0    0 -0.32622682273E+02  0.68917441204E+02  0.13776238228E+02  0.14713915729E+03  0.12508514607E+03 0.  0.
          5    1    3    3  502    0 -0.75634180478E+02  0.68161913624E+02  0.42428188212E+00  0.10190303303E+03  0.41800000000E+01 0. -1.
         -5    1    3    3    0  502  0.43011498204E+02  0.75552758062E+00  0.13351956346E+02  0.45236124259E+02  0.41800000000E+01 0. -1.
        -11    1    1    2    0    0  0.54999918016E+02 -0.16410443608E+02  0.41236249398E+02  0.70673346500E+02  0.00000000000E+00 0. -1.
         11    1    1    2    0    0 -0.22377235743E+02 -0.52506997597E+02  0.46327431766E+01  0.57264192874E+02  0.00000000000E+00 0.  1.
</event>
<event>
 7    1  0.2490079E-009  0.1698777E+03  0.7561462E-02  0.1177975E+00
          1   -1    0    0  501    0  0.00000000000E+00  0.00000000000E+00  0.48163382038E+02  0.48163382038E+02  0.00000000000E+00 0. -1.
         -1   -1    0    0    0  501 -0.00000000000E+00 -0.00000000000E+00 -0.66666684358E+03  0.66666684358E+03  0.00000000000E+00 0.  1.
         25    2    1    2    0    0 -0.64780235837E+02  0.12353062484E+03 -0.26338126698E+03  0.32322298402E+03  0.12508841424E+03 0.  0.
          5    1    3    3  502    0 -0.10256698096E+03  0.87313261196E+02 -0.18500849893E+03  0.22888688962E+03  0.41800000000E+01 0.  1.
         -5    1    3    3    0  502  0.37786745118E+02  0.36217363641E+02 -0.78372768053E+02  0.94336094407E+02  0.41800000000E+01 0.  1.
        -11    1    1    2    0    0  0.76960209060E+02 -0.10241034071E+03 -0.33895006164E+03  0.36235051531E+03  0.00000000000E+00 0.  1.
         11    1    1    2    0    0 -0.12179973222E+02 -0.21120284130E+02 -0.16172132920E+02  0.29256726279E+02  0.00000000000E+00 0. -1.
</event>
<event>
 7    1  0.2603866E-009  0.2162797E+03  0.7561462E-02  0.1136687E+00
          2   -1    0    0  501    0  0.00000000000E+00  0.00000000000E+00  0.46133887587E+03  0.46133887587E+03  0.00000000000E+00 0. -1.
         -2   -1    0    0    0  501 -0.00000000000E+00 -0.00000000000E+00 -0.14428109557E+03  0.14428109557E+03  0.00000000000E+00 0.  1.
         25    2    1    2    0    0 -0.16653682540E+03 -0.13056691297E+03  0.46443441663E+02  0.25017380552E+03  0.12509079389E+03 0.  0.
          5    1    3    3  502    0 -0.75300465419E+02 -0.22574723227E+02  0.71724397587E+02  0.10649713531E+03  0.41800000000E+01 0.  1.
         -5    1    3    3    0  502 -0.91236359983E+02 -0.10799218974E+03 -0.25280955924E+02  0.14367667020E+03  0.41800000000E+01 0.  1.
        -11    1    1    2    0    0  0.11988287877E+03  0.10404266118E+03  0.13079006706E+03  0.20567649746E+03  0.00000000000E+00 0.  1.
         11    1    1    2    0    0  0.46653946635E+02  0.26524251791E+02  0.13982427157E+03  0.14976966846E+03  0.00000000000E+00 0. -1.
</event>
<event>
 7    1  0.2490079E-009  0.1149178E+03  0.7561462E-02  0.1251725E+00
          1   -1    0    0  501    0  0.00000000000E+00  0.00000000000E+00  0.77591775183E+02  0.77591775183E+02  0.00000000000E+00 0. -1.
         -1   -1    0    0    0  501 -0.00000000000E+00 -0.00000000000E+00 -0.29547996121E+03  0.29547996121E+03  0.00000000000E+00 0.  1.
         25    2    1    2    0    0 -0.65991916456E+02  0.24673476355E+02 -0.20424075576E+02  0.14501917139E+03  0.12509877591E+03 0.  0.
          5    1    3    3  502    0 -0.66214193293E+02 -0.40290404319E+02 -0.32327012397E+01  0.77688859118E+02  0.41800000000E+01 0.  1.
         -5    1    3    3    0  502  0.22227683699E+00  0.64963880675E+02 -0.17191374337E+02  0.67330312274E+02  0.41800000000E+01 0.  1.
        -11    1    1    2    0    0  0.16158305132E+02 -0.32856131342E+02 -0.16263575254E+03  0.16670634120E+03  0.00000000000E+00 0.  1.
         11    1    1    2    0    0  0.49833611325E+02  0.81826549865E+01 -0.34828357911E+02  0.61346223804E+02  0.00000000000E+00 0. -1.
</event>
<event>
 7    1  0.2490079E-009  0.1180628E+03  0.7561462E-02  0.1246327E+00
         -1   -1    0    0    0  501 -0.00000000000E+00  0.00000000000E+00  0.21025730142E+03  0.21025730142E+03  0.00000000000E+00 0.  1.
          1   -1    0    0  501    0  0.00000000000E+00 -0.00000000000E+00 -0.10445869727E+03  0.10445869727E+03  0.00000000000E+00 0. -1.
         25    2    1    2    0    0  0.21578251809E+02 -0.78378390527E+02  0.12210903456E+03  0.19278695944E+03  0.12508957733E+03 0.  0.
          5    1    3    3  502    0  0.60600895119E+01 -0.10955190538E+03  0.70834909725E+02  0.13066522679E+03  0.41800000000E+01 0. -1.
         -5    1    3    3    0  502  0.15518162297E+02  0.31173514852E+02  0.51274124839E+02  0.62121732649E+02  0.41800000000E+01 0. -1.
        -11    1    1    2    0    0  0.85135115136E+01  0.47053133831E+02 -0.48313497556E+02  0.67975520062E+02  0.00000000000E+00 0. -1.
         11    1    1    2    0    0 -0.30091763323E+02  0.31325256696E+02  0.32003067140E+02  0.53953519193E+02  0.00000000000E+00 0.  1.
</event>
<event>
 7    1  0.2490079E-009  0.9340192E+02  0.7561462E-02  0.1294816E+00
          1   -1    0    0  501    0  0.00000000000E+00  0.00000000000E+00  0.11538572205E+03  0.11538572205E+03  0.00000000000E+00 0. -1.
         -1   -1    0    0    0  501 -0.00000000000E+00 -0.00000000000E+00 -0.15210249305E+03  0.15210249305E+03  0.00000000000E+00 0.  1.
         25    2    1    2    0    0 -0.17842779012E+02  0.54482327162E+02  0.30562791827E+02  0.14095043270E+03  0.12508497710E+03 0.  0.
          5    1    3    3  502    0  0.49627647206E+02  0.21281751987E+02 -0.10503627899E+02  0.55168967128E+02  0.41800000000E+01 0. -1.
         -5    1    3    3    0  502 -0.67470426218E+02  0.33200575175E+02  0.41066419726E+02  0.85781465569E+02  0.41800000000E+01 0. -1.
        -11    1    1    2    0    0  0.10770085179E+02 -0.33554924551E+02 -0.88898563592E+02  0.95628877987E+02  0.00000000000E+00 0.  1.
         11    1    1    2    0    0  0.70726938330E+01 -0.20927402611E+02  0.21619000769E+02  0.30908904418E+02  0.00000000000E+00 0. -1.
</event>
<event>
 7    1  0.2490079E-009  0.1137198E+03  0.7561462E-02  0.1253832E+00
          1   -1    0    0  501    0  0.00000000000E+00  0.00000000000E+00  0.38406360547E+02  0.38406360547E+02  0.00000000000E+00 0. -1.
         -1   -1    0    0    0  501 -0.00000000000E+00 -0.00000000000E+00 -0.34192147069E+03  0.34192147069E+03  0.00000000000E+00 0.  1.
         25    2    1    2    0    0 -0.10138938941E+02  0.33133599177E+02 -0.18555329314E+03  0.22644677317E+03  0.12508989969E+03 0.  0.
          5    1    3    3  502    0  0.37433145088E+02 -0.31729026697E+02 -0.71373093116E+02  0.86715409860E+02  0.41800000000E+01 0.  1.
         -5    1    3    3    0  502 -0.47572084029E+02  0.64862625873E+02 -0.11418020002E+03  0.13973136331E+03  0.41800000000E+01 0.  1.
        -11    1    1    2    0    0  0.10052922918E+02 -0.65002538993E+02 -0.67888367833E+02  0.94526302274E+02  0.00000000000E+00 0. -1.
         11    1    1    2    0    0  0.86016022638E-01  0.31868939816E+02 -0.50073449172E+02  0.59354755797E+02  0.00000000000E+00 0.  1.
</event>
<event>
 7    1  0.2490079E-009  0.1485380E+03  0.7561462E-02  0.1202281E+00
          3   -1    0    0  501    0  0.00000000000E+00  0.00000000000E+00  0.55882098702E+02  0.55882098702E+02  0.00000000000E+00 0. -1.
         -3   -1    0    0    0  501 -0.00000000000E+00 -0.00000000000E+00 -0.40941001985E+03  0.40941001985E+03  0.00000000000E+00 0.  1.
         25    2    1    2    0    0  0.47849832188E+02 -0.92326903983E+02 -0.22153804981E+03  0.27484945067E+03  0.12509695993E+03 0.  0.
          5    1    3    3  502    0  0.69544932378E+02 -0.20866748875E+01 -0.91054678947E+02  0.11467030474E+03  0.41800000000E+01 0. -1.
         -5    1    3    3    0  502 -0.21695100190E+02 -0.90240229096E+02 -0.13048337086E+03  0.16017914593E+03  0.41800000000E+01 0. -1.
        -11    1    1    2    0    0 -0.44181153731E+02  0.10888599871E+03 -0.12640248512E+03  0.17258540872E+03  0.00000000000E+00 0.  1.
         11    1    1    2    0    0 -0.36686784569E+01 -0.16559094727E+02 -0.55873862244E+01  0.17857259158E+02  0.00000000000E+00 0. -1.
</event>
<event>
 7    1  0.2490079E-009  0.1105545E+03  0.7561462E-02  0.1259546E+00
         -2   -1    0    0    0  501 -0.00000000000E+00  0.00000000000E+00  0.21424440308E+03  0.21424440308E+03  0.00000000000E+00 0.  1.
          2   -1    0    0  501    0  0.00000000000E+00 -0.00000000000E+00 -0.77323567164E+02  0.77323567164E+02  0.00000000000E+00 0. -1.
         25    2    1    2    0    0 -0.21766239807E+02  0.63646309323E+02  0.57877398625E+02  0.15336652649E+03  0.12508747455E+03 0.  0.
          5    1    3    3  502    0  0.10801619795E+02 -0.34025506074E+02  0.16499067265E+01  0.35980614864E+02  0.41800000000E+01 0.  1.
         -5    1    3    3    0  502 -0.32567859601E+02  0.97671815397E+02  0.56227491899E+02  0.11738591162E+03  0.41800000000E+01 0.  1.
        -11    1    1    2    0    0  0.29773041172E+02 -0.15983059431E+02  0.83092615076E+02  0.89701030371E+02  0.00000000000E+00 0.  1.
         11    1    1    2    0    0 -0.80068013650E+01 -0.47663249892E+02 -0.40491777816E+01  0.48500413391E+02  0.00000000000E+00 0. -1.
</event>
<event>
 7    1  0.2490079E-009  0.8554717E+02  0.7561462E-02  0.1314008E+00
         -3   -1    0    0    0  501 -0.00000000000E+00  0.00000000000E+00  0.11009049447E+03  0.11009049447E+03  0.00000000000E+00 0.  1.
          3   -1    0    0  501    0  0.00000000000E+00 -0.00000000000E+00 -0.14294265993E+03  0.14294265993E+03  0.00000000000E+00 0. -1.
         25    2    1    2    0    0 -0.30088014746E+02 -0.30470058983E+02 -0.66474043148E+02  0.14798723090E+03  0.12509080291E+03 0.  0.
          5    1    3    3  502    0  0.22116911132E+02 -0.60427650043E+01  0.28498682138E+02  0.36814671675E+02  0.41800000000E+01 0.  1.
         -5    1    3    3    0  502 -0.52204925878E+02 -0.24427293979E+02 -0.94972725287E+02  0.11117255923E+03  0.41800000000E+01 0.  1.
        -11    1    1    2    0    0 -0.27139783681E+02  0.13483713642E+02  0.33738243903E+02  0.45350275561E+02  0.00000000000E+00 0.  1.
         11    1    1    2    0    0  0.57227798427E+02  0.16986345341E+02 -0.11636620941E+00  0.59695647932E+02  0.00000000000E+00 0. -1.
</event>
<event>
 7    1  0.2490079E-009  0.1078926E+03  0.7561462E-02  0.1264523E+00
         -1   -1    0    0    0  501 -0.00000000000E+00  0.00000000000E+00  0.51012900421E+02  0.51012900421E+02  0.00000000000E+00 0.  1.
          1   -1    0    0  501    0  0.00000000000E+00 -0.00000000000E+00 -0.25726140538E+03  0.25726140538E+03  0.00000000000E+00 0. -1.
         25    2    1    2    0    0  0.12649489519E+02  0.34383484741E+02 -0.10005360247E+03  0.16431798065E+03  0.12508973495E+03 0.  0.
          5    1    3    3  502    0  0.90984520963E+01 -0.47149672922E+02 -0.43618386835E+02  0.65006996218E+02  0.41800000000E+01 0. -1.
         -5    1    3    3    0  502  0.35510374229E+01  0.81533157664E+02 -0.56435215638E+02  0.99310984435E+02  0.41800000000E+01 0. -1.
        -11    1    1    2    0    0  0.24968101738E+02 -0.40674609344E+02 -0.24170102709E+02  0.53497886077E+02  0.00000000000E+00 0.  1.
         11    1    1    2    0    0 -0.37617591257E+02  0.62911246029E+01 -0.82024799779E+02  0.90458439073E+02  0.00000000000E+00 0. -1.
</event>
<event>
 7    1  0.2490079E-009  0.1014303E+03  0.7561462E-02  0.1277317E+00
          1   -1    0    0  501    0  0.00000000000E+00  0.00000000000E+00  0.13289745189E+03  0.13289745189E+03  0.00000000000E+00 0. -1.
         -1   -1    0    0    0  501 -0.00000000000E+00 -0.00000000000E+00 -0.10251441802E+03  0.10251441802E+03  0.00000000000E+00 0.  1.
         25    2    1    2    0    0 -0.27259516193E+01  0.28099800075E+02  0.53022798320E+02  0.13876410381E+03  0.12508808811E+03 0.  0.
          5    1    3    3  502    0 -0.12332644128E+02 -0.48707104289E+02  0.25546203139E+02  0.56520412367E+02  0.41800000000E+01 0.  1.
         -5    1    3    3    0  502  0.96066925091E+01  0.76806904363E+02  0.27476595181E+02  0.82243691440E+02  0.41800000000E+01 0.  1.
        -11    1    1    2    0    0  0.34774405126E+02 -0.24789714099E+02 -0.41304826023E+02  0.59412774971E+02  0.00000000000E+00 0.  1.
         11    1    1    2    0    0 -0.32048453507E+02 -0.33100859758E+01  0.18665061570E+02  0.37234991134E+02  0.00000000000E+00 0. -1.
</event>
<event>
 7    1  0.2490079E-009  0.1027635E+03  0.7561462E-02  0.1274590E+00
         -1   -1    0    0    0  501 -0.00000000000E+00  0.00000000000E+00  0.15292352820E+02  0.15292352820E+02  0.00000000000E+00 0.  1.
          1   -1    0    0  501    0  0.00000000000E+00 -0.00000000000E+00 -0.10188689062E+04  0.10188689062E+04  0.00000000000E+00 0. -1.
         25    2    1    2    0    0  0.16473319223E+02 -0.16370060403E+02 -0.79208536702E+03  0.80223816646E+03  0.12508995944E+03 0.  0.
          5    1    3    3  502    0  0.57579160183E+02 -0.38127641952E+02 -0.62278022053E+03  0.62661132471E+03  0.41800000000E+01 0.  1.
         -5    1    3    3    0  502 -0.41105840960E+02  0.21757581549E+02 -0.16930514649E+03  0.17562684176E+03  0.41800000000E+01 0.  1.
        -11    1    1    2    0    0 -0.15775294244E+02 -0.34937269160E+02 -0.53554931350E+02  0.65860484031E+02  0.00000000000E+00 0.  1.
         11    1    1    2    0    0 -0.69802497936E+00  0.51307329563E+02 -0.15793625504E+03  0.16606260856E+03  0.00000000000E+00 0. -1.
</event>
<event>
 7    1  0.2651521E-009  0.1127820E+03  0.7561462E-02  0.1255503E+00
          2   -1    0    0  501    0  0.00000000000E+00  0.00000000000E+00  0.55923314526E+03  0.55923314526E+03  0.00000000000E+00 0. -1.
         -2   -1    0    0    0  501 -0.00000000000E+00 -0.00000000000E+00 -0.27390900031E+02  0.27390900031E+02  0.00000000000E+00 0.  1.
         25    2    1    2    0    0 -0.63308738471E+01  0.40295591112E+02  0.39920136412E+03  0.42032719337E+03  0.12509758487E+03 0.  0.
          5    1    3    3  502    0 -0.29987209595E+02  0.79428827531E+02  0.23855909435E+03  0.25325103214E+03  0.41800000000E+01 0.  1.
         -5    1    3    3    0  502  0.23656335748E+02 -0.39133236419E+02  0.16064226977E+03  0.16707616123E+03  0.41800000000E+01 0.  1.
        -11    1    1    2    0    0 -0.16297720869E+02  0.22563323319E+02  0.16627011003E+02  0.32421856203E+02  0.00000000000E+00 0.  1.
         11    1    1    2    0    0  0.22628594716E+02 -0.62858914431E+02  0.11601387010E+03  0.13387499571E+03  0.00000000000E+00 0. -1.
</event>
<event>
 7    1  0.2490079E-009  0.1139231E+03  0.7561462E-02  0.1253473E+00
          2   -1    0    0  501    0  0.00000000000E+00  0.00000000000E+00  0.74361269584E+02  0.74361269584E+02  0.00000000000E+00 0. -1.
         -2   -1    0    0    0  501 -0.00000000000E+00 -0.00000000000E+00 -0.22676741102E+03  0.22676741102E+03  0.00000000000E+00 0.  1.
         25    2    1    2    0    0  0.45103480641E+01 -0.59987067010E+02 -0.12578032380E+03  0.18731683734E+03  0.12509243081E+03 0.  0.
          5    1    3    3  502    0 -0.34151851012E+02  0.22358556230E+02 -0.14490324443E+02  0.43516615984E+02  0.41800000000E+01 0. -1.
         -5    1    3    3    0  502  0.38662199076E+02 -0.82345623240E+02 -0.11128999936E+03  0.14380022135E+03  0.41800000000E+01 0. -1.
        -11    1    1    2    0    0  0.34518413073E+02  0.36301985280E+02 -0.42278008974E+02  0.65549866660E+02  0.00000000000E+00 0.  1.
         11    1    1    2    0    0 -0.39028761137E+02  0.23685081730E+02  0.15652191339E+02  0.48261976609E+02  0.00000000000E+00 0. -1.
</event>
<event>
 7    1  0.2490079E-009  0.1056204E+03  0.7561462E-02  0.1268902E+00
          2   -1    0    0  501    0  0.00000000000E+00  0.00000000000E+00  0.96156161282E+03  0.96156161282E+03  0.00000000000E+00 0. -1.
         -2   -1    0    0    0  501 -0.00000000000E+00 -0.00000000000E+00 -0.13092735531E+02  0.13092735531E+02  0.00000000000E+00 0.  1.
         25    2    1    2    0    0  0.27653078120E+01  0.60499608169E+01  0.66653072077E+03  0.67819938837E+03  0.12508780799E+03 0.  0.
          5    1    3    3  502    0 -0.51647766482E+02 -0.25987313123E+02  0.23450017658E+03  0.24155876602E+03  0.41800000000E+01 0. -1.
         -5    1    3    3    0  502  0.54413074295E+02  0.32037273940E+02  0.43203054419E+03  0.43664062236E+03  0.41800000000E+01 0. -1.
        -11    1    1    2    0    0 -0.32218910160E+02  0.29596907576E+02  0.16512570205E+03  0.17082310320E+03  0.00000000000E+00 0.  1.
         11    1    1    2    0    0  0.29453602348E+02 -0.35646868392E+02  0.11681245447E+03  0.12563185677E+03  0.00000000000E+00 0. -1.
</event>
<event>
 7    1  0.2490079E-009  0.1294962E+03  0.7561462E-02  0.1228205E+00
         -2   -1    0    0    0  501 -0.00000000000E+00  0.00000000000E+00  0.24690379799E+03  0.24690379799E+03  0.00000000000E+00 0. -1.
          2   -1    0    0  501    0  0.00000000000E+00 -0.00000000000E+00 -0.90160790529E+02  0.90160790529E+02  0.00000000000E+00 0.  1.
         25    2    1    2    0    0  0.41956914688E+02  0.75515039563E+02  0.13073519424E+03  0.20050560720E+03  0.12509158092E+03 0.  0.
          5    1    3    3  502    0 -0.33396844888E+02  0.41341822895E+02  0.10250765223E+02  0.54286703312E+02  0.41800000000E+01 0.  1.
         -5    1    3    3    0  502  0.75353759575E+02  0.34173216667E+02  0.12048442902E+03  0.14621890389E+03  0.41800000000E+01 0.  1.
        -11    1    1    2    0    0  0.20769906671E+02 -0.51743144869E+02  0.39247890363E+02  0.68184594756E+02  0.00000000000E+00 0. -1.
         11    1    1    2    0    0 -0.62726821359E+02 -0.23771894694E+02 -0.13240077142E+02  0.68374386563E+02  0.00000000000E+00 0.  1.
</event>
<event>
 7    1  0.2490079E-009  0.1160715E+03  0.7561462E-02  0.1249722E+00
          2   -1    0    0  501    0  0.00000000000E+00  0.00000000000E+00  0.13229870148E+03  0.13229870148E+03  0.00000000000E+00 0. -1.
         -2   -1    0    0    0  501 -0.00000000000E+00 -0.00000000000E+00 -0.11010037437E+03  0.11010037437E+03  0.00000000000E+00 0.  1.
         25    2    1    2    0    0 -0.23593250638E+02  0.38087925970E+02  0.40801302017E+02  0.13899775516E+03  0.12509315773E+03 0.  0.
          5    1    3    3  502    0  0.43325622281E+02 -0.13833715638E+02  0.27067019593E+02  0.53090273912E+02  0.41800000000E+01 0. -1.
         -5    1    3    3    0  502 -0.66918872919E+02  0.51921641609E+02  0.13734282424E+02  0.85907481244E+02  0.41800000000E+01 0. -1.
        -11    1    1    2    0    0 -0.70887438907E+01  0.27958413816E+02 -0.66813291828E+01  0.29606812606E+02  0.00000000000E+00 0. -1.
         11    1    1    2    0    0  0.30681994529E+02 -0.66046339787E+02 -0.11921645726E+02  0.73794508090E+02  0.00000000000E+00 0.  1.
</event>
<event>
 7    1  0.2490079E-009  0.6259441E+02  0.7561462E-02  0.1387256E+00
         -1   -1    0    0    0  501 -0.00000000000E+00  0.00000000000E+00  0.15090855583E+02  0.15090855583E+02  0.00000000000E+00 0.  1.
          1   -1    0    0  501    0  0.00000000000E+00 -0.00000000000E+00 -0.10417994143E+04  0.10417994143E+04  0.00000000000E+00 0. -1.
         25    2    1    2    0    0  0.51613294719E+01  0.54591722393E+01 -0.83484404689E+03  0.84419615804E+03  0.12508448644E+03 0.  0.
          5    1    3    3  502    0  0.69409384553E+01  0.22384074607E+02 -0.26344577488E+02  0.35506796331E+02  0.41800000000E+01 0.  1.
         -5    1    3    3    0  502 -0.17796089834E+01 -0.16924902368E+02 -0.80849946940E+03  0.80868936171E+03  0.41800000000E+01 0.  1.
        -11    1    1    2    0    0 -0.43886824686E+02  0.37728093580E+01 -0.56764222269E+02  0.71850291588E+02  0.00000000000E+00 0.  1.
         11    1    1    2    0    0  0.38725495214E+02 -0.92319815973E+01 -0.13510028956E+03  0.14084382025E+03  0.00000000000E+00 0. -1.
</event>
<event>
 7    1  0.2490079E-009  0.8579840E+02  0.7561462E-02  0.1313358E+00
          3   -1    0    0  501    0  0.00000000000E+00  0.00000000000E+00  0.44547042306E+02  0.44547042306E+02  0.00000000000E+00 0. -1.
         -3   -1    0    0    0  501 -0.00000000000E+00 -0.00000000000E+00 -0.27831035875E+03  0.27831035875E+03  0.00000000000E+00 0.  1.
         25    2    1    2    0    0  0.11996143014E+02 -0.28049803149E+02 -0.15568476316E+03  0.20202860686E+03  0.12508842315E+03 0.  0.
          5    1    3    3  502    0 -0.17445239571E+02 -0.70845708438E+02 -0.66893514247E+02  0.99074040173E+02  0.41800000000E+01 0.  1.
         -5    1    3    3    0  502  0.29441382585E+02  0.42795905289E+02 -0.88791248915E+02  0.10295456669E+03  0.41800000000E+01 0.  1.
        -11    1    1    2    0    0  0.11886996195E+02  0.40868781041E+01  0.16291710418E+02  0.20577246646E+02  0.00000000000E+00 0. -1.
         11    1    1    2    0    0 -0.23883139210E+02  0.23962925045E+02 -0.94370263698E+02  0.10025154755E+03  0.00000000000E+00 0.  1.
</event>
<event>
 7    1  0.2490079E-009  0.1286698E+03  0.7561462E-02  0.1229443E+00
          4   -1    0    0  501    0  0.00000000000E+00  0.00000000000E+00  0.72972110600E+02  0.72972110600E+02  0.00000000000E+00 0. -1.
         -4   -1    0    0    0  501 -0.00000000000E+00 -0.00000000000E+00 -0.28307837058E+03  0.28307837058E+03  0.00000000000E+00 0.  1.
         25    2    1    2    0    0 -0.77883677744E+02  0.10135913263E+02 -0.55863462340E+02  0.15791445574E+03  0.12509054685E+03 0.  0.
          5    1    3    3  502    0 -0.54125857826E+02  0.64812761139E+02 -0.15912865550E+02  0.86029031041E+02  0.41800000000E+01 0. -1.
         -5    1    3    3    0  502 -0.23757819918E+02 -0.54676847876E+02 -0.39950596789E+02  0.71885424703E+02  0.41800000000E+01 0. -1.
        -11    1    1    2    0    0  0.84381082636E+02  0.16187656699E+02 -0.14667258363E+03  0.16998545269E+03  0.00000000000E+00 0.  1.
         11    1    1    2    0    0 -0.64974048920E+01 -0.26323569962E+02 -0.75702140069E+01  0.28150572747E+02  0.00000000000E+00 0. -1.
</event>
<event>
 7    1  0.2490079E-009  0.2922767E+03  0.7561462E-02  0.1089166E+00
         -1   -1    0    0    0  501 -0.00000000000E+00  0.00000000000E+00  0.11002711421E+03  0.11002711421E+03  0.00000000000E+00 0.  1.
          1   -1    0    0  501    0  0.00000000000E+00 -0.00000000000E+00 -0.80460759362E+03  0.80460759362E+03  0.00000000000E+00 0. -1.
         25    2    1    2    0    0 -0.19050267475E+03  0.19776530307E+03 -0.30382520653E+03  0.42820573365E+03  0.12509200622E+03 0.  0.
          5    1    3    3  502    0 -0.15565648420E+03  0.21263831402E+03 -0.26850598786E+03  0.37624052357E+03  0.41800000000E+01 0.  1.
         -5    1    3    3    0  502 -0.34846190560E+02 -0.14873010945E+02 -0.35319218664E+02  0.51965210075E+02  0.41800000000E+01 0.  1.
        -11    1    1    2    0    0  0.53987469494E+02 -0.10427249359E+03 -0.21545704556E+03  0.24537550461E+03  0.00000000000E+00 0. -1.
         11    1    1    2    0    0  0.13651520526E+03 -0.93492809476E+02 -0.17529822732E+03  0.24105346957E+03  0.00000000000E+00 0.  1.
</event>
<event>
 7    1  0.2490079E-009  0.1089426E+03  0.7561462E-02  0.1262541E+00
         -3   -1    0    0    0  501 -0.00000000000E+00  0.00000000000E+00  0.10786581938E+03  0.10786581938E+03  0.00000000000E+00 0.  1.
          3   -1    0    0  501    0  0.00000000000E+00 -0.00000000000E+00 -0.14568098820E+03  0.14568098820E+03  0.00000000000E+00 0. -1.
         25    2    1    2    0    0  0.49582024586E+02  0.33014569674E+02  0.21873599183E+01  0.13856730756E+03  0.12509106766E+03 0.  0.
          5    1    3    3  502    0 -0.33081803486E+02  0.27307833080E+02 -0.26718912219E+02  0.50709921510E+02  0.41800000000E+01 0. -1.
         -5    1    3    3    0  502  0.82663828072E+02  0.57067365940E+01  0.28906272138E+02  0.87857386047E+02  0.41800000000E+01 0. -1.
        -11    1    1    2    0    0 -0.66092048318E+02 -0.35660460883E+02 -0.39082884792E+01  0.75200412499E+02  0.00000000000E+00 0.  1.
         11    1    1    2    0    0  0.16510023732E+02  0.26458912092E+01 -0.36094240259E+02  0.39779087518E+02  0.00000000000E+00 0. -1.
</event>
<event>
 7    1  0.2490079E-009  0.1020394E+03  0.7561462E-02  0.1276065E+00
         -2   -1    0    0    0  501 -0.00000000000E+00  0.00000000000E+00  0.14423863449E+03  0.14423863449E+03  0.00000000000E+00 0. -1.
          2   -1    0    0  501    0  0.00000000000E+00 -0.00000000000E+00 -0.16140499256E+03  0.16140499256E+03  0.00000000000E+00 0.  1.
         25    2    1    2    0    0 -0.71998704093E+02 -0.10164421446E+02 -0.86859229826E+02  0.16875637764E+03  0.12508821021E+03 0.  0.
          5    1    3    3  502    0  0.30198011664E+01  0.81649904729E+01 -0.90805382233E+02  0.91317446914E+02  0.41800000000E+01 0. -1.
         -5    1    3    3    0  502 -0.75018505259E+02 -0.18329411919E+02  0.39461524066E+01  0.77438930722E+02  0.41800000000E+01 0. -1.
        -11    1    1    2    0    0  0.92037877073E+02  0.20854729839E+02  0.49852057877E+02  0.10672918180E+03  0.00000000000E+00 0.  1.
         11    1    1    2    0    0 -0.20039172980E+02 -0.10690308393E+02  0.19840813871E+02  0.30158067616E+02  0.00000000000E+00 0. -1.
</event>
<event>
 7    1  0.2490079E-009  0.1086081E+03  0.7561462E-02  0.1263169E+00
         -2   -1    0    0    0  501 -0.00000000000E+00  0.00000000000E+00  0.71116850628E+02  0.71116850628E+02  0.00000000000E+00 0.  1.
          2   -1    0    0  501    0  0.00000000000E+00 -0.00000000000E+00 -0.22208416686E+03  0.22208416686E+03  0.00000000000E+00 0. -1.
         25    2    1    2    0    0 -0.32542868846E+02  0.68691810696E+02 -0.91089375842E+02  0.17240405945E+03  0.12509309395E+03 0.  0.
          5    1    3    3  502    0 -0.54647463564E+02  0.76782389619E+02 -0.10779025117E+03  0.14324137418E+03  0.41800000000E+01 0. -1.
         -5    1    3    3    0  502  0.22104594718E+02 -0.80905789229E+01  0.16700875332E+02  0.29162685264E+02  0.41800000000E+01 0. -1.
        -11    1    1    2    0    0  0.51878605595E+02 -0.48562093688E+02 -0.59815948537E+02  0.92884952286E+02  0.00000000000E+00 0. -1.
         11    1    1    2    0    0 -0.19335736749E+02 -0.20129717008E+02 -0.61991855865E-01  0.27912005758E+02  0.00000000000E+00 0.  1.
</event>
<event>
 7    1  0.2490079E-009  0.3794375E+03  0.7561462E-02  0.1051142E+00
         -2   -1    0    0    0  501 -0.00000000000E+00  0.00000000000E+00  0.15407972457E+03  0.15407972457E+03  0.00000000000E+00 0.  1.
          2   -1    0    0  501    0  0.00000000000E+00 -0.00000000000E+00 -0.11060570304E+04  0.11060570304E+04  0.00000000000E+00 0. -1.
         25    2    1    2    0    0 -0.22956449819E+03  0.29164015993E+03 -0.26150555391E+03  0.47094231029E+03  0.12509061987E+03 0.  0.
          5    1    3    3  502    0 -0.34785896696E+01  0.34092738783E+02  0.74057706149E+01  0.35309110188E+02  0.41800000000E+01 0. -1.
         -5    1    3    3    0  502 -0.22608590852E+03  0.25754742115E+03 -0.26891132453E+03  0.43563320010E+03  0.41800000000E+01 0. -1.
        -11    1    1    2    0    0  0.22368621637E+03 -0.23411698286E+03 -0.56955852333E+03  0.65516654108E+03  0.00000000000E+00 0. -1.
         11    1    1    2    0    0  0.58782818274E+01 -0.57523177074E+02 -0.12091322862E+03  0.13402790363E+03  0.00000000000E+00 0.  1.
</event>
<event>
 7    1  0.2796641E-009  0.1588442E+03  0.7561462E-02  0.1190008E+00
         -1   -1    0    0    0  501 -0.00000000000E+00  0.00000000000E+00  0.17024667556E+03  0.17024667556E+03  0.00000000000E+00 0.  1.
          1   -1    0    0  501    0  0.00000000000E+00 -0.00000000000E+00 -0.16980348155E+03  0.16980348155E+03  0.00000000000E+00 0. -1.
         25    2    1    2    0    0  0.88095628139E+02  0.95609561184E+02  0.14846061424E+02  0.18102441166E+03  0.12508958466E+03 0.  0.
          5    1    3    3  502    0 -0.31185889294E+02  0.19761436256E+02 -0.73539663135E+01  0.37876473892E+02  0.41800000000E+01 0. -1.
         -5    1    3    3    0  502  0.11928151743E+03  0.75848124928E+02  0.22200027738E+02  0.14314793777E+03  0.41800000000E+01 0. -1.
        -11    1    1    2    0    0 -0.52656087293E+02 -0.21323189211E+02  0.31320299802E+02  0.64871435215E+02  0.00000000000E+00 0.  1.
         11    1    1    2    0    0 -0.35439540846E+02 -0.74286371974E+02 -0.45723167209E+02  0.94154310236E+02  0.00000000000E+00 0. -1.
</event>
<event>
 7    1  0.2490079E-009  0.1484539E+03  0.7561462E-02  0.1202386E+00
         -1   -1    0    0    0  501 -0.00000000000E+00  0.00000000000E+00  0.32206102283E+03  0.32206102283E+03  0.00000000000E+00 0.  1.
          1   -1    0    0  501    0  0.00000000000E+00 -0.00000000000E+00 -0.89491626705E+02  0.89491626705E+02  0.00000000000E+00 0. -1.
         25    2    1    2    0    0  0.65724925545E+02 -0.94009871191E+02  0.45077833470E+02  0.17560551143E+03  0.12509061857E+03 0.  0.
          5    1    3    3  502    0  0.49555604775E+02 -0.11826491430E+03  0.84029777727E+01  0.12857072121E+03  0.41800000000E+01 0.  1.
         -5    1    3    3    0  502  0.16169320770E+02  0.24255043106E+02  0.36674855697E+02  0.47034790216E+02  0.41800000000E+01 0.  1.
        -11    1    1    2    0    0  0.37608712440E+01  0.62931722063E+02  0.57599976414E+02  0.85394982740E+02  0.00000000000E+00 0.  1.
         11    1    1    2    0    0 -0.69485796790E+02  0.31078149129E+02  0.12989158624E+03  0.15055215536E+03  0.00000000000E+00 0. -1.
</event>
<event>
 7    1  0.2490079E-009  0.8503097E+02  0.7561462E-02  0.1315352E+00
          2   -1    0    0  501    0  0.00000000000E+00  0.00000000000E+00  0.16829859985E+03  0.16829859985E+03  0.00000000000E+00 0. -1.
         -2   -1    0    0    0  501 -0.00000000000E+00 -0.00000000000E+00 -0.10293497846E+03  0.10293497846E+03  0.00000000000E+00 0.  1.
         25    2    1    2    0    0  0.10805617312E+02  0.41863452796E+02  0.97250796423E+02  0.16424050783E+03  0.12509163426E+03 0.  0.
          5    1    3    3  502    0  0.20333185958E+02 -0.38089696466E+01  0.11289801930E+03  0.11485374118E+03  0.41800000000E+01 0. -1.
         -5    1    3    3    0  502 -0.95275686458E+01  0.45672422442E+02 -0.15647222882E+02  0.49386766648E+02  0.41800000000E+01 0. -1.
        -11    1    1    2    0    0 -0.37706372611E+00  0.29746655397E+02 -0.84206361627E+01  0.30917839474E+02  0.00000000000E+00 0.  1.
         11    1    1    2    0    0 -0.10428553586E+02 -0.71610108193E+02 -0.23466538869E+02  0.76075231000E+02  0.00000000000E+00 0. -1.
</event>
<event>
 7    1  0.2490079E-009  0.1146871E+03  0.7561462E-02  0.1252128E+00
          3   -1    0    0  501    0  0.00000000000E+00  0.00000000000E+00  0.16113205694E+03  0.16113205694E+03  0.00000000000E+00 0. -1.
         -3   -1    0    0    0  501 -0.00000000000E+00 -0.00000000000E+00 -0.84505499756E+02  0.84505499756E+02  0.00000000000E+00 0.  1.
         25    2    1    2    0    0 -0.26638831184E+02  0.29817270154E+02  0.61575674500E+02  0.14504266082E+03  0.12508842010E+03 0.  0.
          5    1    3    3  502    0 -0.11452366131E+02 -0.49073858182E+02  0.18952407198E+02  0.54000614677E+02  0.41800000000E+01 0. -1.
         -5    1    3    3    0  502 -0.15186465053E+02  0.78891128336E+02  0.42623267302E+02  0.91042046146E+02  0.41800000000E+01 0. -1.
        -11    1    1    2    0    0 -0.31658986356E+02 -0.24089585607E+02 -0.12134512895E+01  0.39800402206E+02  0.00000000000E+00 0.  1.
         11    1    1    2    0    0  0.58297817540E+02 -0.57276845473E+01  0.16264333969E+02  0.60794493662E+02  0.00000000000E+00 0. -1.
</event>
<event>
 7    1  0.2490079E-009  0.1030089E+03  0.7561462E-02  0.1274093E+00
         -4   -1    0    0    0  501 -0.00000000000E+00  0.00000000000E+00  0.12502750914E+03  0.12502750914E+03  0.00000000000E+00 0.  1.
          4   -1    0    0  501    0  0.00000000000E+00 -0.00000000000E+00 -0.10865482797E+03  0.10865482797E+03  0.00000000000E+00 0. -1.
         25    2    1    2    0    0  0.31038058062E+01 -0.37808904075E+02  0.26235881788E+02  0.13332656108E+03  0.12509397890E+03 0.  0.
          5    1    3    3  502    0  0.29751603797E+02 -0.77060593099E+02  0.11714658359E+02  0.83535612512E+02  0.41800000000E+01 0. -1.
         -5    1    3    3    0  502 -0.26647797991E+02  0.39251689024E+02  0.14521223428E+02  0.49790948564E+02  0.41800000000E+01 0. -1.
        -11    1    1    2    0    0 -0.34238562396E+02  0.22649889010E+02  0.27500683541E+02  0.49412389361E+02  0.00000000000E+00 0.  1.
         11    1    1    2    0    0  0.31134756590E+02  0.15159015065E+02 -0.37363884162E+02  0.50943386669E+02  0.00000000000E+00 0. -1.
</event>
<event>
 7    1  0.2490079E-009  0.8264139E+02  0.7561462E-02  0.1321718E+00
         -1   -1    0    0    0  501 -0.00000000000E+00  0.00000000000E+00  0.22642600058E+03  0.22642600058E+03  0.00000000000E+00 0.  1.
          1   -1    0    0  501    0  0.00000000000E+00 -0.00000000000E+00 -0.84114008981E+02  0.84114008981E+02  0.00000000000E+00 0. -1.
         25    2    1    2    0    0 -0.21316040981E+00  0.27155423548E+02  0.16971607180E+03  0.21257514524E+03  0.12508870805E+03 0.  0.
          5    1    3    3  502    0  0.51462741782E+02  0.56597388682E+01  0.13945180363E+03  0.14881103578E+03  0.41800000000E+01 0. -1.
         -5    1    3    3    0  502 -0.51675902192E+02  0.21495684680E+02  0.30264268170E+02  0.63764109459E+02  0.41800000000E+01 0. -1.
        -11    1    1    2    0    0  0.10093797390E+02 -0.39862449122E+02  0.21555051462E+02  0.46427576280E+02  0.00000000000E+00 0.  1.
         11    1    1    2    0    0 -0.98806369806E+01  0.12707025573E+02 -0.48959131658E+02  0.51537288042E+02  0.00000000000E+00 0. -1.
</event>
<event>
 7    1  0.2490079E-009  0.9572631E+02  0.7561462E-02  0.1289549E+00
          2   -1    0    0  501    0  0.00000000000E+00  0.00000000000E+00  0.65170917537E+03  0.65170917537E+03  0.00000000000E+00 0. -1.
         -2   -1    0    0    0  501 -0.00000000000E+00 -0.00000000000E+00 -0.23527172508E+02  0.23527172508E+02  0.00000000000E+00 0.  1.
         25    2    1    2    0    0  0.59604571843E+02 -0.83983947361E+01  0.39428935098E+03  0.41801264600E+03  0.12508893597E+03 0.  0.
          5    1    3    3  502    0 -0.66455743603E+01 -0.45311049578E+02  0.62232650561E+02  0.77379778161E+02  0.41800000000E+01 0. -1.
         -5    1    3    3    0  502  0.66250146204E+02  0.36912654842E+02  0.33205670042E+03  0.34063286784E+03  0.41800000000E+01 0. -1.
        -11    1    1    2    0    0 -0.64974909768E+01  0.14661521650E+02 -0.12421694445E+01  0.16084793782E+02  0.00000000000E+00 0.  1.
         11    1    1    2    0    0 -0.53107080867E+02 -0.62631269139E+01  0.23513482133E+03  0.24113890809E+03  0.00000000000E+00 0. -1.
</event>
<event>
 7    1  0.2490079E-009  0.7399379E+02  0.7561462E-02  0.1347016E+00
          1   -1    0    0  501    0  0.00000000000E+00  0.00000000000E+00  0.32650043753E+03  0.32650043753E+03  0.00000000000E+00 0. -1.
         -1   -1    0    0    0  501 -0.00000000000E+00 -0.00000000000E+00 -0.55558941286E+02  0.55558941286E+02  0.00000000000E+00 0.  1.
         25    2    1    2    0    0 -0.53094126787E+02  0.11996433312E+02  0.23621080917E+03  0.27277524681E+03  0.12509151927E+03 0.  0.
          5    1    3    3  502    0 -0.21784265620E+02  0.15565045581E+02 -0.66018865572E+01  0.27890539232E+02  0.41800000000E+01 0.  1.
         -5    1    3    3    0  502 -0.31309861166E+02 -0.35686122690E+01  0.24281269573E+03  0.24488470758E+03  0.41800000000E+01 0.  1.
        -11    1    1    2    0    0 -0.48795058579E+01 -0.28428051186E+02  0.39418851115E+02  0.48844748897E+02  0.00000000000E+00 0. -1.
         11    1    1    2    0    0  0.57973632645E+02  0.16431617874E+02 -0.46881640431E+01  0.60439383105E+02  0.00000000000E+00 0.  1.
</event>
<event>
 7    1  0.2490079E-009  0.1020835E+03  0.7561462E-02  0.1275975E+00
         -1   -1    0    0    0  501 -0.00000000000E+00  0.00000000000E+00  0.18298478351E+03  0.18298478351E+03  0.00000000000E+00 0.  1.
          1   -1    0    0  501    0  0.00000000000E+00 -0.00000000000E+00 -0.80335907861E+02  0.80335907861E+02  0.00000000000E+00 0. -1.
         25    2    1    2    0    0  0.30982808631E+02 -0.15671310422E+02  0.15216893019E+02  0.13071246119E+03  0.12509464128E+03 0.  0.
          5    1    3    3  502    0  0.49023432377E+02 -0.47077449882E+02 -0.28472359570E+02  0.73808745206E+02  0.41800000000E+01 0. -1.
         -5    1    3    3    0  502 -0.18040623746E+02  0.31406139460E+02  0.43689252588E+02  0.56903715983E+02  0.41800000000E+01 0. -1.
        -11    1    1    2    0    0 -0.27274875008E+02 -0.37467508676E+02  0.43505602400E+02  0.63564695022E+02  0.00000000000E+00 0. -1.
         11    1    1    2    0    0 -0.37079336233E+01  0.53138819098E+02  0.43926380226E+02  0.69043535155E+02  0.00000000000E+00 0.  1.
</event>
<event>
 7    1  0.2490079E-009  0.1272068E+03  0.7561462E-02  0.1231660E+00
         -2   -1    0    0    0  501 -0.00000000000E+00  0.00000000000E+00  0.44787181417E+02  0.44787181417E+02  0.00000000000E+00 0. -1.
          2   -1    0    0  501    0  0.00000000000E+00 -0.00000000000E+00 -0.91823375352E+03  0.91823375352E+03  0.00000000000E+00 0.  1.
         25    2    1    2    0    0 -0.10858340599E+03  0.21128400825E+02 -0.74990421274E+03  0.76827121466E+03  0.12509022992E+03 0.  0.
          5    1    3    3  502    0 -0.71682507786E+02  0.41074944771E+01 -0.70042085675E+03  0.70410375826E+03  0.41800000000E+01 0.  1.
         -5    1    3    3    0  502 -0.36900898200E+02  0.17020906348E+02 -0.49483355992E+02  0.64167456402E+02  0.41800000000E+01 0.  1.
        -11    1    1    2    0    0  0.50468214969E+02  0.34546785651E+02 -0.21587485895E+02  0.64857849704E+02  0.00000000000E+00 0. -1.
         11    1    1    2    0    0  0.58115191017E+02 -0.55675186475E+02 -0.10195487347E+03  0.12989187057E+03  0.00000000000E+00 0.  1.
</event>
<event>
 7    1  0.2490079E-009  0.7556721E+02  0.7561462E-02  0.1342124E+00
         -1   -1    0    0    0  501 -0.00000000000E+00  0.00000000000E+00  0.14192077903E+02  0.14192077903E+02  0.00000000000E+00 0.  1.
          1   -1    0    0  501    0  0.00000000000E+00 -0.00000000000E+00 -0.11632839959E+04  0.11632839959E+04  0.00000000000E+00 0. -1.
         25    2    1    2    0    0 -0.15207648443E+02 -0.33780143482E+02 -0.89720463937E+03  0.90663994973E+03  0.12508981920E+03 0.  0.
          5    1    3    3  502    0  0.13522241992E+02 -0.11349046564E+02 -0.82896066602E+03  0.82915915848E+03  0.41800000000E+01 0. -1.
         -5    1    3    3    0  502 -0.28729890435E+02 -0.22431096918E+02 -0.68243973356E+02  0.77480791250E+02  0.41800000000E+01 0. -1.
        -11    1    1    2    0    0  0.34732704051E+02  0.56515722971E+02 -0.13867249056E+03  0.15372198057E+03  0.00000000000E+00 0.  1.
         11    1    1    2    0    0 -0.19525055608E+02 -0.22735579489E+02 -0.11321478810E+03  0.11711414353E+03  0.00000000000E+00 0. -1.
</event>
<event>
 7    1  0.2490079E-009  0.9992149E+02  0.7561462E-02  0.1280461E+00
          3   -1    0    0  501    0  0.00000000000E+00  0.00000000000E+00  0.54952968594E+03  0.54952968594E+03  0.00000000000E+00 0. -1.
         -3   -1    0    0    0  501 -0.00000000000E+00 -0.00000000000E+00 -0.33186083122E+02  0.33186083122E+02  0.00000000000E+00 0.  1.
         25    2    1    2    0    0  0.53207610388E+02 -0.40697869485E+02  0.19558842889E+03  0.24162920173E+03  0.12506986540E+03 0.  0.
          5    1    3    3  502    0 -0.11848890986E+02 -0.15026142391E+02 -0.11703314790E+02  0.22817124048E+02  0.41800000000E+01 0.  1.
         -5    1    3    3    0  502  0.65056501373E+02 -0.25671727095E+02  0.20729174368E+03  0.21881207768E+03  0.41800000000E+01 0.  1.
        -11    1    1    2    0    0 -0.52543257729E+02 -0.14880953435E+02  0.21238591917E+03  0.21929435781E+03  0.00000000000E+00 0.  1.
         11    1    1    2    0    0 -0.66435265901E+00  0.55578822920E+02  0.10836925477E+03  0.12179220952E+03  0.00000000000E+00 0. -1.
</event>
<event>
 7    1  0.2490079E-009  0.1276375E+03  0.7561462E-02  0.1231004E+00
         -2   -1    0    0    0  501 -0.00000000000E+00  0.00000000000E+00  0.39492693291E+02  0.39492693291E+02  0.00000000000E+00 0.  1.
          2   -1    0    0  501    0  0.00000000000E+00 -0.00000000000E+00 -0.64301040081E+03  0.64301040081E+03  0.00000000000E+00 0. -1.
         25    2    1    2    0    0 -0.34088476549E+02  0.97351735079E+02 -0.44129198035E+03  0.47013357259E+03  0.12509028579E+03 0.  0.
          5    1    3    3  502    0  0.40557705492E+02  0.37069199189E+02 -0.25102484841E+03  0.25700194536E+03  0.41800000000E+01 0.  1.
         -5    1    3    3    0  502 -0.74646182041E+02  0.60282535890E+02 -0.19026713194E+03  0.21313162723E+03  0.41800000000E+01 0.  1.
        -11    1    1    2    0    0  0.21647953553E+02 -0.40378519248E+02 -0.67411239851E+01  0.46308762263E+02  0.00000000000E+00 0.  1.
         11    1    1    2    0    0  0.12440522995E+02 -0.56973215831E+02 -0.15548460319E+03  0.16606075925E+03  0.00000000000E+00 0. -1.
</event>
<event>
 7    1  0.2490079E-009  0.1261695E+03  0.7561462E-02  0.1233253E+00
          1   -1    0    0  501    0  0.00000000000E+00  0.00000000000E+00  0.85440768274E+03  0.85440768274E+03  0.00000000000E+00 0. -1.
         -1   -1    0    0    0  501 -0.00000000000E+00 -0.00000000000E+00 -0.19786233610E+02  0.19786233610E+02  0.00000000000E+00 0.  1.
         25    2    1    2    0    0 -0.54062620308E+02  0.44270236183E+02  0.41081757195E+03  0.43508880866E+03  0.12509425756E+03 0.  0.
          5    1    3    3  502    0  0.29375592763E+02 -0.17712228556E+02  0.15745377018E+03  0.16120114960E+03  0.41800000000E+01 0.  1.
         -5    1    3    3    0  502 -0.83438213071E+02  0.61982464739E+02  0.25336380177E+03  0.27388765905E+03  0.41800000000E+01 0.  1.
        -11    1    1    2    0    0  0.39792485804E+02  0.22340974596E+02  0.14047386382E+03  0.14770060084E+03  0.00000000000E+00 0.  1.
         11    1    1    2    0    0  0.14270134504E+02 -0.66611210779E+02  0.28333001336E+03  0.29140450685E+03  0.00000000000E+00 0. -1.
</event>
<event>
 7    1  0.2490079E-009  0.1433159E+03  0.7561462E-02  0.1208936E+00
         -2   -1    0    0    0  501 -0.00000000000E+00  0.00000000000E+00  0.52185645750E+02  0.52185645750E+02  0.00000000000E+00 0.  1.
          2   -1    0    0  501    0  0.00000000000E+00 -0.00000000000E+00 -0.55287229439E+03  0.55287229439E+03  0.00000000000E+00 0. -1.
         25    2    1    2    0    0 -0.83819510090E+02  0.64817467655E+02 -0.39839812269E+03  0.43080675757E+03  0.12508550604E+03 0.  0.
          5    1    3    3  502    0 -0.10411060725E+03  0.32333552236E+02 -0.19188286631E+03  0.22072830341E+03  0.41800000000E+01 0.  1.
         -5    1    3    3    0  502  0.20291097163E+02  0.32483915419E+02 -0.20651525637E+03  0.21007845415E+03  0.41800000000E+01 0.  1.
        -11    1    1    2    0    0  0.20632818386E+02 -0.72478724094E+02 -0.70116233185E+02  0.10293281691E+03  0.00000000000E+00 0. -1.
         11    1    1    2    0    0  0.63186691704E+02  0.76612564390E+01 -0.32172292763E+02  0.71318365659E+02  0.00000000000E+00 0.  1.
</event>
<event>
 7    1  0.2490079E-009  0.1087062E+03  0.7561462E-02  0.1262985E+00
         -1   -1    0    0    0  501 -0.00000000000E+00  0.00000000000E+00  0.30130209372E+03  0.30130209372E+03  0.00000000000E+00 0.  1.
          1   -1    0    0  501    0  0.00000000000E+00 -0.00000000000E+00 -0.82297517892E+02  0.82297517892E+02  0.00000000000E+00 0. -1.
         25    2    1    2    0    0  0.76795434659E+02  0.26517588479E+02  0.22394461310E+02  0.15083122282E+03  0.12509126506E+03 0.  0.
          5    1    3    3  502    0 -0.92977239293E+01  0.20609952842E+02 -0.38700212968E+02  0.45015516327E+02  0.41800000000E+01 0. -1.
         -5    1    3    3    0  502  0.86093158589E+02  0.59076356375E+01  0.61094674278E+02  0.10581570649E+03  0.41800000000E+01 0. -1.
        -11    1    1    2    0    0 -0.61434987988E+02 -0.50510661497E+02  0.18613473364E+03  0.20241473203E+03  0.00000000000E+00 0.  1.
         11    1    1    2    0    0 -0.15360446672E+02  0.23993073018E+02  0.10475380879E+02  0.30353656771E+02  0.00000000000E+00 0. -1.
</event>
<event>
 7    1  0.2490079E-009  0.1142694E+03  0.7561462E-02  0.1252862E+00
         -2   -1    0    0    0  501 -0.00000000000E+00  0.00000000000E+00  0.12980688923E+03  0.12980688923E+03  0.00000000000E+00 0.  1.
          2   -1    0    0  501    0  0.00000000000E+00 -0.00000000000E+00 -0.12095733279E+03  0.12095733279E+03  0.00000000000E+00 0. -1.
         25    2    1    2    0    0  0.42112547470E+02  0.47054078671E+02  0.37277490247E+02  0.14499843895E+03  0.12508950014E+03 0.  0.
          5    1    3    3  502    0 -0.28646981718E+02  0.61326671338E+02  0.18486924775E+02  0.70291172750E+02  0.41800000000E+01 0. -1.
         -5    1    3    3    0  502  0.70759529189E+02 -0.14272592668E+02  0.18790565473E+02  0.74707266201E+02  0.41800000000E+01 0. -1.
        -11    1    1    2    0    0 -0.44443869620E+02 -0.32628048712E+01  0.11967872288E+02  0.46142533627E+02  0.00000000000E+00 0.  1.
         11    1    1    2    0    0  0.23313221493E+01 -0.43791273799E+02 -0.40395806094E+02  0.59623249441E+02  0.00000000000E+00 0. -1.
</event>
<event>
 7    1  0.2490079E-009  0.8974672E+02  0.7561462E-02  0.1303466E+00
         -1   -1    0    0    0  501 -0.00000000000E+00  0.00000000000E+00  0.36836813992E+02  0.36836813992E+02  0.00000000000E+00 0.  1.
          1   -1    0    0  501    0  0.00000000000E+00 -0.00000000000E+00 -0.66307194772E+03  0.66307194772E+03  0.00000000000E+00 0. -1.
         25    2    1    2    0    0  0.29710771594E+02 -0.95530559376E+01 -0.57856499337E+03  0.59275541649E+03  0.12509013309E+03 0.  0.
          5    1    3    3  502    0  0.21026194268E+02  0.37641908500E+02 -0.49023417819E+03  0.49214432434E+03  0.41800000000E+01 0.  1.
         -5    1    3    3    0  502  0.86845773265E+01 -0.47194964438E+02 -0.88330815186E+02  0.10061109215E+03  0.41800000000E+01 0.  1.
        -11    1    1    2    0    0  0.21616145569E+02 -0.19426700213E+02  0.32727468360E+01  0.29246628904E+02  0.00000000000E+00 0.  1.
         11    1    1    2    0    0 -0.51326917163E+02  0.28979756150E+02 -0.50942887194E+02  0.77906716319E+02  0.00000000000E+00 0. -1.
</event>
<event>
 7    1  0.2490079E-009  0.1214486E+03  0.7561462E-02  0.1240726E+00
         -1   -1    0    0    0  501 -0.00000000000E+00  0.00000000000E+00  0.73561345064E+02  0.73561345064E+02  0.00000000000E+00 0.  1.
          1   -1    0    0  501    0  0.00000000000E+00 -0.00000000000E+00 -0.28379475840E+03  0.28379475840E+03  0.00000000000E+00 0. -1.
         25    2    1    2    0    0 -0.82694266468E+02 -0.39063417110E+02 -0.14931591386E+03  0.21519234506E+03  0.12509280945E+03 0.  0.
          5    1    3    3  502    0 -0.54335874942E+01  0.21721626320E+02  0.12370416526E+02  0.25920118211E+02  0.41800000000E+01 0.  1.
         -5    1    3    3    0  502 -0.77260678974E+02 -0.60785043430E+02 -0.16168633039E+03  0.18927222685E+03  0.41800000000E+01 0.  1.
        -11    1    1    2    0    0  0.39741654847E+02  0.61532282766E+02 -0.58299433519E+02  0.93618614074E+02  0.00000000000E+00 0.  1.
         11    1    1    2    0    0  0.42952611621E+02 -0.22468865656E+02 -0.26180659513E+01  0.48545144333E+02  0.00000000000E+00 0. -1.
</event>
<event>
 7    1  0.2490079E-009  0.1404232E+03  0.7561462E-02  0.1212761E+00
         -1   -1    0    0    0  501 -0.00000000000E+00  0.00000000000E+00  0.44861492382E+02  0.44861492382E+02  0.00000000000E+00 0.  1.
          1   -1    0    0  501    0  0.00000000000E+00 -0.00000000000E+00 -0.72466678771E+03  0.72466678771E+03  0.00000000000E+00 0. -1.
         25    2    1    2    0    0 -0.12496757619E+03 -0.33458558904E+02 -0.49424996793E+03  0.52599067067E+03  0.12508710792E+03 0.  0.
          5    1    3    3  502    0  0.18184441864E+01 -0.21095544151E+02 -0.24589007161E+03  0.24683542785E+03  0.41800000000E+01 0. -1.
         -5    1    3    3    0  502 -0.12678602037E+03 -0.12363014752E+02 -0.24835989632E+03  0.27915524282E+03  0.41800000000E+01 0. -1.
        -11    1    1    2    0    0  0.29810960148E+02  0.19526795720E+02 -0.12605634999E+01  0.35659193995E+02  0.00000000000E+00 0.  1.
         11    1    1    2    0    0  0.95156616038E+02  0.13931763184E+02 -0.18429476389E+03  0.20787841543E+03  0.00000000000E+00 0. -1.
</event>
<event>
 7    1  0.2490079E-009  0.1125903E+03  0.7561462E-02  0.1255847E+00
         -2   -1    0    0    0  501 -0.00000000000E+00  0.00000000000E+00  0.26814374064E+03  0.26814374064E+03  0.00000000000E+00 0.  1.
          2   -1    0    0  501    0  0.00000000000E+00 -0.00000000000E+00 -0.78775271453E+02  0.78775271453E+02  0.00000000000E+00 0. -1.
         25    2    1    2    0    0  0.46765446745E+02 -0.83729912908E+02  0.96257445382E+02  0.18468670070E+03  0.12508387705E+03 0.  0.
          5    1    3    3  502    0  0.10389126521E+02 -0.50883105970E+02 -0.22039315770E+02  0.56570560035E+02  0.41800000000E+01 0. -1.
         -5    1    3    3    0  502  0.36376320224E+02 -0.32846806937E+02  0.11829676115E+03  0.12811614066E+03  0.41800000000E+01 0. -1.
        -11    1    1    2    0    0  0.94897428106E+01  0.63350576139E+02  0.18663139606E+02  0.66720787583E+02  0.00000000000E+00 0. -1.
         11    1    1    2    0    0 -0.56255189555E+02  0.20379336768E+02  0.74447884198E+02  0.95511523810E+02  0.00000000000E+00 0.  1.
</event>
<event>
 7    1  0.2490079E-009  0.9687068E+02  0.7561462E-02  0.1287018E+00
          1   -1    0    0  501    0  0.00000000000E+00  0.00000000000E+00  0.67366884740E+03  0.67366884740E+03  0.00000000000E+00 0. -1.
         -1   -1    0    0    0  501 -0.00000000000E+00 -0.00000000000E+00 -0.35317302798E+02  0.35317302798E+02  0.00000000000E+00 0.  1.
         25    2    1    2    0    0  0.74501123701E+02 -0.23296809537E+02  0.16793794363E+03  0.22348074581E+03  0.12508929639E+03 0.  0.
          5    1    3    3  502    0  0.65612552961E+02 -0.16070363026E+02  0.14067225660E+02  0.69127584303E+02  0.41800000000E+01 0. -1.
         -5    1    3    3    0  502  0.88885707401E+01 -0.72264465112E+01  0.15387071797E+03  0.15435316151E+03  0.41800000000E+01 0. -1.
        -11    1    1    2    0    0 -0.14302370515E+02  0.47030788540E+02  0.28294090984E+03  0.28717940618E+03  0.00000000000E+00 0. -1.
         11    1    1    2    0    0 -0.60198753186E+02 -0.23733979003E+02  0.18747269114E+03  0.19832599821E+03  0.00000000000E+00 0.  1.
</event>
<event>
 7    1  0.2490079E-009  0.9124474E+02  0.7561462E-02  0.1299865E+00
          2   -1    0    0  501    0  0.00000000000E+00  0.00000000000E+00  0.98697877739E+03  0.98697877739E+03  0.00000000000E+00 0. -1.
         -2   -1    0    0    0  501 -0.00000000000E+00 -0.00000000000E+00 -0.17822532483E+02  0.17822532483E+02  0.00000000000E+00 0.  1.
         25    2    1    2    0    0 -0.74180354479E+02  0.42514552069E+01  0.49285374177E+03  0.51387951261E+03  0.12508614168E+03 0.  0.
          5    1    3    3  502    0 -0.63705271062E+02 -0.45980826634E+00  0.87365510932E+02  0.10820710644E+03  0.41800000000E+01 0. -1.
         -5    1    3    3    0  502 -0.10475083417E+02  0.47112634732E+01  0.40548823083E+03  0.40567240616E+03  0.41800000000E+01 0. -1.
        -11    1    1    2    0    0  0.27102313830E+01  0.27916021436E+02  0.48727607520E+02  0.56223032127E+02  0.00000000000E+00 0.  1.
         11    1    1    2    0    0  0.71470123096E+02 -0.32167476643E+02  0.42757489562E+03  0.43469876514E+03  0.00000000000E+00 0. -1.
</event>
<event>
 7    1  0.2490079E-009  0.1344922E+03  0.7561462E-02  0.1220938E+00
          3   -1    0    0  501    0  0.00000000000E+00  0.00000000000E+00  0.79276706647E+02  0.79276706647E+02  0.00000000000E+00 0. -1.
         -3   -1    0    0    0  501 -0.00000000000E+00 -0.00000000000E+00 -0.30798414949E+03  0.30798414949E+03  0.00000000000E+00 0.  1.
         25    2    1    2    0    0 -0.42069568128E+02 -0.71313916701E+02 -0.27227884670E+02  0.15245746630E+03  0.12508556291E+03 0.  0.
          5    1    3    3  502    0  0.44472760463E+02 -0.31265819821E+02 -0.11404002645E+02  0.55703694569E+02  0.41800000000E+01 0.  1.
         -5    1    3    3    0  502 -0.86542328591E+02 -0.40048096880E+02 -0.15823882025E+02  0.96753771730E+02  0.41800000000E+01 0.  1.
        -11    1    1    2    0    0 -0.44839324769E+01 -0.17860477985E+02 -0.19167493457E+02  0.26579976105E+02  0.00000000000E+00 0. -1.
         11    1    1    2    0    0  0.46553500605E+02  0.89174394686E+02 -0.18231206472E+03  0.20822341374E+03  0.00000000000E+00 0.  1.
</event>
<event>
 7    1  0.2490079E-009  0.1071603E+03  0.7561462E-02  0.1265921E+00
          2   -1    0    0  501    0  0.00000000000E+00  0.00000000000E+00  0.69104340472E+02  0.69104340472E+02  0.00000000000E+00 0.  1.
         -2   -1    0    0    0  501 -0.00000000000E+00 -0.00000000000E+00 -0.24768491122E+03  0.24768491122E+03  0.00000000000E+00 0. -1.
         25    2    1    2    0    0  0.68191690737E+02 -0.13375229067E+02 -0.12203944128E+03  0.18807227909E+03  0.12509417851E+03 0.  0.
          5    1    3    3  502    0  0.68408082374E+02 -0.62613711051E+02 -0.69655265825E+02  0.11605805014E+03  0.41800000000E+01 0. -1.
         -5    1    3    3    0  502 -0.21639163641E+00  0.49238481984E+02 -0.52384175456E+02  0.72014228953E+02  0.41800000000E+01 0. -1.
        -11    1    1    2    0    0 -0.96443821151E+01 -0.47958838937E+01  0.24697611347E+02  0.26944138786E+02  0.00000000000E+00 0.  1.
         11    1    1    2    0    0 -0.58547308622E+02  0.18171112960E+02 -0.81238740818E+02  0.10177283382E+03  0.00000000000E+00 0. -1.
</event>
<event>
 7    1  0.2490079E-009  0.1730307E+03  0.7561462E-02  0.1174724E+00
          1   -1    0    0  501    0  0.00000000000E+00  0.00000000000E+00  0.25830520911E+03  0.25830520911E+03  0.00000000000E+00 0. -1.
         -1   -1    0    0    0  501 -0.00000000000E+00 -0.00000000000E+00 -0.16341271955E+03  0.16341271955E+03  0.00000000000E+00 0.  1.
         25    2    1    2    0    0  0.11226448976E+03  0.99574823750E+02 -0.50742789733E+01  0.19542658960E+03  0.12508933779E+03 0.  0.
          5    1    3    3  502    0  0.11726917283E+03  0.12357645893E+03 -0.26105288496E+01  0.17043323431E+03  0.41800000000E+01 0. -1.
         -5    1    3    3    0  502 -0.50046830725E+01 -0.24001635177E+02 -0.24637501237E+01  0.24993355287E+02  0.41800000000E+01 0. -1.
        -11    1    1    2    0    0 -0.94908935194E+02 -0.76489222277E+02 -0.35471199260E+00  0.12189517187E+03  0.00000000000E+00 0.  1.
         11    1    1    2    0    0 -0.17355554566E+02 -0.23085601473E+02  0.10032148052E+03  0.10439616719E+03  0.00000000000E+00 0. -1.
</event>
<event>
 7    1  0.2490079E-009  0.1628880E+03  0.7561462E-02  0.1185474E+00
         -1   -1    0    0    0  501 -0.00000000000E+00  0.00000000000E+00  0.81379608732E+02  0.81379608732E+02  0.00000000000E+00 0.  1.
          1   -1    0    0  501    0  0.00000000000E+00 -0.00000000000E+00 -0.49493052642E+03  0.49493052642E+03  0.00000000000E+00 0. -1.
         25    2    1    2    0    0  0.12785215444E+03  0.92537615697E+02 -0.33600889104E+03  0.39173827746E+03  0.12509004539E+03 0.  0.
          5    1    3    3  502    0  0.34917262962E+02  0.39909035882E+02 -0.24695006555E+03  0.25261384300E+03  0.41800000000E+01 0. -1.
         -5    1    3    3    0  502  0.92934891475E+02  0.52628579815E+02 -0.89058825486E+02  0.13912443446E+03  0.41800000000E+01 0. -1.
        -11    1    1    2    0    0 -0.10165000438E+03 -0.44464127065E+02 -0.38952742572E+02  0.11758868203E+03  0.00000000000E+00 0.  1.
         11    1    1    2    0    0 -0.26202150053E+02 -0.48073488633E+02 -0.38589284074E+02  0.66983175664E+02  0.00000000000E+00 0. -1.
</event>
<event>
 7    1  0.4508495E-009  0.1461953E+03  0.7561462E-02  0.1205228E+00
         -2   -1    0    0    0  501 -0.00000000000E+00  0.00000000000E+00  0.32258859615E+02  0.32258859615E+02  0.00000000000E+00 0.  1.
          2   -1    0    0  501    0  0.00000000000E+00 -0.00000000000E+00 -0.82371028382E+03  0.82371028382E+03  0.00000000000E+00 0. -1.
         25    2    1    2    0    0  0.19722842980E+02 -0.11359705328E+03 -0.52072322664E+03  0.54780764010E+03  0.12508897133E+03 0.  0.
          5    1    3    3  502    0 -0.42299921647E+02 -0.98560793010E+01 -0.84114750455E+02  0.94758584385E+02  0.41800000000E+01 0.  1.
         -5    1    3    3    0  502  0.62022764627E+02 -0.10374097398E+03 -0.43660847618E+03  0.45304905572E+03  0.41800000000E+01 0.  1.
        -11    1    1    2    0    0  0.16446153671E+02  0.66105893753E+02 -0.65781476131E+02  0.94697770625E+02  0.00000000000E+00 0.  1.
         11    1    1    2    0    0 -0.36168996652E+02  0.47491159531E+02 -0.20494672144E+03  0.21346373270E+03  0.00000000000E+00 0. -1.
</event>
<event>
 7    1  0.2490079E-009  0.2231833E+03  0.7561462E-02  0.1131532E+00
         -1   -1    0    0    0  501 -0.00000000000E+00  0.00000000000E+00  0.96274857231E+02  0.96274857231E+02  0.00000000000E+00 0.  1.
          1   -1    0    0  501    0  0.00000000000E+00 -0.00000000000E+00 -0.67163209484E+03  0.67163209484E+03  0.00000000000E+00 0. -1.
         25    2    1    2    0    0 -0.76895969366E+02 -0.19063575419E+03 -0.45570650169E+03  0.51533596585E+03  0.12509101138E+03 0.  0.
          5    1    3    3  502    0  0.21462720569E+02 -0.69884610875E+02 -0.22769817854E+03  0.23918285917E+03  0.41800000000E+01 0. -1.
         -5    1    3    3    0  502 -0.98358689935E+02 -0.12075114332E+03 -0.22800832315E+03  0.27615310667E+03  0.41800000000E+01 0. -1.
        -11    1    1    2    0    0 -0.13680846742E+02  0.21547289649E+02 -0.33956045324E+02  0.42478986250E+02  0.00000000000E+00 0.  1.
         11    1    1    2    0    0  0.90576816108E+02  0.16908846455E+03 -0.85694690597E+02  0.21009199998E+03  0.00000000000E+00 0. -1.
</event>
<event>
 7    1  0.2490079E-009  0.3123842E+03  0.7561462E-02  0.1079209E+00
         -1   -1    0    0    0  501 -0.00000000000E+00  0.00000000000E+00  0.14537829656E+04  0.14537829656E+04  0.00000000000E+00 0.  1.
          1   -1    0    0  501    0  0.00000000000E+00 -0.00000000000E+00 -0.85141572060E+02  0.85141572060E+02  0.00000000000E+00 0. -1.
         25    2    1    2    0    0  0.27960114603E+03 -0.95227265456E+02  0.10374234832E+04  0.10858823759E+04  0.12509203709E+03 0.  0.
          5    1    3    3  502    0 -0.29039746375E+01 -0.28901837185E+02  0.12582256876E+03  0.12919961482E+03  0.41800000000E+01 0. -1.
         -5    1    3    3    0  502  0.28250512067E+03 -0.66325428271E+02  0.91160091446E+03  0.95668276105E+03  0.41800000000E+01 0. -1.
        -11    1    1    2    0    0 -0.20335093169E+03  0.10408706821E+03  0.21462382682E+03  0.31344713466E+03  0.00000000000E+00 0. -1.
         11    1    1    2    0    0 -0.76250214345E+02 -0.88598027571E+01  0.11659408353E+03  0.13959502715E+03  0.00000000000E+00 0.  1.
</event>
<event>
 7    1  0.2490079E-009  0.1541311E+03  0.7561462E-02  0.1195487E+00
         -1   -1    0    0    0  501 -0.00000000000E+00  0.00000000000E+00  0.68777283237E+03  0.68777283237E+03  0.00000000000E+00 0.  1.
          1   -1    0    0  501    0  0.00000000000E+00 -0.00000000000E+00 -0.42021010852E+02  0.42021010852E+02  0.00000000000E+00 0. -1.
         25    2    1    2    0    0 -0.12814439322E+03  0.24663819907E+02  0.35456452192E+03  0.39798600269E+03  0.12509024185E+03 0.  0.
          5    1    3    3  502    0 -0.13185654302E+03 -0.17771040041E+02  0.22380847281E+03  0.26040288536E+03  0.41800000000E+01 0.  1.
         -5    1    3    3    0  502  0.37121498030E+01  0.42434859948E+02  0.13075604911E+03  0.13758311733E+03  0.41800000000E+01 0.  1.
        -11    1    1    2    0    0  0.30927417475E+02 -0.15790451289E+02  0.18225530500E+03  0.18553393141E+03  0.00000000000E+00 0.  1.
         11    1    1    2    0    0  0.97216975744E+02 -0.88733686179E+01  0.10893199459E+03  0.14627390912E+03  0.00000000000E+00 0. -1.
</event>
<event>
 7    1  0.2490079E-009  0.1430475E+03  0.7561462E-02  0.1209286E+00
         -2   -1    0    0    0  501 -0.00000000000E+00  0.00000000000E+00  0.86164688508E+02  0.86164688508E+02  0.00000000000E+00 0.  1.
          2   -1    0    0  501    0  0.00000000000E+00 -0.00000000000E+00 -0.24269947215E+03  0.24269947215E+03  0.00000000000E+00 0. -1.
         25    2    1    2    0    0  0.43996892906E+02 -0.83831192828E+02 -0.78999032147E+02  0.17564768110E+03  0.12509142785E+03 0.  0.
          5    1    3    3  502    0  0.61486701241E+02  0.76537262523E+01 -0.43777589063E+02  0.75981205960E+02  0.41800000000E+01 0.  1.
         -5    1    3    3    0  502 -0.17489808334E+02 -0.91484919080E+02 -0.35221443084E+02  0.99666475144E+02  0.41800000000E+01 0.  1.
        -11    1    1    2    0    0 -0.70839967119E+02  0.73258029466E+02 -0.69215996464E+02  0.12319047848E+03  0.00000000000E+00 0. -1.
         11    1    1    2    0    0  0.26843074212E+02  0.10573163363E+02 -0.83197550349E+01  0.30026001074E+02  0.00000000000E+00 0.  1.
</event>
<event>
 7    1  0.2490079E-009  0.1600460E+03  0.7561462E-02  0.1188645E+00
          2   -1    0    0  501    0  0.00000000000E+00  0.00000000000E+00  0.17640765870E+03  0.17640765870E+03  0.00000000000E+00 0. -1.
         -2   -1    0    0    0  501 -0.00000000000E+00 -0.00000000000E+00 -0.19071512992E+03  0.19071512992E+03  0.00000000000E+00 0.  1.
         25    2    1    2    0    0 -0.10444008024E+03  0.10416323153E+03  0.16012711757E+01  0.19340989904E+03  0.12508843199E+03 0.  0.
          5    1    3    3  502    0 -0.13857284731E+02  0.13152556126E+02  0.51882845731E+02  0.55446516157E+02  0.41800000000E+01 0. -1.
         -5    1    3    3    0  502 -0.90582795505E+02  0.91010675399E+02 -0.50281574555E+02  0.13796338289E+03  0.41800000000E+01 0. -1.
        -11    1    1    2    0    0  0.83639813372E+02 -0.11975055215E+03 -0.19894618261E+02  0.14741644737E+03  0.00000000000E+00 0.  1.
         11    1    1    2    0    0  0.20800266864E+02  0.15587320623E+02  0.39858758631E+01  0.26296442197E+02  0.00000000000E+00 0. -1.
</event>
<event>
 7    1  0.2490079E-009  0.1022343E+03  0.7561462E-02  0.1275667E+00
          2   -1    0    0  501    0  0.00000000000E+00  0.00000000000E+00  0.13869583946E+04  0.13869583946E+04  0.00000000000E+00 0.  1.
         -2   -1    0    0    0  501 -0.00000000000E+00 -0.00000000000E+00 -0.19822748838E+02  0.19822748838E+02  0.00000000000E+00 0. -1.
         25    2    1    2    0    0  0.42631513453E+02 -0.24296285572E+02  0.12172484109E+04  0.12246423617E+04  0.12508982727E+03 0.  0.
          5    1    3    3  502    0 -0.31029172900E+01  0.29674236588E+02  0.85050971127E+02  0.90229310661E+02  0.41800000000E+01 0.  1.
         -5    1    3    3    0  502  0.45734430743E+02 -0.53970522161E+02  0.11321974398E+04  0.11344130511E+04  0.41800000000E+01 0.  1.
        -11    1    1    2    0    0 -0.48533357431E+02 -0.24470208544E+02  0.79676068668E+02  0.96449747580E+02  0.00000000000E+00 0.  1.
         11    1    1    2    0    0  0.59018439775E+01  0.48766494117E+02  0.70211166195E+02  0.85689034124E+02  0.00000000000E+00 0. -1.
</event>
<event>
 7    1  0.2490079E-009  0.1218625E+03  0.7561462E-02  0.1240056E+00
         -1   -1    0    0    0  501 -0.00000000000E+00  0.00000000000E+00  0.58369436398E+02  0.58369436398E+02  0.00000000000E+00 0.  1.
          1   -1    0    0  501    0  0.00000000000E+00 -0.00000000000E+00 -0.26963020603E+03  0.26963020603E+03  0.00000000000E+00 0. -1.
         25    2    1    2    0    0  0.12433135704E+02  0.59884214115E+02 -0.92476083438E+02  0.16714488201E+03  0.12507950915E+03 0.  0.
          5    1    3    3  502    0  0.11556544712E+02  0.97085656390E+02 -0.47981371482E+02  0.10899019594E+03  0.41800000000E+01 0. -1.
         -5    1    3    3    0  502  0.87659099218E+00 -0.37201442275E+02 -0.44494711956E+02  0.58154686064E+02  0.41800000000E+01 0. -1.
        -11    1    1    2    0    0  0.36147157276E+02 -0.44771295038E+02 -0.60721755103E+02  0.83655348791E+02  0.00000000000E+00 0. -1.
         11    1    1    2    0    0 -0.48580292980E+02 -0.15112919076E+02 -0.58062931089E+02  0.77199411628E+02  0.00000000000E+00 0.  1.
</event>
<event>
 7    1  0.2490079E-009  0.1597733E+03  0.7561462E-02  0.1188953E+00
          1   -1    0    0  501    0  0.00000000000E+00  0.00000000000E+00  0.87565699107E+02  0.87565699107E+02  0.00000000000E+00 0. -1.
         -1   -1    0    0    0  501 -0.00000000000E+00 -0.00000000000E+00 -0.91234950158E+03  0.91234950158E+03  0.00000000000E+00 0.  1.
         25    2    1    2    0    0  0.58973611409E+02  0.12459481639E+03 -0.81349620207E+03  0.83452174121E+03  0.12509480665E+03 0.  0.
          5    1    3    3  502    0  0.22193503950E+02  0.13610330698E+03 -0.72342387919E+03  0.73646197673E+03  0.41800000000E+01 0. -1.
         -5    1    3    3    0  502  0.36780107459E+02 -0.11508490584E+02 -0.90072322885E+02  0.98059764481E+02  0.41800000000E+01 0. -1.
        -11    1    1    2    0    0 -0.58414391339E+02 -0.84535254515E+02 -0.45814326588E+02  0.11250512385E+03  0.00000000000E+00 0.  1.
         11    1    1    2    0    0 -0.55922006919E+00 -0.40059561879E+02  0.34526726184E+02  0.52888335633E+02  0.00000000000E+00 0. -1.
</event>
<event>
 7    1  0.2490079E-009  0.8090606E+02  0.7561462E-02  0.1326500E+00
         -1   -1    0    0    0  501 -0.00000000000E+00  0.00000000000E+00  0.77709845948E+02  0.77709845948E+02  0.00000000000E+00 0.  1.
          1   -1    0    0  501    0  0.00000000000E+00 -0.00000000000E+00 -0.18456117277E+03  0.18456117277E+03  0.00000000000E+00 0. -1.
         25    2    1    2    0    0 -0.82017406249E+01  0.59842124085E+01 -0.54541356544E+01  0.12561726520E+03  0.12508745090E+03 0.  0.
          5    1    3    3  502    0  0.26643822972E+02  0.26389027589E+02 -0.51748695738E+02  0.64044312708E+02  0.41800000000E+01 0.  1.
         -5    1    3    3    0  502 -0.34845563597E+02 -0.20404815181E+02  0.46294560084E+02  0.61572952490E+02  0.41800000000E+01 0.  1.
        -11    1    1    2    0    0  0.20025228658E+00  0.38391559019E+02 -0.75382961295E+02  0.84596351922E+02  0.00000000000E+00 0. -1.
         11    1    1    2    0    0  0.80014883383E+01 -0.44375771428E+02 -0.26014229876E+02  0.52057401601E+02  0.00000000000E+00 0.  1.
</event>
<event>
 7    1  0.2490079E-009  0.9625642E+02  0.7561462E-02  0.1288371E+00
         -1   -1    0    0    0  501 -0.00000000000E+00  0.00000000000E+00  0.44130578940E+02  0.44130578940E+02  0.00000000000E+00 0.  1.
          1   -1    0    0  501    0  0.00000000000E+00 -0.00000000000E+00 -0.39374161554E+03  0.39374161554E+03  0.00000000000E+00 0. -1.
         25    2    1    2    0    0 -0.77677100196E+01  0.68364137784E+01 -0.70610848176E+02  0.14401338835E+03  0.12508753044E+03 0.  0.
          5    1    3    3  502    0  0.18454734575E+02 -0.41361767813E+02  0.98459276796E+01  0.46538024848E+02  0.41800000000E+01 0.  1.
         -5    1    3    3    0  502 -0.26222444594E+02  0.48198181592E+02 -0.80456775855E+02  0.97475363504E+02  0.41800000000E+01 0.  1.
        -11    1    1    2    0    0 -0.24173773192E+02  0.33020171726E+02 -0.13515382867E+03  0.14121352788E+03  0.00000000000E+00 0.  1.
         11    1    1    2    0    0  0.31941483212E+02 -0.39856585504E+02 -0.14384635975E+03  0.15264527824E+03  0.00000000000E+00 0. -1.
</event>
<event>
 7    1  0.2490079E-009  0.9083488E+02  0.7561462E-02  0.1300842E+00
         -3   -1    0    0    0  501 -0.00000000000E+00  0.00000000000E+00  0.14849769572E+03  0.14849769572E+03  0.00000000000E+00 0.  1.
          3   -1    0    0  501    0  0.00000000000E+00 -0.00000000000E+00 -0.14886684693E+03  0.14886684693E+03  0.00000000000E+00 0. -1.
         25    2    1    2    0    0 -0.33377372044E+02  0.50225790498E+02  0.80380237990E+02  0.16045378783E+03  0.12509099238E+03 0.  0.
          5    1    3    3  502    0 -0.67514340514E+02  0.31798281141E+02  0.93121424679E+02  0.11940849632E+03  0.41800000000E+01 0. -1.
         -5    1    3    3    0  502  0.34136968470E+02  0.18427509356E+02 -0.12741186689E+02  0.41045291516E+02  0.41800000000E+01 0. -1.
        -11    1    1    2    0    0 -0.14717957314E+00 -0.27283908200E+02 -0.91010116946E+02  0.95011971325E+02  0.00000000000E+00 0. -1.
         11    1    1    2    0    0  0.33524551617E+02 -0.22941882297E+02  0.10260727747E+02  0.41898783495E+02  0.00000000000E+00 0.  1.
</event>
<event>
 7    1  0.2490079E-009  0.8105042E+02  0.7561462E-02  0.1326097E+00
          2   -1    0    0  501    0  0.00000000000E+00  0.00000000000E+00  0.67905541017E+03  0.67905541017E+03  0.00000000000E+00 0. -1.
         -2   -1    0    0    0  501 -0.00000000000E+00 -0.00000000000E+00 -0.26157376175E+02  0.26157376175E+02  0.00000000000E+00 0.  1.
         25    2    1    2    0    0  0.11624876785E+02 -0.69518014264E+02  0.49099943995E+03  0.51156239009E+03  0.12509091436E+03 0.  0.
          5    1    3    3  502    0  0.19232534329E+02 -0.46186489319E+02  0.53545778991E+02  0.73400987868E+02  0.41800000000E+01 0. -1.
         -5    1    3    3    0  502 -0.76076575439E+01 -0.23331524945E+02  0.43745366096E+03  0.43816140222E+03  0.41800000000E+01 0. -1.
        -11    1    1    2    0    0  0.19540159667E+02  0.16840641511E+02  0.11126268345E+03  0.11421387733E+03  0.00000000000E+00 0.  1.
         11    1    1    2    0    0 -0.31165036452E+02  0.52677372753E+02  0.50635910595E+02  0.79436518926E+02  0.00000000000E+00 0. -1.
</event>
<event>
 7    1  0.2490079E-009  0.1183316E+03  0.7561462E-02  0.1245875E+00
          2   -1    0    0  501    0  0.00000000000E+00  0.00000000000E+00  0.46883614463E+02  0.46883614463E+02  0.00000000000E+00 0. -1.
         -2   -1    0    0    0  501 -0.00000000000E+00 -0.00000000000E+00 -0.55904577162E+03  0.55904577162E+03  0.00000000000E+00 0.  1.
         25    2    1    2    0    0 -0.68692706137E+02  0.70338639209E+02 -0.39956547150E+03  0.43007713283E+03  0.12509021594E+03 0.  0.
          5    1    3    3  502    0 -0.14674604515E+02  0.32513660621E+02 -0.13455109772E+02  0.38353546429E+02  0.41800000000E+01 0.  1.
         -5    1    3    3    0  502 -0.54018101622E+02  0.37824978588E+02 -0.38611036173E+03  0.39172358640E+03  0.41800000000E+01 0.  1.
        -11    1    1    2    0    0 -0.17850921758E+02 -0.38533628326E+02 -0.29287884810E+02  0.51587557766E+02  0.00000000000E+00 0. -1.
         11    1    1    2    0    0  0.86543627895E+02 -0.31805010884E+02 -0.83308800847E+02  0.12426469549E+03  0.00000000000E+00 0.  1.
</event>
<event>
 7    1  0.2490079E-009  0.7269860E+02  0.7561462E-02  0.1351150E+00
         -1   -1    0    0    0  501 -0.00000000000E+00  0.00000000000E+00  0.61038786373E+02  0.61038786373E+02  0.00000000000E+00 0.  1.
          1   -1    0    0  501    0  0.00000000000E+00 -0.00000000000E+00 -0.23153192041E+03  0.23153192041E+03  0.00000000000E+00 0. -1.
         25    2    1    2    0    0  0.29475369560E+01 -0.63177150559E+01 -0.36081351034E+02  0.13037574286E+03  0.12508944374E+03 0.  0.
          5    1    3    3  502    0  0.44027572763E+02  0.13320758030E+02 -0.62387375118E+02  0.77624266386E+02  0.41800000000E+01 0. -1.
         -5    1    3    3    0  502 -0.41080035807E+02 -0.19638473086E+02  0.26306024084E+02  0.52751476474E+02  0.41800000000E+01 0. -1.
        -11    1    1    2    0    0 -0.18944855637E+02  0.23382613554E+02 -0.13547778258E+03  0.13877998323E+03  0.00000000000E+00 0.  1.
         11    1    1    2    0    0  0.15997318681E+02 -0.17064898498E+02  0.10659995809E+01  0.23414980693E+02  0.00000000000E+00 0. -1.
</event>
<event>
 7    1  0.2490079E-009  0.1295154E+03  0.7561462E-02  0.1228177E+00
         -2   -1    0    0    0  501 -0.00000000000E+00  0.00000000000E+00  0.49323347440E+03  0.49323347440E+03  0.00000000000E+00 0.  1.
          2   -1    0    0  501    0  0.00000000000E+00 -0.00000000000E+00 -0.44922541498E+02  0.44922541498E+02  0.00000000000E+00 0. -1.
         25    2    1    2    0    0 -0.41487618232E+02 -0.88923608357E+02  0.28979940849E+03  0.33054465632E+03  0.12508973608E+03 0.  0.
          5    1    3    3  502    0  0.13251770216E+02  0.27070601333E+02  0.62741787399E+02  0.69731134770E+02  0.41800000000E+01 0. -1.
         -5    1    3    3    0  502 -0.54739388448E+02 -0.11599420969E+03  0.22705762109E+03  0.26081352155E+03  0.41800000000E+01 0. -1.
        -11    1    1    2    0    0  0.26914311874E+02  0.76587538141E+02  0.45625622439E+02  0.93122116627E+02  0.00000000000E+00 0. -1.
         11    1    1    2    0    0  0.14573306359E+02  0.12336070215E+02  0.11288590198E+03  0.11448924295E+03  0.00000000000E+00 0.  1.
</event>
<event>
 7    1  0.2490079E-009  0.6570629E+02  0.7561462E-02  0.1375334E+00
          2   -1    0    0  501    0  0.00000000000E+00  0.00000000000E+00  0.27999566182E+03  0.27999566182E+03  0.00000000000E+00 0.  1.
         -2   -1    0    0    0  501 -0.00000000000E+00 -0.00000000000E+00 -0.51385517303E+02  0.51385517303E+02  0.00000000000E+00 0. -1.
         25    2    1    2    0    0  0.50354860004E+01  0.37158934700E+02  0.17822392509E+03  0.22094583019E+03  0.12508856805E+03 0.  0.
          5    1    3    3  502    0 -0.73629437157E+01 -0.95231669881E+01  0.17153252472E+03  0.17200518332E+03  0.41800000000E+01 0.  1.
         -5    1    3    3    0  502  0.12398429716E+02  0.46682101688E+02  0.66914003636E+01  0.48940646872E+02  0.41800000000E+01 0.  1.
        -11    1    1    2    0    0 -0.26181372594E+02  0.13929846818E+01  0.59953886695E+02  0.65436023771E+02  0.00000000000E+00 0.  1.
         11    1    1    2    0    0  0.21145886593E+02 -0.38551919382E+02 -0.95676672693E+01  0.44999325159E+02  0.00000000000E+00 0. -1.
</event>
<event>
 7    1  0.2490079E-009  0.9001363E+02  0.7561462E-02  0.1302819E+00
          1   -1    0    0  501    0  0.00000000000E+00  0.00000000000E+00  0.11210989413E+03  0.11210989413E+03  0.00000000000E+00 0. -1.
         -1   -1    0    0    0  501 -0.00000000000E+00 -0.00000000000E+00 -0.12190196253E+03  0.12190196253E+03  0.00000000000E+00 0.  1.
         25    2    1    2    0    0 -0.27767627187E+02  0.34866951858E+02 -0.67122203514E+01  0.13296493342E+03  0.12509146320E+03 0.  0.
          5    1    3    3  502    0 -0.15785989788E+02 -0.43982286277E+02 -0.21725628636E+02  0.51702169387E+02  0.41800000000E+01 0.  1.
         -5    1    3    3    0  502 -0.11981637400E+02  0.78849238135E+02  0.15013408285E+02  0.81262764028E+02  0.41800000000E+01 0.  1.
        -11    1    1    2    0    0 -0.27328089640E+01 -0.18368488683E+02 -0.43792883308E+02  0.47567701750E+02  0.00000000000E+00 0.  1.
         11    1    1    2    0    0  0.30500436151E+02 -0.16498463175E+02  0.40713035258E+02  0.53479221502E+02  0.00000000000E+00 0. -1.
</event>
<event>
 7    1  0.2490079E-009  0.1249128E+03  0.7561462E-02  0.1235206E+00
         -2   -1    0    0    0  501 -0.00000000000E+00  0.00000000000E+00  0.35668629138E+02  0.35668629138E+02  0.00000000000E+00 0.  1.
          2   -1    0    0  501    0  0.00000000000E+00 -0.00000000000E+00 -0.93060004373E+03  0.93060004373E+03  0.00000000000E+00 0. -1.
         25    2    1    2    0    0 -0.10265606207E+03 -0.15592225698E+02 -0.74240953806E+03  0.75999953350E+03  0.12508390838E+03 0.  0.
          5    1    3    3  502    0  0.12525348701E+01 -0.16160045927E+02 -0.85273117055E+01  0.18785722581E+02  0.41800000000E+01 0.  1.
         -5    1    3    3    0  502 -0.10390859694E+03  0.56782022847E+00 -0.73388222636E+03  0.74121381092E+03  0.41800000000E+01 0.  1.
        -11    1    1    2    0    0  0.14251781906E+02 -0.27327472001E+02 -0.75049829493E+02  0.81131873641E+02  0.00000000000E+00 0. -1.
         11    1    1    2    0    0  0.88404280161E+02  0.42919697700E+02 -0.77472047038E+02  0.12513726573E+03  0.00000000000E+00 0.  1.
</event>
<event>
 7    1  0.2490079E-009  0.1034611E+03  0.7561462E-02  0.1273182E+00
          2   -1    0    0  501    0  0.00000000000E+00  0.00000000000E+00  0.80789851496E+03  0.80789851496E+03  0.00000000000E+00 0. -1.
         -2   -1    0    0    0  501 -0.00000000000E+00 -0.00000000000E+00 -0.26919800698E+02  0.26919800698E+02  0.00000000000E+00 0.  1.
         25    2    1    2    0    0  0.56213808423E+02 -0.33886975301E+02  0.63307073280E+03  0.64864356609E+03  0.12510636978E+03 0.  0.
          5    1    3    3  502    0  0.96184750444E+02 -0.23578117988E+02  0.41626416421E+03  0.42790274674E+03  0.41800000000E+01 0. -1.
         -5    1    3    3    0  502 -0.39970942021E+02 -0.10308857313E+02  0.21680656859E+03  0.22074081935E+03  0.41800000000E+01 0. -1.
        -11    1    1    2    0    0 -0.18141767035E+02  0.59626001955E+01 -0.98610688010E+01  0.21492254189E+02  0.00000000000E+00 0.  1.
         11    1    1    2    0    0 -0.38072041389E+02  0.27924375105E+02  0.15776905026E+03  0.16468249537E+03  0.00000000000E+00 0. -1.
</event>
<event>
 7    1  0.2490079E-009  0.9975146E+02  0.7561462E-02  0.1280819E+00
         -2   -1    0    0    0  501 -0.00000000000E+00  0.00000000000E+00  0.36146087569E+03  0.36146087569E+03  0.00000000000E+00 0.  1.
          2   -1    0    0  501    0  0.00000000000E+00 -0.00000000000E+00 -0.47328684758E+02  0.47328684758E+02  0.00000000000E+00 0. -1.
         25    2    1    2    0    0 -0.15584600455E+02  0.71907602375E+02  0.16909307333E+03  0.22283039617E+03  0.12508930793E+03 0.  0.
          5    1    3    3  502    0 -0.30898582039E+02  0.30187008400E+01 -0.78442534132E+01  0.32293027705E+02  0.41800000000E+01 0.  1.
         -5    1    3    3    0  502  0.15313981584E+02  0.68888901535E+02  0.17693732674E+03  0.19053736846E+03  0.41800000000E+01 0.  1.
        -11    1    1    2    0    0  0.19982314603E+02 -0.83094107515E+02  0.15025234317E+03  0.17285742746E+03  0.00000000000E+00 0.  1.
         11    1    1    2    0    0 -0.43977141488E+01  0.11186505139E+02 -0.52132255631E+01  0.13101736821E+02  0.00000000000E+00 0. -1.
</event>
<event>
 7    1  0.2490079E-009  0.1219867E+03  0.7561462E-02  0.1239855E+00
         -1   -1    0    0    0  501 -0.00000000000E+00  0.00000000000E+00  0.52543179950E+02  0.52543179950E+02  0.00000000000E+00 0.  1.
          1   -1    0    0  501    0  0.00000000000E+00 -0.00000000000E+00 -0.44929841457E+03  0.44929841457E+03  0.00000000000E+00 0. -1.
         25    2    1    2    0    0  0.65805116394E+02  0.48558007434E+02 -0.33297918898E+03  0.36497833500E+03  0.12508337739E+03 0.  0.
          5    1    3    3  502    0 -0.27782411059E+02 -0.55722202605E+01 -0.14744670171E+03  0.15020291025E+03  0.41800000000E+01 0.  1.
         -5    1    3    3    0  502  0.93587527453E+02  0.54130227695E+02 -0.18553248727E+03  0.21477542475E+03  0.41800000000E+01 0.  1.
        -11    1    1    2    0    0 -0.22436588726E+02 -0.58489063723E+02 -0.67654341518E+02  0.92203476155E+02  0.00000000000E+00 0. -1.
         11    1    1    2    0    0 -0.43368527668E+02  0.99310562885E+01  0.38782958773E+01  0.44659783363E+02  0.00000000000E+00 0.  1.
</event>
<event>
 7    1  0.2490079E-009  0.1177396E+03  0.7561462E-02  0.1246873E+00
          1   -1    0    0  501    0  0.00000000000E+00  0.00000000000E+00  0.10325474172E+04  0.10325474172E+04  0.00000000000E+00 0. -1.
         -1   -1    0    0    0  501 -0.00000000000E+00 -0.00000000000E+00 -0.18500365301E+02  0.18500365301E+02  0.00000000000E+00 0.  1.
         25    2    1    2    0    0  0.65653778831E+02  0.45037066706E+02  0.43130025537E+03  0.45607780500E+03  0.12509315681E+03 0.  0.
          5    1    3    3  502    0  0.82529431877E+02  0.18933460815E+02  0.40875055146E+03  0.41744948051E+03  0.41800000000E+01 0. -1.
         -5    1    3    3    0  502 -0.16875653046E+02  0.26103605891E+02  0.22549703912E+02  0.38628324488E+02  0.41800000000E+01 0. -1.
        -11    1    1    2    0    0 -0.26008776627E+02  0.26764355163E+02  0.15488932566E+03  0.15932197078E+03  0.00000000000E+00 0.  1.
         11    1    1    2    0    0 -0.39645002205E+02 -0.71801421868E+02  0.42785747084E+03  0.43564800669E+03  0.00000000000E+00 0. -1.
</event>
<event>
 7    1  0.2490079E-009  0.9045004E+02  0.7561462E-02  0.1301766E+00
         -2   -1    0    0    0  501 -0.00000000000E+00  0.00000000000E+00  0.53333560981E+02  0.53333560981E+02  0.00000000000E+00 0.  1.
          2   -1    0    0  501    0  0.00000000000E+00 -0.00000000000E+00 -0.34669773622E+03  0.34669773622E+03  0.00000000000E+00 0. -1.
         25    2    1    2    0    0  0.11467441137E+02  0.55608633582E+02 -0.74282650281E+02  0.15617151484E+03  0.12509119705E+03 0.  0.
          5    1    3    3  502    0  0.32051006043E+02  0.19026326043E+02 -0.99975759525E+02  0.10677964677E+03  0.41800000000E+01 0. -1.
         -5    1    3    3    0  502 -0.20583564906E+02  0.36582307539E+02  0.25693109244E+02  0.49391868073E+02  0.41800000000E+01 0. -1.
        -11    1    1    2    0    0 -0.16544920356E+02  0.19702724579E+02 -0.96771825639E+02  0.10013350080E+03  0.00000000000E+00 0.  1.
         11    1    1    2    0    0  0.50774792189E+01 -0.75311358161E+02 -0.12230969932E+03  0.14372628156E+03  0.00000000000E+00 0. -1.
</event>
<event>
 7    1  0.2490079E-009  0.1551845E+03  0.7561462E-02  0.1194243E+00
         -2   -1    0    0    0  501 -0.00000000000E+00  0.00000000000E+00  0.38621982589E+02  0.38621982589E+02  0.00000000000E+00 0.  1.
          2   -1    0    0  501    0  0.00000000000E+00 -0.00000000000E+00 -0.86933796848E+03  0.86933796848E+03  0.00000000000E+00 0. -1.
         25    2    1    2    0    0 -0.50529655818E+02 -0.11499437434E+03 -0.24088525638E+03  0.29908219528E+03  0.12508996981E+03 0.  0.
          5    1    3    3  502    0  0.33231572354E+02 -0.61526536659E+02 -0.14448410197E+03  0.16057079509E+03  0.41800000000E+01 0. -1.
         -5    1    3    3    0  502 -0.83761228172E+02 -0.53467837682E+02 -0.96401154408E+02  0.13851140019E+03  0.41800000000E+01 0. -1.
        -11    1    1    2    0    0  0.20691901602E+02 -0.13611177544E+01 -0.31091095926E+02  0.37371963814E+02  0.00000000000E+00 0.  1.
         11    1    1    2    0    0  0.29837754216E+02  0.11635549210E+03 -0.55873963359E+03  0.57150579197E+03  0.00000000000E+00 0. -1.
</event>
<event>
 7    1  0.2490079E-009  0.1476473E+03  0.7561462E-02  0.1203394E+00
         -1   -1    0    0    0  501 -0.00000000000E+00  0.00000000000E+00  0.92129864494E+03  0.92129864494E+03  0.00000000000E+00 0.  1.
          1   -1    0    0  501    0  0.00000000000E+00 -0.00000000000E+00 -0.26293634535E+02  0.26293634535E+02  0.00000000000E+00 0. -1.
         25    2    1    2    0    0  0.36027466019E+02  0.11045139257E+03  0.39716097791E+03  0.43229866762E+03  0.12509119562E+03 0.  0.
          5    1    3    3  502    0 -0.38841735784E+02  0.16258853229E+02  0.17020509453E+03  0.17538608083E+03  0.41800000000E+01 0.  1.
         -5    1    3    3    0  502  0.74869201804E+02  0.94192539337E+02  0.22695588338E+03  0.25691258678E+03  0.41800000000E+01 0.  1.
        -11    1    1    2    0    0  0.77151106760E+01 -0.77338550910E+02  0.27249789142E+03  0.28336526820E+03  0.00000000000E+00 0. -1.
         11    1    1    2    0    0 -0.43742576695E+02 -0.33112841656E+02  0.22534614107E+03  0.23192834366E+03  0.00000000000E+00 0.  1.
</event>
<event>
 7    1  0.2490079E-009  0.1876525E+03  0.7561462E-02  0.1160596E+00
          1   -1    0    0  501    0  0.00000000000E+00  0.00000000000E+00  0.62087328201E+03  0.62087328201E+03  0.00000000000E+00 0. -1.
         -1   -1    0    0    0  501 -0.00000000000E+00 -0.00000000000E+00 -0.64715269031E+02  0.64715269031E+02  0.00000000000E+00 0.  1.
         25    2    1    2    0    0 -0.11260280542E+03  0.12329150035E+03  0.26413579276E+03  0.33659416230E+03  0.12509087587E+03 0.  0.
          5    1    3    3  502    0 -0.62257675977E+02 -0.12050383632E+02  0.69053602541E+02  0.93846163415E+02  0.41800000000E+01 0. -1.
         -5    1    3    3    0  502 -0.50345129445E+02  0.13534188398E+03  0.19508219022E+03  0.24274799888E+03  0.41800000000E+01 0. -1.
        -11    1    1    2    0    0  0.43086048458E+02 -0.54707137580E+02  0.43831595035E+02  0.82282970275E+02  0.00000000000E+00 0.  1.
         11    1    1    2    0    0  0.69516756964E+02 -0.68584362770E+02  0.24819062518E+03  0.26671141847E+03  0.00000000000E+00 0. -1.
</event>
<event>
 7    1  0.2490079E-009  0.1143757E+03  0.7561462E-02  0.1252675E+00
         -1   -1    0    0    0  501 -0.00000000000E+00  0.00000000000E+00  0.15427353221E+03  0.15427353221E+03  0.00000000000E+00 0.  1.
          1   -1    0    0  501    0  0.00000000000E+00 -0.00000000000E+00 -0.14629383900E+03  0.14629383900E+03  0.00000000000E+00 0. -1.
         25    2    1    2    0    0  0.16399273364E+02  0.77105104646E+02  0.68857650115E+02  0.16310692700E+03  0.12509340641E+03 0.  0.
          5    1    3    3  502    0  0.42468206053E+02  0.12688061881E+02  0.81009458570E+02  0.92436682207E+02  0.41800000000E+01 0.  1.
         -5    1    3    3    0  502 -0.26068932689E+02  0.64417042765E+02 -0.12151808455E+02  0.70670244792E+02  0.41800000000E+01 0.  1.
        -11    1    1    2    0    0  0.34117782796E+02 -0.27594940748E+02 -0.48931561308E+02  0.65725197222E+02  0.00000000000E+00 0.  1.
         11    1    1    2    0    0 -0.50517056160E+02 -0.49510163898E+02 -0.11946395601E+02  0.71735246986E+02  0.00000000000E+00 0. -1.
</event>
<event>
 7    1  0.2490079E-009  0.7982642E+02  0.7561462E-02  0.1329545E+00
          1   -1    0    0  501    0  0.00000000000E+00  0.00000000000E+00  0.85044908044E+02  0.85044908044E+02  0.00000000000E+00 0. -1.
         -1   -1    0    0    0  501 -0.00000000000E+00 -0.00000000000E+00 -0.19155007418E+03  0.19155007418E+03  0.00000000000E+00 0.  1.
         25    2    1    2    0    0  0.17825418133E+02 -0.11644474737E+02  0.85480497691E+01  0.12717261868E+03  0.12508583639E+03 0.  0.
          5    1    3    3  502    0 -0.25921359161E+02 -0.25754106204E+02 -0.43924606721E+02  0.57289041908E+02  0.41800000000E+01 0.  1.
         -5    1    3    3    0  502  0.43746777294E+02  0.14109631467E+02  0.52472656490E+02  0.69883576775E+02  0.41800000000E+01 0.  1.
        -11    1    1    2    0    0 -0.19954125775E+02  0.41889268690E+02 -0.21612582553E+02  0.51185756724E+02  0.00000000000E+00 0. -1.
         11    1    1    2    0    0  0.21287076419E+01 -0.30244793953E+02 -0.93440633349E+02  0.98236606813E+02  0.00000000000E+00 0.  1.
</event>
<event>
 7    1  0.2490079E-009  0.1279190E+03  0.7561462E-02  0.1230577E+00
          2   -1    0    0  501    0  0.00000000000E+00  0.00000000000E+00  0.12630295728E+04  0.12630295728E+04  0.00000000000E+00 0. -1.
         -2   -1    0    0    0  501 -0.00000000000E+00 -0.00000000000E+00 -0.15377869276E+02  0.15377869276E+02  0.00000000000E+00 0.  1.
         25    2    1    2    0    0  0.37922040799E+02 -0.66308395412E+02  0.88445816838E+03  0.89652003062E+03  0.12508808582E+03 0.  0.
          5    1    3    3  502    0  0.45070284918E+02  0.26540494758E+02  0.27294410586E+03  0.27794187480E+03  0.41800000000E+01 0.  1.
         -5    1    3    3    0  502 -0.71482441189E+01 -0.92848890170E+02  0.61151406252E+03  0.61857815582E+03  0.41800000000E+01 0.  1.
        -11    1    1    2    0    0 -0.23053581527E+02 -0.14992843594E+02  0.41785164971E+02  0.50022524845E+02  0.00000000000E+00 0. -1.
         11    1    1    2    0    0 -0.14868459272E+02  0.81301239005E+02  0.32140837014E+03  0.33186488658E+03  0.00000000000E+00 0.  1.
</event>
<event>
 7    1  0.2490079E-009  0.9975580E+02  0.7561462E-02  0.1280810E+00
          2   -1    0    0  501    0  0.00000000000E+00  0.00000000000E+00  0.59944828073E+03  0.59944828073E+03  0.00000000000E+00 0. -1.
         -2   -1    0    0    0  501 -0.00000000000E+00 -0.00000000000E+00 -0.22911814284E+02  0.22911814284E+02  0.00000000000E+00 0.  1.
         25    2    1    2    0    0  0.29877591795E+02 -0.13412735694E+02  0.23256786349E+03  0.26609706696E+03  0.12508903209E+03 0.  0.
          5    1    3    3  502    0 -0.19641488700E+02 -0.44009532171E+02  0.33991855777E+02  0.59123139797E+02  0.41800000000E+01 0.  1.
         -5    1    3    3    0  502  0.49519080495E+02  0.30596796477E+02  0.19857600771E+03  0.20697392717E+03  0.41800000000E+01 0.  1.
        -11    1    1    2    0    0  0.25405169977E+02  0.25709473866E+02  0.13604726069E+03  0.14076667521E+03  0.00000000000E+00 0.  1.
         11    1    1    2    0    0 -0.55282761772E+02 -0.12296738172E+02  0.20792134226E+03  0.21549635284E+03  0.00000000000E+00 0. -1.
</event>
<event>
 7    1  0.2490079E-009  0.1247270E+03  0.7561462E-02  0.1235497E+00
         -1   -1    0    0    0  501 -0.00000000000E+00  0.00000000000E+00  0.15274593486E+02  0.15274593486E+02  0.00000000000E+00 0.  1.
          1   -1    0    0  501    0  0.00000000000E+00 -0.00000000000E+00 -0.21418888521E+04  0.21418888521E+04  0.00000000000E+00 0. -1.
         25    2    1    2    0    0  0.62783093910E+02 -0.24984217020E+02 -0.18880294622E+04  0.18933750862E+04  0.12509212229E+03 0.  0.
          5    1    3    3  502    0  0.28904586304E+01 -0.65155127821E+02 -0.11379735766E+04  0.11398486210E+04  0.41800000000E+01 0.  1.
         -5    1    3    3    0  502  0.59892635280E+02  0.40170910801E+02 -0.75005588563E+03  0.75352646523E+03  0.41800000000E+01 0.  1.
        -11    1    1    2    0    0  0.51366714942E+01  0.41619961436E+02 -0.75969001136E+02  0.86774971724E+02  0.00000000000E+00 0.  1.
         11    1    1    2    0    0 -0.67919765404E+02 -0.16635744416E+02 -0.16261579525E+03  0.17701338760E+03  0.00000000000E+00 0. -1.
</event>
<event>
 7    1  0.2490079E-009  0.1122200E+03  0.7561462E-02  0.1256513E+00
         -1   -1    0    0    0  501 -0.00000000000E+00  0.00000000000E+00  0.61113988215E+03  0.61113988215E+03  0.00000000000E+00 0.  1.
          1   -1    0    0  501    0  0.00000000000E+00 -0.00000000000E+00 -0.30996904196E+02  0.30996904196E+02  0.00000000000E+00 0. -1.
         25    2    1    2    0    0  0.79164134564E+02  0.25837610246E+02  0.36571516261E+03  0.39538675955E+03  0.12509423311E+03 0.  0.
          5    1    3    3  502    0 -0.85549456082E+01 -0.25021998143E+02  0.15876325196E+02  0.31125834722E+02  0.41800000000E+01 0. -1.
         -5    1    3    3    0  502  0.87719080172E+02  0.50859608389E+02  0.34983883742E+03  0.36426092483E+03  0.41800000000E+01 0. -1.
        -11    1    1    2    0    0 -0.44105599336E+02  0.10869524970E+02  0.17944025427E+03  0.18510066266E+03  0.00000000000E+00 0.  1.
         11    1    1    2    0    0 -0.35058535228E+02 -0.36707135216E+02  0.34987561067E+02  0.61649364129E+02  0.00000000000E+00 0. -1.
</event>
<event>
 7    1  0.2490079E-009  0.5935031E+02  0.7561462E-02  0.1400579E+00
         -1   -1    0    0    0  501 -0.00000000000E+00  0.00000000000E+00  0.35847393306E+02  0.35847393306E+02  0.00000000000E+00 0.  1.
          1   -1    0    0  501    0  0.00000000000E+00 -0.00000000000E+00 -0.34171001947E+03  0.34171001947E+03  0.00000000000E+00 0. -1.
         25    2    1    2    0    0 -0.10366571211E+02 -0.15812410706E+02 -0.18826963244E+03  0.22682666656E+03  0.12508950408E+03 0.  0.
          5    1    3    3  502    0  0.12656483376E+02 -0.33228507585E+00 -0.19699423992E+03  0.19744492890E+03  0.41800000000E+01 0. -1.
         -5    1    3    3    0  502 -0.23023054587E+02 -0.15480125630E+02  0.87246074829E+01  0.29381737657E+02  0.41800000000E+01 0. -1.
        -11    1    1    2    0    0 -0.83969455059E+01 -0.28222515511E+02 -0.70614686862E+01  0.30280082821E+02  0.00000000000E+00 0.  1.
         11    1    1    2    0    0  0.18763516717E+02  0.44034926217E+02 -0.11053152504E+03  0.12045066340E+03  0.00000000000E+00 0. -1.
</event>
<event>
 7    1  0.2490079E-009  0.1217243E+03  0.7561462E-02  0.1240279E+00
         -2   -1    0    0    0  501 -0.00000000000E+00  0.00000000000E+00  0.58696913128E+02  0.58696913128E+02  0.00000000000E+00 0.  1.
          2   -1    0    0  501    0  0.00000000000E+00 -0.00000000000E+00 -0.28087632326E+03  0.28087632326E+03  0.00000000000E+00 0. -1.
         25    2    1    2    0    0  0.55085362915E+02  0.20652957338E+02 -0.83680108312E+02  0.16158960731E+03  0.12509156170E+03 0.  0.
          5    1    3    3  502    0  0.36108258478E+02 -0.50828953455E+02 -0.50851113332E+02  0.80564861862E+02  0.41800000000E+01 0. -1.
         -5    1    3    3    0  502  0.18977104437E+02  0.71481910793E+02 -0.32828994980E+02  0.81024745448E+02  0.41800000000E+01 0. -1.
        -11    1    1    2    0    0  0.11347218775E+02 -0.36806047201E+02 -0.26449029070E+02  0.46722538707E+02  0.00000000000E+00 0. -1.
         11    1    1    2    0    0 -0.66432581690E+02  0.16153089863E+02 -0.11205027275E+03  0.13126109037E+03  0.00000000000E+00 0.  1.
</event>
<event>
 7    1  0.2490079E-009  0.1246553E+03  0.7561462E-02  0.1235609E+00
          2   -1    0    0  501    0  0.00000000000E+00  0.00000000000E+00  0.69720511250E+03  0.69720511250E+03  0.00000000000E+00 0. -1.
         -2   -1    0    0    0  501 -0.00000000000E+00 -0.00000000000E+00 -0.42668059487E+02  0.42668059487E+02  0.00000000000E+00 0.  1.
         25    2    1    2    0    0 -0.71659149533E+02  0.78597717587E+01  0.58442985783E+03  0.60199911270E+03  0.12509141956E+03 0.  0.
          5    1    3    3  502    0 -0.11293185056E+02 -0.47980544232E+02  0.11186800018E+03  0.12231758057E+03  0.41800000000E+01 0. -1.
         -5    1    3    3    0  502 -0.60365964477E+02  0.55840315991E+02  0.47256185765E+03  0.47968153213E+03  0.41800000000E+01 0. -1.
        -11    1    1    2    0    0  0.11796475405E+02  0.39467075136E+02  0.15390132338E+02  0.43973435449E+02  0.00000000000E+00 0. -1.
         11    1    1    2    0    0  0.59862674128E+02 -0.47326846895E+02  0.54717062849E+02  0.93900623840E+02  0.00000000000E+00 0.  1.
</event>
<event>
 7    1  0.2490079E-009  0.1121215E+03  0.7561462E-02  0.1256691E+00
          1   -1    0    0  501    0  0.00000000000E+00  0.00000000000E+00  0.36485893333E+02  0.36485893333E+02  0.00000000000E+00 0. -1.
         -1   -1    0    0    0  501 -0.00000000000E+00 -0.00000000000E+00 -0.42542893419E+03  0.42542893419E+03  0.00000000000E+00 0.  1.
         25    2    1    2    0    0  0.24994431099E+02  0.52795403846E+02 -0.17812449578E+03  0.22535874117E+03  0.12508457127E+03 0.  0.
          5    1    3    3  502    0 -0.37641213719E+02  0.56179853136E+02 -0.55595439404E+02  0.87643380533E+02  0.41800000000E+01 0.  1.
         -5    1    3    3    0  502  0.62635644818E+02 -0.33844492902E+01 -0.12252905638E+03  0.13771536064E+03  0.41800000000E+01 0.  1.
        -11    1    1    2    0    0 -0.43665745430E+02 -0.59483790265E+02 -0.10170095952E+03  0.12565072143E+03  0.00000000000E+00 0. -1.
         11    1    1    2    0    0  0.18671314331E+02  0.66883864192E+01 -0.10911758556E+03  0.11090536493E+03  0.00000000000E+00 0.  1.
</event>
<event>
 7    1  0.2490079E-009  0.1025936E+03  0.7561462E-02  0.1274935E+00
          1   -1    0    0  501    0  0.00000000000E+00  0.00000000000E+00  0.56041713184E+03  0.56041713184E+03  0.00000000000E+00 0. -1.
         -1   -1    0    0    0  501 -0.00000000000E+00 -0.00000000000E+00 -0.29824872890E+02  0.29824872890E+02  0.00000000000E+00 0.  1.
         25    2    1    2    0    0  0.43089397892E+02 -0.55309771801E+02  0.30972643557E+03  0.34130569934E+03  0.12507297247E+03 0.  0.
          5    1    3    3  502    0 -0.18201974641E+02 -0.36497324686E+02  0.25079009673E+03  0.25411908942E+03  0.41800000000E+01 0. -1.
         -5    1    3    3    0  502  0.61291372532E+02 -0.18812447114E+02  0.58936338846E+02  0.87186609923E+02  0.41800000000E+01 0. -1.
        -11    1    1    2    0    0 -0.81367180437E+00 -0.16548178515E+02  0.46572673200E+01  0.17210299616E+02  0.00000000000E+00 0.  1.
         11    1    1    2    0    0 -0.42275726088E+02  0.71857950315E+02  0.21620855605E+03  0.23172600577E+03  0.00000000000E+00 0. -1.
</event>
<event>
 7    1  0.2490079E-009  0.1302192E+03  0.7561462E-02  0.1227131E+00
          1   -1    0    0  501    0  0.00000000000E+00  0.00000000000E+00  0.14910040540E+03  0.14910040540E+03  0.00000000000E+00 0. -1.
         -1   -1    0    0    0  501 -0.00000000000E+00 -0.00000000000E+00 -0.12732321375E+03  0.12732321375E+03  0.00000000000E+00 0.  1.
         25    2    1    2    0    0  0.67704546497E+02 -0.44581028111E+02  0.36690397025E+02  0.15351122779E+03  0.12509251832E+03 0.  0.
          5    1    3    3  502    0  0.64279702841E+02  0.26541516932E+02  0.43056188159E+02  0.81900183499E+02  0.41800000000E+01 0.  1.
         -5    1    3    3    0  502  0.34248436559E+01 -0.71122545043E+02 -0.63657911341E+01  0.71611044290E+02  0.41800000000E+01 0.  1.
        -11    1    1    2    0    0  0.65839904086E+01  0.44670490388E+02  0.64539421957E+01  0.45612005120E+02  0.00000000000E+00 0. -1.
         11    1    1    2    0    0 -0.74288536906E+02 -0.89462276853E-01 -0.21367147571E+02  0.77300386250E+02  0.00000000000E+00 0.  1.
</event>
<event>
 7    1  0.2490079E-009  0.9880723E+02  0.7561462E-02  0.1282824E+00
         -3   -1    0    0    0  501 -0.00000000000E+00  0.00000000000E+00  0.41615330746E+03  0.41615330746E+03  0.00000000000E+00 0.  1.
          3   -1    0    0  501    0  0.00000000000E+00 -0.00000000000E+00 -0.49173501382E+02  0.49173501382E+02  0.00000000000E+00 0. -1.
         25    2    1    2    0    0  0.74314719868E+01  0.45923679235E+01  0.35107264893E+03  0.37279621720E+03  0.12509475655E+03 0.  0.
          5    1    3    3  502    0  0.42527151267E+02  0.39922317011E+02  0.92474935589E+02  0.10941405807E+03  0.41800000000E+01 0.  1.
         -5    1    3    3    0  502 -0.35095679281E+02 -0.35329949087E+02  0.25859771334E+03  0.26338215914E+03  0.41800000000E+01 0.  1.
        -11    1    1    2    0    0  0.21108648456E+02  0.34688972804E+02 -0.23065831845E+01  0.40672105918E+02  0.00000000000E+00 0.  1.
         11    1    1    2    0    0 -0.28540120443E+02 -0.39281340728E+02  0.18213740332E+02  0.51858485720E+02  0.00000000000E+00 0. -1.
</event>
<event>
 7    1  0.2490079E-009  0.9416322E+02  0.7561462E-02  0.1293072E+00
          3   -1    0    0  501    0  0.00000000000E+00  0.00000000000E+00  0.24006964449E+03  0.24006964449E+03  0.00000000000E+00 0. -1.
         -3   -1    0    0    0  501 -0.00000000000E+00 -0.00000000000E+00 -0.54875646882E+02  0.54875646882E+02  0.00000000000E+00 0.  1.
         25    2    1    2    0    0  0.35749735447E+02 -0.13097111560E+02  0.11718243847E+03  0.17558344108E+03  0.12509293737E+03 0.  0.
          5    1    3    3  502    0  0.65164372497E+02  0.14938473192E+02  0.19596969238E+02  0.69793029935E+02  0.41800000000E+01 0.  1.
         -5    1    3    3    0  502 -0.29414637049E+02 -0.28035584751E+02  0.97585469228E+02  0.10579041114E+03  0.41800000000E+01 0.  1.
        -11    1    1    2    0    0  0.18138617576E+01  0.36296283701E+02 -0.22161789729E+01  0.36409088896E+02  0.00000000000E+00 0.  1.
         11    1    1    2    0    0 -0.37563597205E+02 -0.23199172141E+02  0.70227738116E+02  0.82952761400E+02  0.00000000000E+00 0. -1.
</event>
<event>
 7    1  0.2490079E-009  0.1603352E+03  0.7561462E-02  0.1188319E+00
         -2   -1    0    0    0  501 -0.00000000000E+00  0.00000000000E+00  0.44927673099E+02  0.44927673099E+02  0.00000000000E+00 0.  1.
          2   -1    0    0  501    0  0.00000000000E+00 -0.00000000000E+00 -0.65797183070E+03  0.65797183070E+03  0.00000000000E+00 0. -1.
         25    2    1    2    0    0  0.94312347869E+02 -0.93673115854E+02 -0.30011083636E+03  0.35126004470E+03  0.12509050046E+03 0.  0.
          5    1    3    3  502    0 -0.95516891205E+01 -0.73799341884E+02 -0.98049839762E+02  0.12316176803E+03  0.41800000000E+01 0.  1.
         -5    1    3    3    0  502  0.10386403699E+03 -0.19873773970E+02 -0.20206099660E+03  0.22809827666E+03  0.41800000000E+01 0.  1.
        -11    1    1    2    0    0 -0.50941392410E+02  0.19820811550E+02 -0.46452505404E+02  0.71733710970E+02  0.00000000000E+00 0. -1.
         11    1    1    2    0    0 -0.43370955458E+02  0.73852304304E+02 -0.26648081584E+03  0.27990574813E+03  0.00000000000E+00 0.  1.
</event>
<event>
 7    1  0.2490079E-009  0.1280157E+03  0.7561462E-02  0.1230430E+00
          1   -1    0    0  501    0  0.00000000000E+00  0.00000000000E+00  0.85140689350E+03  0.85140689350E+03  0.00000000000E+00 0. -1.
         -1   -1    0    0    0  501 -0.00000000000E+00 -0.00000000000E+00 -0.25492291436E+02  0.25492291436E+02  0.00000000000E+00 0.  1.
         25    2    1    2    0    0 -0.44279700360E+01 -0.88248983043E+02  0.59983236717E+03  0.61907603815E+03  0.12509509335E+03 0.  0.
          5    1    3    3  502    0  0.79164268031E+01 -0.11810670644E+03  0.50833267561E+03  0.52194965793E+03  0.41800000000E+01 0.  1.
         -5    1    3    3    0  502 -0.12344396839E+02  0.29857723392E+02  0.91499691567E+02  0.97126380229E+02  0.41800000000E+01 0.  1.
        -11    1    1    2    0    0  0.23322632832E+02  0.11569656219E+02  0.10220700119E+02  0.27968998161E+02  0.00000000000E+00 0.  1.
         11    1    1    2    0    0 -0.18894662796E+02  0.76679326824E+02  0.21586153477E+03  0.22985414862E+03  0.00000000000E+00 0. -1.
</event>
<event>
 7    1  0.3339420E-009  0.1359704E+03  0.7561462E-02  0.1218856E+00
         -2   -1    0    0    0  501 -0.00000000000E+00  0.00000000000E+00  0.30267146010E+02  0.30267146010E+02  0.00000000000E+00 0.  1.
          2   -1    0    0  501    0  0.00000000000E+00 -0.00000000000E+00 -0.75372383482E+03  0.75372383482E+03  0.00000000000E+00 0. -1.
         25    2    1    2    0    0 -0.89408539764E+02  0.51948134964E+02 -0.43477421732E+03  0.46407794664E+03  0.12508886763E+03 0.  0.
          5    1    3    3  502    0 -0.73131388653E+02  0.92250924179E+02 -0.29528432595E+03  0.31791309908E+03  0.41800000000E+01 0. -1.
         -5    1    3    3    0  502 -0.16277151111E+02 -0.40302789216E+02 -0.13948989137E+03  0.14616484756E+03  0.41800000000E+01 0. -1.
        -11    1    1    2    0    0  0.22161518499E+02 -0.34500380447E+02 -0.21407850840E+03  0.21797022024E+03  0.00000000000E+00 0. -1.
         11    1    1    2    0    0  0.67247021266E+02 -0.17447754516E+02 -0.74603963092E+02  0.10194281395E+03  0.00000000000E+00 0.  1.
</event>
<event>
 7    1  0.2490079E-009  0.1255955E+03  0.7561462E-02  0.1234142E+00
          1   -1    0    0  501    0  0.00000000000E+00  0.00000000000E+00  0.40650168807E+03  0.40650168807E+03  0.00000000000E+00 0. -1.
         -1   -1    0    0    0  501 -0.00000000000E+00 -0.00000000000E+00 -0.15450779489E+03  0.15450779489E+03  0.00000000000E+00 0.  1.
         25    2    1    2    0    0  0.57794561071E+02 -0.73939005946E+02  0.35341585030E+03  0.38646880004E+03  0.12509269473E+03 0.  0.
          5    1    3    3  502    0  0.84247707645E+02 -0.52633636362E+02  0.33087403143E+03  0.34548961344E+03  0.41800000000E+01 0. -1.
         -5    1    3    3    0  502 -0.26453146573E+02 -0.21305369584E+02  0.22541818869E+02  0.40979186603E+02  0.41800000000E+01 0. -1.
        -11    1    1    2    0    0 -0.68173797960E+02  0.33816956158E+02 -0.10847000692E+03  0.13250281376E+03  0.00000000000E+00 0.  1.
         11    1    1    2    0    0  0.10379236889E+02  0.40122049788E+02  0.70480498038E+01  0.42037869162E+02  0.00000000000E+00 0. -1.
</event>
<event>
 7    1  0.2490079E-009  0.9997623E+02  0.7561462E-02  0.1280346E+00
          2   -1    0    0  501    0  0.00000000000E+00  0.00000000000E+00  0.44153971522E+03  0.44153971522E+03  0.00000000000E+00 0.  1.
         -2   -1    0    0    0  501 -0.00000000000E+00 -0.00000000000E+00 -0.33182732114E+02  0.33182732114E+02  0.00000000000E+00 0. -1.
         25    2    1    2    0    0 -0.18943698500E+02 -0.51569870163E+02  0.24038547832E+03  0.27649732735E+03  0.12508908274E+03 0.  0.
          5    1    3    3  502    0 -0.11250226391E+02  0.22973884328E+02  0.13498533394E+01  0.25954989096E+02  0.41800000000E+01 0. -1.
         -5    1    3    3    0  502 -0.76934721092E+01 -0.74543754491E+02  0.23903562498E+03  0.25054233825E+03  0.41800000000E+01 0. -1.
        -11    1    1    2    0    0 -0.27160844112E+02 -0.32407908616E+01  0.81363193469E+02  0.85838123405E+02  0.00000000000E+00 0.  1.
         11    1    1    2    0    0  0.46104542612E+02  0.54810661025E+02  0.86608311319E+02  0.11238699658E+03  0.00000000000E+00 0. -1.
</event>
<event>
 7    1  0.2490079E-009  0.2005408E+03  0.7561462E-02  0.1149284E+00
         -2   -1    0    0    0  501 -0.00000000000E+00  0.00000000000E+00  0.18622587148E+02  0.18622587148E+02  0.00000000000E+00 0.  1.
          2   -1    0    0  501    0  0.00000000000E+00 -0.00000000000E+00 -0.23033978567E+04  0.23033978567E+04  0.00000000000E+00 0. -1.
         25    2    1    2    0    0 -0.11421686567E+03 -0.13283454661E+03 -0.11637391819E+04  0.11834806163E+04  0.12508787531E+03 0.  0.
          5    1    3    3  502    0 -0.11149651014E+03 -0.55144549306E+02 -0.50289976174E+03  0.51807145824E+03  0.41800000000E+01 0. -1.
         -5    1    3    3    0  502 -0.27203555275E+01 -0.77689997299E+02 -0.66083942014E+03  0.66540915805E+03  0.41800000000E+01 0. -1.
        -11    1    1    2    0    0  0.95044959573E+02  0.38559749829E+02 -0.59657329551E+03  0.60532643719E+03  0.00000000000E+00 0. -1.
         11    1    1    2    0    0  0.19171906100E+02  0.94274796776E+02 -0.52446279221E+03  0.53321339040E+03  0.00000000000E+00 0.  1.
</event>
<event>
 7    1  0.2490079E-009  0.1655830E+03  0.7561462E-02  0.1182534E+00
         -2   -1    0    0    0  501 -0.00000000000E+00  0.00000000000E+00  0.10326736911E+03  0.10326736911E+03  0.00000000000E+00 0.  1.
          2   -1    0    0  501    0  0.00000000000E+00 -0.00000000000E+00 -0.37085206984E+03  0.37085206984E+03  0.00000000000E+00 0. -1.
         25    2    1    2    0    0 -0.66422156536E+02  0.13585542541E+03 -0.58861511926E+02  0.20489239869E+03  0.12509043914E+03 0.  0.
          5    1    3    3  502    0 -0.59287156556E+02  0.18434239416E+02  0.17426226248E+02  0.64621466066E+02  0.41800000000E+01 0. -1.
         -5    1    3    3    0  502 -0.71349999799E+01  0.11742118599E+03 -0.76287738173E+02  0.14027093262E+03  0.41800000000E+01 0. -1.
        -11    1    1    2    0    0  0.29562043822E+02 -0.59430878286E+02 -0.33080781511E+02  0.74163884973E+02  0.00000000000E+00 0. -1.
         11    1    1    2    0    0  0.36860112714E+02 -0.76424547119E+02 -0.17564240729E+03  0.19506315528E+03  0.00000000000E+00 0.  1.
</event>
<event>
 7    1  0.2490079E-009  0.1022523E+03  0.7561462E-02  0.1275630E+00
         -2   -1    0    0    0  501 -0.00000000000E+00  0.00000000000E+00  0.35180655930E+02  0.35180655930E+02  0.00000000000E+00 0.  1.
          2   -1    0    0  501    0  0.00000000000E+00 -0.00000000000E+00 -0.47353122852E+03  0.47353122852E+03  0.00000000000E+00 0. -1.
         25    2    1    2    0    0  0.51142723483E+02 -0.29800238287E+02 -0.26359305350E+03  0.29771231985E+03  0.12509074774E+03 0.  0.
          5    1    3    3  502    0  0.16331254861E+02  0.31421325815E+02 -0.19863980256E+03  0.20181489827E+03  0.41800000000E+01 0. -1.
         -5    1    3    3    0  502  0.34811468623E+02 -0.61221564102E+02 -0.64953250940E+02  0.95897421584E+02  0.41800000000E+01 0. -1.
        -11    1    1    2    0    0 -0.72232892220E+02  0.19463947963E+02 -0.66085623558E+02  0.99818563553E+02  0.00000000000E+00 0.  1.
         11    1    1    2    0    0  0.21090168736E+02  0.10336290325E+02 -0.10867189553E+03  0.11118100105E+03  0.00000000000E+00 0. -1.
</event>
<event>
 7    1  0.2490079E-009  0.1300381E+03  0.7561462E-02  0.1227399E+00
         -1   -1    0    0    0  501 -0.00000000000E+00  0.00000000000E+00  0.99475444986E+02  0.99475444986E+02  0.00000000000E+00 0.  1.
          1   -1    0    0  501    0  0.00000000000E+00 -0.00000000000E+00 -0.21835681478E+03  0.21835681478E+03  0.00000000000E+00 0. -1.
         25    2    1    2    0    0 -0.43925337539E+02  0.77138409306E+02 -0.11219948022E+03  0.19004149564E+03  0.12508907720E+03 0.  0.
          5    1    3    3  502    0  0.12742191481E+02 -0.29510793769E+02 -0.20605830434E+02  0.38409934138E+02  0.41800000000E+01 0. -1.
         -5    1    3    3    0  502 -0.56667529021E+02  0.10664920308E+03 -0.91593649785E+02  0.15163156150E+03  0.41800000000E+01 0. -1.
        -11    1    1    2    0    0  0.32697582924E+02 -0.41351694407E+01 -0.35560030762E+02  0.48484506218E+02  0.00000000000E+00 0.  1.
         11    1    1    2    0    0  0.11227754615E+02 -0.73003239866E+02  0.28878141191E+02  0.79306257907E+02  0.00000000000E+00 0. -1.
</event>
<event>
 7    1  0.2490079E-009  0.1267056E+03  0.7561462E-02  0.1232427E+00
          2   -1    0    0  501    0  0.00000000000E+00  0.00000000000E+00  0.31682401998E+03  0.31682401998E+03  0.00000000000E+00 0. -1.
         -2   -1    0    0    0  501 -0.00000000000E+00 -0.00000000000E+00 -0.10814276059E+03  0.10814276059E+03  0.00000000000E+00 0.  1.
         25    2    1    2    0    0  0.84681797753E+02  0.67613632158E+02  0.22797726870E+03  0.28171363464E+03  0.12508527801E+03 0.  0.
          5    1    3    3  502    0  0.22067318927E+02  0.75658912170E+02  0.51501361734E+02  0.94239589429E+02  0.41800000000E+01 0. -1.
         -5    1    3    3    0  502  0.62614478826E+02 -0.80452800118E+01  0.17647590697E+03  0.18747404521E+03  0.41800000000E+01 0. -1.
        -11    1    1    2    0    0 -0.34345065417E+02 -0.12420921471E+02  0.35249875746E+02  0.50758413577E+02  0.00000000000E+00 0. -1.
         11    1    1    2    0    0 -0.50336732335E+02 -0.55192710687E+02 -0.54545885062E+02  0.92494732349E+02  0.00000000000E+00 0.  1.
</event>
<event>
 7    1  0.2490079E-009  0.1189780E+03  0.7561462E-02  0.1244793E+00
          1   -1    0    0  501    0  0.00000000000E+00  0.00000000000E+00  0.32533693940E+02  0.32533693940E+02  0.00000000000E+00 0. -1.
         -1   -1    0    0    0  501 -0.00000000000E+00 -0.00000000000E+00 -0.47675511404E+03  0.47675511404E+03  0.00000000000E+00 0.  1.
         25    2    1    2    0    0 -0.13363537679E+02  0.55336959461E+02 -0.29421193551E+03  0.32472808289E+03  0.12508757571E+03 0.  0.
          5    1    3    3  502    0  0.97950045711E+01 -0.38696049196E+02 -0.97234965987E+02  0.10519238256E+03  0.41800000000E+01 0.  1.
         -5    1    3    3    0  502 -0.23158542250E+02  0.94033008656E+02 -0.19697696953E+03  0.21953570033E+03  0.41800000000E+01 0.  1.
        -11    1    1    2    0    0 -0.35374766659E+02 -0.19505654894E+02 -0.93187448650E+02  0.10156645743E+03  0.00000000000E+00 0.  1.
         11    1    1    2    0    0  0.48738304338E+02 -0.35831304567E+02 -0.56822035941E+02  0.82994267664E+02  0.00000000000E+00 0. -1.
</event>
<event>
 7    1  0.2490079E-009  0.1226888E+03  0.7561462E-02  0.1238726E+00
          2   -1    0    0  501    0  0.00000000000E+00  0.00000000000E+00  0.16021729390E+04  0.16021729390E+04  0.00000000000E+00 0.  1.
         -2   -1    0    0    0  501 -0.00000000000E+00 -0.00000000000E+00 -0.19902803949E+02  0.19902803949E+02  0.00000000000E+00 0. -1.
         25    2    1    2    0    0 -0.36223807423E+02  0.64783001969E+02  0.14073138790E+04  0.14148106835E+04  0.12509162500E+03 0.  0.
          5    1    3    3  502    0  0.41124591756E+02  0.52466813778E+02  0.68669618145E+03  0.68993703815E+03  0.41800000000E+01 0. -1.
         -5    1    3    3    0  502 -0.77348399179E+02  0.12316188190E+02  0.72061769755E+03  0.72487364538E+03  0.41800000000E+01 0. -1.
        -11    1    1    2    0    0  0.55190245728E+02 -0.57854115504E+02  0.92013443375E+02  0.12189969510E+03  0.00000000000E+00 0. -1.
         11    1    1    2    0    0 -0.18966438305E+02 -0.69288864649E+01  0.82942812671E+02  0.85365364308E+02  0.00000000000E+00 0.  1.
</event>
<event>
 7    1  0.2490079E-009  0.6854817E+02  0.7561462E-02  0.1365101E+00
          2   -1    0    0  501    0  0.00000000000E+00  0.00000000000E+00  0.15106587184E+04  0.15106587184E+04  0.00000000000E+00 0. -1.
         -2   -1    0    0    0  501 -0.00000000000E+00 -0.00000000000E+00 -0.16894081756E+02  0.16894081756E+02  0.00000000000E+00 0.  1.
         25    2    1    2    0    0  0.44538383303E+01 -0.64607346329E+02  0.12676439614E+04  0.12754459614E+04  0.12508893588E+03 0.  0.
          5    1    3    3  502    0  0.14009972923E+02 -0.58219721570E+02  0.12590913615E+04  0.12605214573E+04  0.41800000000E+01 0. -1.
         -5    1    3    3    0  502 -0.95561345930E+01 -0.63876247596E+01  0.85525998134E+01  0.14924504079E+02  0.41800000000E+01 0. -1.
        -11    1    1    2    0    0 -0.27356170664E+01  0.18745369763E+02 -0.23346895241E+01  0.19087253953E+02  0.00000000000E+00 0.  1.
         11    1    1    2    0    0 -0.17182212639E+01  0.45861976566E+02  0.22845536482E+03  0.23301958479E+03  0.00000000000E+00 0. -1.
</event>
<event>
 7    1  0.2490079E-009  0.8532412E+02  0.7561462E-02  0.1314587E+00
         -2   -1    0    0    0  501 -0.00000000000E+00  0.00000000000E+00  0.43582423908E+02  0.43582423908E+02  0.00000000000E+00 0.  1.
          2   -1    0    0  501    0  0.00000000000E+00 -0.00000000000E+00 -0.58985001791E+03  0.58985001791E+03  0.00000000000E+00 0. -1.
         25    2    1    2    0    0 -0.18213739568E+02 -0.40388759417E+02 -0.50667682028E+03  0.52376755775E+03  0.12509221459E+03 0.  0.
          5    1    3    3  502    0 -0.11687987594E+02 -0.60836280837E+02 -0.49518968277E+03  0.49906708611E+03  0.41800000000E+01 0.  1.
         -5    1    3    3    0  502 -0.65257519740E+01  0.20447521420E+02 -0.11487137508E+02  0.24700471639E+02  0.41800000000E+01 0.  1.
        -11    1    1    2    0    0  0.11723753090E+02 -0.21486567875E+02  0.13432555855E+02  0.27920468162E+02  0.00000000000E+00 0.  1.
         11    1    1    2    0    0  0.64899864778E+01  0.61875327292E+02 -0.53023329584E+02  0.81744415908E+02  0.00000000000E+00 0. -1.
</event>
<event>
 7    1  0.2490079E-009  0.1028689E+03  0.7561462E-02  0.1274376E+00
         -2   -1    0    0    0  501 -0.00000000000E+00  0.00000000000E+00  0.64595287473E+02  0.64595287473E+02  0.00000000000E+00 0.  1.
          2   -1    0    0  501    0  0.00000000000E+00 -0.00000000000E+00 -0.23903065384E+03  0.23903065384E+03  0.00000000000E+00 0. -1.
         25    2    1    2    0    0 -0.36909774312E+02 -0.46276649954E+02 -0.76883767135E+02  0.15829905719E+03  0.12507445018E+03 0.  0.
          5    1    3    3  502    0 -0.64986271033E+02 -0.27642890402E+02  0.37124181176E+01  0.70842072674E+02  0.41800000000E+01 0.  1.
         -5    1    3    3    0  502  0.28076496721E+02 -0.18633759552E+02 -0.80596185252E+02  0.87456984515E+02  0.41800000000E+01 0.  1.
        -11    1    1    2    0    0  0.38723036590E+02  0.68528309194E+02 -0.51256868553E+02  0.93930129872E+02  0.00000000000E+00 0.  1.
         11    1    1    2    0    0 -0.18132622782E+01 -0.22251659241E+02 -0.46294730674E+02  0.51396754248E+02  0.00000000000E+00 0. -1.
</event>
<event>
 7    1  0.2490079E-009  0.1052388E+03  0.7561462E-02  0.1269650E+00
         -1   -1    0    0    0  501 -0.00000000000E+00  0.00000000000E+00  0.30641828661E+02  0.30641828661E+02  0.00000000000E+00 0.  1.
          1   -1    0    0  501    0  0.00000000000E+00 -0.00000000000E+00 -0.55208299199E+03  0.55208299199E+03  0.00000000000E+00 0. -1.
         25    2    1    2    0    0  0.12552919426E+02 -0.91406900838E+00 -0.44389043223E+03  0.46135018352E+03  0.12508742826E+03 0.  0.
          5    1    3    3  502    0  0.47843695432E+02 -0.46823953317E+02 -0.21557218342E+03  0.22576611894E+03  0.41800000000E+01 0. -1.
         -5    1    3    3    0  502 -0.35290776006E+02  0.45909884309E+02 -0.22831824880E+03  0.23558406458E+03  0.41800000000E+01 0. -1.
        -11    1    1    2    0    0 -0.41990668741E+02 -0.22585127621E+02 -0.18106888935E+02  0.51001604660E+02  0.00000000000E+00 0.  1.
         11    1    1    2    0    0  0.29437749315E+02  0.23499196630E+02 -0.59443842166E+02  0.70373032466E+02  0.00000000000E+00 0. -1.
</event>
<event>
 7    1  0.2490079E-009  0.1332951E+03  0.7561462E-02  0.1222647E+00
          2   -1    0    0  501    0  0.00000000000E+00  0.00000000000E+00  0.14121431107E+02  0.14121431107E+02  0.00000000000E+00 0. -1.
         -2   -1    0    0    0  501 -0.00000000000E+00 -0.00000000000E+00 -0.13615717443E+04  0.13615717443E+04  0.00000000000E+00 0.  1.
         25    2    1    2    0    0  0.66304818570E+02 -0.46602120419E+02 -0.88618449668E+03  0.89863106120E+03  0.12508691144E+03 0.  0.
          5    1    3    3  502    0 -0.32351719715E+02  0.63504816645E+01 -0.12952256505E+03  0.13371809767E+03  0.41800000000E+01 0.  1.
         -5    1    3    3    0  502  0.98656538285E+02 -0.52952602083E+02 -0.75666193163E+03  0.76491296354E+03  0.41800000000E+01 0.  1.
        -11    1    1    2    0    0 -0.74480220215E+02  0.49321707143E+00 -0.26318654623E+03  0.27352276794E+03  0.00000000000E+00 0.  1.
         11    1    1    2    0    0  0.81754016457E+01  0.46108903348E+02 -0.19807927026E+03  0.20353934623E+03  0.00000000000E+00 0. -1.
</event>
<event>
 7    1  0.2490079E-009  0.1032942E+03  0.7561462E-02  0.1273517E+00
         -1   -1    0    0    0  501 -0.00000000000E+00  0.00000000000E+00  0.77909300208E+03  0.77909300208E+03  0.00000000000E+00 0.  1.
          1   -1    0    0  501    0  0.00000000000E+00 -0.00000000000E+00 -0.15485131795E+02  0.15485131795E+02  0.00000000000E+00 0. -1.
         25    2    1    2    0    0  0.96914247905E+01 -0.76867206666E+01  0.37031835394E+03  0.39107152542E+03  0.12509294681E+03 0.  0.
          5    1    3    3  502    0 -0.16377218632E+02  0.50782750503E+02  0.10198874371E+03  0.11517932663E+03  0.41800000000E+01 0.  1.
         -5    1    3    3    0  502  0.26068643422E+02 -0.58469471170E+02  0.26832961023E+03  0.27589219879E+03  0.41800000000E+01 0.  1.
        -11    1    1    2    0    0  0.27937970984E+02  0.33244296417E+02  0.15791179988E+03  0.16377377692E+03  0.00000000000E+00 0. -1.
         11    1    1    2    0    0 -0.37629395775E+02 -0.25557575751E+02  0.23537771647E+03  0.23973283154E+03  0.00000000000E+00 0.  1.
</event>
<event>
 7    1  0.2490079E-009  0.1191863E+03  0.7561462E-02  0.1244446E+00
         -1   -1    0    0    0  501 -0.00000000000E+00  0.00000000000E+00  0.85230591486E+02  0.85230591486E+02  0.00000000000E+00 0.  1.
          1   -1    0    0  501    0  0.00000000000E+00 -0.00000000000E+00 -0.19195065329E+03  0.19195065329E+03  0.00000000000E+00 0. -1.
         25    2    1    2    0    0  0.10800216246E+02  0.66601475132E+02 -0.69976547650E+02  0.15841932421E+03  0.12509022304E+03 0.  0.
          5    1    3    3  502    0 -0.55428610045E+02  0.16729303713E+02 -0.38421147278E+02  0.69612192700E+02  0.41800000000E+01 0. -1.
         -5    1    3    3    0  502  0.66228826291E+02  0.49872171418E+02 -0.31555400372E+02  0.88807131507E+02  0.41800000000E+01 0. -1.
        -11    1    1    2    0    0 -0.22980943497E+02  0.59550184962E+01  0.15655810510E+02  0.28437482519E+02  0.00000000000E+00 0.  1.
         11    1    1    2    0    0  0.12180727251E+02 -0.72556493628E+02 -0.52399324665E+02  0.90324438051E+02  0.00000000000E+00 0. -1.
</event>
<event>
 7    1  0.2490079E-009  0.8389823E+02  0.7561462E-02  0.1318339E+00
         -1   -1    0    0    0  501 -0.00000000000E+00  0.00000000000E+00  0.71176376046E+02  0.71176376046E+02  0.00000000000E+00 0.  1.
          1   -1    0    0  501    0  0.00000000000E+00 -0.00000000000E+00 -0.12240616476E+03  0.12240616476E+03  0.00000000000E+00 0. -1.
         25    2    1    2    0    0  0.21334942774E+02  0.15780977586E+00 -0.70076021386E+02  0.14495991673E+03  0.12509006355E+03 0.  0.
          5    1    3    3  502    0 -0.28465726293E+02  0.48363107930E+02 -0.41273912643E+02  0.69787506381E+02  0.41800000000E+01 0.  1.
         -5    1    3    3    0  502  0.49800669067E+02 -0.48205298154E+02 -0.28802108743E+02  0.75172410349E+02  0.41800000000E+01 0.  1.
        -11    1    1    2    0    0 -0.55703873746E+01  0.17529700796E+02  0.16680527697E+02  0.24830618795E+02  0.00000000000E+00 0.  1.
         11    1    1    2    0    0 -0.15764555400E+02 -0.17687510572E+02  0.21657049769E+01  0.23792005280E+02  0.00000000000E+00 0. -1.
</event>
<event>
 7    1  0.2490079E-009  0.1163588E+03  0.7561462E-02  0.1249228E+00
         -2   -1    0    0    0  501 -0.00000000000E+00  0.00000000000E+00  0.96953587236E+02  0.96953587236E+02  0.00000000000E+00 0.  1.
          2   -1    0    0  501    0  0.00000000000E+00 -0.00000000000E+00 -0.22626404985E+03  0.22626404985E+03  0.00000000000E+00 0. -1.
         25    2    1    2    0    0 -0.43019210363E+02 -0.90491258472E+02 -0.73469074427E+02  0.17631082299E+03  0.12509388908E+03 0.  0.
          5    1    3    3  502    0 -0.47095039376E+01 -0.16311237925E+02  0.35144490470E+02  0.39253579714E+02  0.41800000000E+01 0. -1.
         -5    1    3    3    0  502 -0.38309706425E+02 -0.74180020547E+02 -0.10861356490E+03  0.13705724328E+03  0.41800000000E+01 0. -1.
        -11    1    1    2    0    0 -0.25186102875E+02  0.37936011498E+02 -0.37219793205E+02  0.58811510375E+02  0.00000000000E+00 0.  1.
         11    1    1    2    0    0  0.68205313237E+02  0.52555246974E+02 -0.18621594985E+02  0.88095303723E+02  0.00000000000E+00 0. -1.
</event>
<event>
 7    1  0.2490079E-009  0.1012347E+03  0.7561462E-02  0.1277721E+00
          2   -1    0    0  501    0  0.00000000000E+00  0.00000000000E+00  0.80414405596E+03  0.80414405596E+03  0.00000000000E+00 0. -1.
         -2   -1    0    0    0  501 -0.00000000000E+00 -0.00000000000E+00 -0.20632236865E+02  0.20632236865E+02  0.00000000000E+00 0.  1.
         25    2    1    2    0    0  0.49029852022E+02 -0.36833552830E+02  0.53171613330E+03  0.54966378344E+03  0.12509033299E+03 0.  0.
          5    1    3    3  502    0  0.68047361460E+01 -0.54774245883E+02  0.90761483421E+02  0.10630917984E+03  0.41800000000E+01 0.  1.
         -5    1    3    3    0  502  0.42225115876E+02  0.17940693053E+02  0.44095464988E+03  0.44335460360E+03  0.41800000000E+01 0.  1.
        -11    1    1    2    0    0  0.22459191316E+02  0.64268978022E+01  0.20366331055E+02  0.30992059154E+02  0.00000000000E+00 0.  1.
         11    1    1    2    0    0 -0.71489043339E+02  0.30406655028E+02  0.23142935474E+03  0.24412045023E+03  0.00000000000E+00 0. -1.
</event>
<event>
 7    1  0.2490079E-009  0.1171439E+03  0.7561462E-02  0.1247885E+00
          1   -1    0    0  501    0  0.00000000000E+00  0.00000000000E+00  0.67609112424E+03  0.67609112424E+03  0.00000000000E+00 0. -1.
         -1   -1    0    0    0  501 -0.00000000000E+00 -0.00000000000E+00 -0.45208755596E+02  0.45208755596E+02  0.00000000000E+00 0.  1.
         25    2    1    2    0    0 -0.70261612306E+02  0.81429226973E+01  0.95024825396E+02  0.17228701212E+03  0.12510034272E+03 0.  0.
          5    1    3    3  502    0 -0.94357758850E+02 -0.42507126787E+01  0.10663496565E+03  0.14251295910E+03  0.41800000000E+01 0. -1.
         -5    1    3    3    0  502  0.24096146544E+02  0.12393635376E+02 -0.11610140253E+02  0.29774053012E+02  0.41800000000E+01 0. -1.
        -11    1    1    2    0    0 -0.12033645696E+02 -0.25519992357E+02  0.67447830604E+02  0.73111479891E+02  0.00000000000E+00 0.  1.
         11    1    1    2    0    0  0.82295258003E+02  0.17377069660E+02  0.46840971264E+03  0.47590138783E+03  0.00000000000E+00 0. -1.
</event>
<event>
 7    1  0.2490079E-009  0.1217640E+03  0.7561462E-02  0.1240215E+00
          1   -1    0    0  501    0  0.00000000000E+00  0.00000000000E+00  0.11102727204E+03  0.11102727204E+03  0.00000000000E+00 0. -1.
         -1   -1    0    0    0  501 -0.00000000000E+00 -0.00000000000E+00 -0.17217572127E+03  0.17217572127E+03  0.00000000000E+00 0.  1.
         25    2    1    2    0    0  0.80625175581E+02 -0.23153887778E+02 -0.32279129444E+02  0.15402937251E+03  0.12508630597E+03 0.  0.
          5    1    3    3  502    0  0.96253634715E+01 -0.54079827068E+02 -0.50088395512E+02  0.74455322728E+02  0.41800000000E+01 0.  1.
         -5    1    3    3    0  502  0.70999812109E+02  0.30925939289E+02  0.17809266068E+02  0.79574049780E+02  0.41800000000E+01 0.  1.
        -11    1    1    2    0    0 -0.85874898811E+02 -0.12880795032E+01 -0.47361730890E+02  0.98077984010E+02  0.00000000000E+00 0.  1.
         11    1    1    2    0    0  0.52497232305E+01  0.24441967281E+02  0.18492411108E+02  0.31095636787E+02  0.00000000000E+00 0. -1.
</event>
<event>
 7    1  0.2490079E-009  0.1292684E+03  0.7561462E-02  0.1228545E+00
         -2   -1    0    0    0  501 -0.00000000000E+00  0.00000000000E+00  0.40128086660E+02  0.40128086660E+02  0.00000000000E+00 0.  1.
          2   -1    0    0  501    0  0.00000000000E+00 -0.00000000000E+00 -0.69170146842E+03  0.69170146842E+03  0.00000000000E+00 0. -1.
         25    2    1    2    0    0  0.97694859061E+02 -0.73179224212E+02 -0.37387416643E+03  0.41271187647E+03  0.12509882618E+03 0.  0.
          5    1    3    3  502    0  0.80785293708E+02 -0.67043684559E+02 -0.12559064881E+03  0.16374248925E+03  0.41800000000E+01 0. -1.
         -5    1    3    3    0  502  0.16909565352E+02 -0.61355396523E+01 -0.24828351762E+03  0.24896938722E+03  0.41800000000E+01 0. -1.
        -11    1    1    2    0    0 -0.43444692655E+02 -0.57327183538E+00 -0.18022213624E+03  0.18538551279E+03  0.00000000000E+00 0.  1.
         11    1    1    2    0    0 -0.54250166405E+02  0.73752496047E+02 -0.97477079087E+02  0.13373216582E+03  0.00000000000E+00 0. -1.
</event>
<event>
 7    1  0.2490079E-009  0.7756986E+02  0.7561462E-02  0.1336093E+00
          2   -1    0    0  501    0  0.00000000000E+00  0.00000000000E+00  0.34079917756E+03  0.34079917756E+03  0.00000000000E+00 0. -1.
         -2   -1    0    0    0  501 -0.00000000000E+00 -0.00000000000E+00 -0.37188156326E+02  0.37188156326E+02  0.00000000000E+00 0.  1.
         25    2    1    2    0    0  0.20832175766E+02 -0.46374511114E+02  0.20982134162E+03  0.24952108421E+03  0.12510476105E+03 0.  0.
          5    1    3    3  502    0  0.22375264762E+02 -0.60846923234E+02  0.34520132114E+02  0.73567060981E+02  0.41800000000E+01 0.  1.
         -5    1    3    3    0  502 -0.15430889962E+01  0.14472412119E+02  0.17530120951E+03  0.17595402323E+03  0.41800000000E+01 0.  1.
        -11    1    1    2    0    0 -0.52219455221E+01 -0.12804586334E+02  0.53341475350E+02  0.55104801413E+02  0.00000000000E+00 0. -1.
         11    1    1    2    0    0 -0.15610230243E+02  0.59179097448E+02  0.40448204262E+02  0.73361448261E+02  0.00000000000E+00 0.  1.
</event>
<event>
 7    1  0.2490079E-009  0.1054753E+03  0.7561462E-02  0.1269186E+00
          2   -1    0    0  501    0  0.00000000000E+00  0.00000000000E+00  0.67807960542E+03  0.67807960542E+03  0.00000000000E+00 0. -1.
         -2   -1    0    0    0  501 -0.00000000000E+00 -0.00000000000E+00 -0.20323326198E+02  0.20323326198E+02  0.00000000000E+00 0.  1.
         25    2    1    2    0    0 -0.40379945771E+02 -0.64686418007E+01  0.33842243661E+03  0.36311128053E+03  0.12509065954E+03 0.  0.
          5    1    3    3  502    0  0.35123494792E+02 -0.25380496969E+02  0.19576465932E+03  0.20054701132E+03  0.41800000000E+01 0. -1.
         -5    1    3    3    0  502 -0.75503440563E+02  0.18911855168E+02  0.14265777729E+03  0.16256426921E+03  0.41800000000E+01 0. -1.
        -11    1    1    2    0    0 -0.16611247320E+02  0.24580967467E+02  0.41009759145E+02  0.50615786513E+02  0.00000000000E+00 0.  1.
         11    1    1    2    0    0  0.56991193091E+02 -0.18112325666E+02  0.27832408347E+03  0.28467586457E+03  0.00000000000E+00 0. -1.
</event>
<event>
 7    1  0.2490079E-009  0.1313282E+03  0.7561462E-02  0.1225498E+00
          2   -1    0    0  501    0  0.00000000000E+00  0.00000000000E+00  0.82803612419E+03  0.82803612419E+03  0.00000000000E+00 0. -1.
         -2   -1    0    0    0  501 -0.00000000000E+00 -0.00000000000E+00 -0.22030794948E+02  0.22030794948E+02  0.00000000000E+00 0.  1.
         25    2    1    2    0    0 -0.35105605982E+02 -0.60053498507E+02  0.47139821641E+03  0.49264837340E+03  0.12508922862E+03 0.  0.
          5    1    3    3  502    0 -0.37888900433E+02 -0.97343886262E+02  0.37034739910E+03  0.38481952834E+03  0.41800000000E+01 0.  1.
         -5    1    3    3    0  502  0.27832944505E+01  0.37290387755E+02  0.10105081731E+03  0.10782884506E+03  0.41800000000E+01 0.  1.
        -11    1    1    2    0    0  0.69294375770E+02  0.47748192450E+02  0.18151199245E+03  0.20007049708E+03  0.00000000000E+00 0.  1.
         11    1    1    2    0    0 -0.34188769788E+02  0.12305306057E+02  0.15309512037E+03  0.15734804866E+03  0.00000000000E+00 0. -1.
</event>
<event>
 7    1  0.2490079E-009  0.9121518E+02  0.7561462E-02  0.1299935E+00
         -1   -1    0    0    0  501 -0.00000000000E+00  0.00000000000E+00  0.77011857604E+02  0.77011857604E+02  0.00000000000E+00 0.  1.
          1   -1    0    0  501    0  0.00000000000E+00 -0.00000000000E+00 -0.18034573475E+03  0.18034573475E+03  0.00000000000E+00 0. -1.
         25    2    1    2    0    0  0.13744755791E+02  0.27320330537E+02 -0.19161515713E+02  0.13019019104E+03  0.12508798258E+03 0.  0.
          5    1    3    3  502    0 -0.63734399081E+00  0.55451606658E+02  0.36167520632E+02  0.66338893848E+02  0.41800000000E+01 0. -1.
         -5    1    3    3    0  502  0.14382099782E+02 -0.28131276121E+02 -0.55329036345E+02  0.63851297193E+02  0.41800000000E+01 0. -1.
        -11    1    1    2    0    0 -0.45975779124E+02 -0.39379072497E+02 -0.48151418662E+02  0.77350130807E+02  0.00000000000E+00 0.  1.
         11    1    1    2    0    0  0.32231023332E+02  0.12058741960E+02 -0.36020942775E+02  0.49817270510E+02  0.00000000000E+00 0. -1.
</event>
<event>
 7    1  0.2490079E-009  0.1079370E+03  0.7561462E-02  0.1264439E+00
         -1   -1    0    0    0  501 -0.00000000000E+00  0.00000000000E+00  0.19926417898E+02  0.19926417898E+02  0.00000000000E+00 0.  1.
          1   -1    0    0  501    0  0.00000000000E+00 -0.00000000000E+00 -0.67419308242E+03  0.67419308242E+03  0.00000000000E+00 0. -1.
         25    2    1    2    0    0  0.45268636751E+02 -0.71400445601E+01 -0.41419632246E+03  0.43509387409E+03  0.12509139067E+03 0.  0.
          5    1    3    3  502    0 -0.39948100875E+02 -0.18019111210E+02 -0.98486458266E+02  0.10787768070E+03  0.41800000000E+01 0.  1.
         -5    1    3    3    0  502  0.85216737626E+02  0.10879066650E+02 -0.31570986420E+03  0.32721619338E+03  0.41800000000E+01 0.  1.
        -11    1    1    2    0    0 -0.23625334487E+02  0.40022396995E+02 -0.18851493964E+03  0.19415929326E+03  0.00000000000E+00 0. -1.
         11    1    1    2    0    0 -0.21643302264E+02 -0.32882352435E+02 -0.51555402422E+02  0.64866332974E+02  0.00000000000E+00 0.  1.
</event>
<event>
 7    1  0.2490079E-009  0.1134545E+03  0.7561462E-02  0.1254303E+00
          1   -1    0    0  501    0  0.00000000000E+00  0.00000000000E+00  0.16576426866E+03  0.16576426866E+03  0.00000000000E+00 0. -1.
         -1   -1    0    0    0  501 -0.00000000000E+00 -0.00000000000E+00 -0.10426250007E+03  0.10426250007E+03  0.00000000000E+00 0.  1.
         25    2    1    2    0    0  0.63098688822E+02  0.12340703081E+02 -0.22966337086E+01  0.14066007810E+03  0.12508495338E+03 0.  0.
          5    1    3    3  502    0  0.39481444287E+02  0.68610767421E+02  0.24521243211E+01  0.79307674048E+02  0.41800000000E+01 0.  1.
         -5    1    3    3    0  502  0.23617244535E+02 -0.56270064340E+02 -0.47487580297E+01  0.61352404053E+02  0.41800000000E+01 0.  1.
        -11    1    1    2    0    0 -0.43138755555E+01  0.19255449547E+02  0.59277540841E+02  0.62475664924E+02  0.00000000000E+00 0. -1.
         11    1    1    2    0    0 -0.58784813266E+02 -0.31596152628E+02  0.45208614656E+01  0.66891025706E+02  0.00000000000E+00 0.  1.
</event>
<event>
 7    1  0.2490079E-009  0.9155096E+02  0.7561462E-02  0.1299139E+00
          2   -1    0    0  501    0  0.00000000000E+00  0.00000000000E+00  0.67161591484E+03  0.67161591484E+03  0.00000000000E+00 0. -1.
         -2   -1    0    0    0  501 -0.00000000000E+00 -0.00000000000E+00 -0.23881755113E+02  0.23881755113E+02  0.00000000000E+00 0.  1.
         25    2    1    2    0    0  0.21668118840E+02  0.57111963866E+02  0.43025530563E+03  0.45221469524E+03  0.12508884353E+03 0.  0.
          5    1    3    3  502    0  0.48034118175E+02  0.25399502497E+02  0.65923975102E+02  0.85532766407E+02  0.41800000000E+01 0. -1.
         -5    1    3    3    0  502 -0.26365999335E+02  0.31712461369E+02  0.36433133053E+03  0.36668192884E+03  0.41800000000E+01 0. -1.
        -11    1    1    2    0    0  0.16292346503E+02 -0.44117480742E+02  0.18719965789E+03  0.19301685050E+03  0.00000000000E+00 0. -1.
         11    1    1    2    0    0 -0.37960465343E+02 -0.12994483124E+02  0.30279196203E+02  0.50266124213E+02  0.00000000000E+00 0.  1.
</event>
<event>
 7    1  0.2490079E-009  0.1103304E+03  0.7561462E-02  0.1259959E+00
         -2   -1    0    0    0  501 -0.00000000000E+00  0.00000000000E+00  0.10198095549E+03  0.10198095549E+03  0.00000000000E+00 0.  1.
          2   -1    0    0  501    0  0.00000000000E+00 -0.00000000000E+00 -0.21484788243E+03  0.21484788243E+03  0.00000000000E+00 0. -1.
         25    2    1    2    0    0 -0.33526818808E+02  0.39496525224E+02  0.30703548087E+02  0.13883069825E+03  0.12508889569E+03 0.  0.
          5    1    3    3  502    0  0.36273612633E+02 -0.10129371365E+02 -0.16067732242E+02  0.41158517431E+02  0.41800000000E+01 0.  1.
         -5    1    3    3    0  502 -0.69800431441E+02  0.49625896589E+02  0.46771280329E+02  0.97672180815E+02  0.41800000000E+01 0.  1.
        -11    1    1    2    0    0  0.59401189812E+02 -0.39156789307E+02 -0.13135086240E+03  0.14938140632E+03  0.00000000000E+00 0. -1.
         11    1    1    2    0    0 -0.25874371004E+02 -0.33973591668E+00 -0.12219612621E+02  0.28616733355E+02  0.00000000000E+00 0.  1.
</event>
<event>
 7    1  0.2490079E-009  0.1114209E+03  0.7561462E-02  0.1257961E+00
         -2   -1    0    0    0  501 -0.00000000000E+00  0.00000000000E+00  0.15645110852E+03  0.15645110852E+03  0.00000000000E+00 0.  1.
          2   -1    0    0  501    0  0.00000000000E+00 -0.00000000000E+00 -0.99224344789E+02  0.99224344789E+02  0.00000000000E+00 0. -1.
         25    2    1    2    0    0 -0.38157675519E+02  0.18614928519E+02 -0.12376853740E+02  0.13267788685E+03  0.12509081256E+03 0.  0.
          5    1    3    3  502    0 -0.46436891710E+02 -0.46578637657E+02 -0.10980166798E+02  0.66813103958E+02  0.41800000000E+01 0. -1.
         -5    1    3    3    0  502  0.82792161911E+01  0.65193566176E+02 -0.13966869422E+01  0.65864782896E+02  0.41800000000E+01 0. -1.
        -11    1    1    2    0    0  0.19921544496E+02 -0.50537890376E+02  0.66837708694E+02  0.86129121685E+02  0.00000000000E+00 0. -1.
         11    1    1    2    0    0  0.18236131023E+02  0.31922961856E+02  0.27659087775E+01  0.36868444770E+02  0.00000000000E+00 0.  1.
</event>
<event>
 7    1  0.2490079E-009  0.1063826E+03  0.7561462E-02  0.1267419E+00
          1   -1    0    0  501    0  0.00000000000E+00  0.00000000000E+00  0.49233027353E+03  0.49233027353E+03  0.00000000000E+00 0. -1.
         -1   -1    0    0    0  501 -0.00000000000E+00 -0.00000000000E+00 -0.28446073371E+02  0.28446073371E+02  0.00000000000E+00 0.  1.
         25    2    1    2    0    0 -0.90860931290E+01  0.12809243890E+02  0.16950139105E+03  0.21125263117E+03  0.12510123417E+03 0.  0.
          5    1    3    3  502    0 -0.53153102882E+02 -0.26758581433E+02  0.50090304605E+02  0.77895988611E+02  0.41800000000E+01 0. -1.
         -5    1    3    3    0  502  0.44067009753E+02  0.39567825322E+02  0.11941108645E+03  0.13335664256E+03  0.41800000000E+01 0. -1.
        -11    1    1    2    0    0 -0.27994834109E+02 -0.39239419420E+02  0.12065391587E+03  0.12992617207E+03  0.00000000000E+00 0.  1.
         11    1    1    2    0    0  0.37080927238E+02  0.26430175531E+02  0.17372889324E+03  0.17959754366E+03  0.00000000000E+00 0. -1.
</event>
<event>
 7    1  0.2490079E-009  0.6264466E+02  0.7561462E-02  0.1387057E+00
         -1   -1    0    0    0  501 -0.00000000000E+00  0.00000000000E+00  0.43733758402E+02  0.43733758402E+02  0.00000000000E+00 0.  1.
          1   -1    0    0  501    0  0.00000000000E+00 -0.00000000000E+00 -0.31325740447E+03  0.31325740447E+03  0.00000000000E+00 0. -1.
         25    2    1    2    0    0 -0.13910006545E+02 -0.11740602709E+02 -0.21275096627E+03  0.24747020709E+03  0.12508876734E+03 0.  0.
          5    1    3    3  502    0 -0.21792632136E+02 -0.26637695298E+02 -0.22407385543E+03  0.22674005097E+03  0.41800000000E+01 0. -1.
         -5    1    3    3    0  502  0.78826255910E+01  0.14897092590E+02  0.11322889160E+02  0.20730156120E+02  0.41800000000E+01 0. -1.
        -11    1    1    2    0    0  0.87611409240E+01 -0.29971981350E+02  0.80666876912E+01  0.32251336510E+02  0.00000000000E+00 0.  1.
         11    1    1    2    0    0  0.51488656206E+01  0.41712584059E+02 -0.64839367490E+02  0.77269619273E+02  0.00000000000E+00 0. -1.
</event>
<event>
 7    1  0.2490079E-009  0.1114551E+03  0.7561462E-02  0.1257899E+00
          1   -1    0    0  501    0  0.00000000000E+00  0.00000000000E+00  0.42465389328E+02  0.42465389328E+02  0.00000000000E+00 0. -1.
         -1   -1    0    0    0  501 -0.00000000000E+00 -0.00000000000E+00 -0.38607757576E+03  0.38607757576E+03  0.00000000000E+00 0.  1.
         25    2    1    2    0    0  0.36848210966E+01  0.60017098764E+02 -0.24157727494E+03  0.27860978302E+03  0.12509277108E+03 0.  0.
          5    1    3    3  502    0  0.54566389031E+02  0.37065028812E+02 -0.19465030393E+03  0.20556634061E+03  0.41800000000E+01 0. -1.
         -5    1    3    3    0  502 -0.50881567935E+02  0.22952069952E+02 -0.46926971016E+02  0.73043442411E+02  0.41800000000E+01 0. -1.
        -11    1    1    2    0    0 -0.42002289546E+02 -0.24693110995E+02 -0.19837384234E+02  0.52606690363E+02  0.00000000000E+00 0.  1.
         11    1    1    2    0    0  0.38317468450E+02 -0.35323987770E+02 -0.82197527256E+02  0.97326491704E+02  0.00000000000E+00 0. -1.
</event>
<event>
 7    1  0.2490079E-009  0.8725576E+02  0.7561462E-02  0.1309637E+00
         -1   -1    0    0    0  501 -0.00000000000E+00  0.00000000000E+00  0.65251642262E+02  0.65251642262E+02  0.00000000000E+00 0.  1.
          1   -1    0    0  501    0  0.00000000000E+00 -0.00000000000E+00 -0.18351729292E+03  0.18351729292E+03  0.00000000000E+00 0. -1.
         25    2    1    2    0    0  0.35646641809E+01 -0.18408860371E+01 -0.76228857618E+02  0.14654080505E+03  0.12508906075E+03 0.  0.
          5    1    3    3  502    0 -0.55985387575E-01  0.39728839567E+02  0.17686195931E+02  0.43688187811E+02  0.41800000000E+01 0. -1.
         -5    1    3    3    0  502  0.36206495684E+01 -0.41569725604E+02 -0.93915053549E+02  0.10285261724E+03  0.41800000000E+01 0. -1.
        -11    1    1    2    0    0 -0.46406650036E+02  0.13308352339E+02 -0.16319015346E+02  0.50960766001E+02  0.00000000000E+00 0.  1.
         11    1    1    2    0    0  0.42841985855E+02 -0.11467466302E+02 -0.25717777699E+02  0.51267364133E+02  0.00000000000E+00 0. -1.
</event>
<event>
 7    1  0.2490079E-009  0.1090822E+03  0.7561462E-02  0.1262279E+00
          2   -1    0    0  501    0  0.00000000000E+00  0.00000000000E+00  0.49648929421E+02  0.49648929421E+02  0.00000000000E+00 0.  1.
         -2   -1    0    0    0  501 -0.00000000000E+00 -0.00000000000E+00 -0.26012305181E+03  0.26012305181E+03  0.00000000000E+00 0. -1.
         25    2    1    2    0    0 -0.16866566505E+02  0.24233571557E+02 -0.13528774669E+03  0.18661938254E+03  0.12510904235E+03 0.  0.
          5    1    3    3  502    0  0.50488894713E+02  0.32420799118E+02 -0.71045258477E+02  0.93086722237E+02  0.41800000000E+01 0. -1.
         -5    1    3    3    0  502 -0.67355461217E+02 -0.81872275609E+01 -0.64242488216E+02  0.93532660302E+02  0.41800000000E+01 0. -1.
        -11    1    1    2    0    0  0.16197616729E+02  0.30906142955E+02 -0.72250813553E+01  0.35633611389E+02  0.00000000000E+00 0.  1.
         11    1    1    2    0    0  0.66894977577E+00 -0.55139714511E+02 -0.67961294342E+02  0.87518987305E+02  0.00000000000E+00 0. -1.
</event>
<event>
 7    1  0.2490079E-009  0.8871007E+02  0.7561462E-02  0.1306006E+00
          2   -1    0    0  501    0  0.00000000000E+00  0.00000000000E+00  0.42300289052E+03  0.42300289052E+03  0.00000000000E+00 0. -1.
         -2   -1    0    0    0  501 -0.00000000000E+00 -0.00000000000E+00 -0.36765877282E+02  0.36765877282E+02  0.00000000000E+00 0.  1.
         25    2    1    2    0    0 -0.53451914800E+02 -0.31246292362E+02  0.20776455299E+03  0.25029450280E+03  0.12509112946E+03 0.  0.
          5    1    3    3  502    0 -0.46013392712E+02 -0.36619308970E+02  0.22375441204E+03  0.23139082826E+03  0.41800000000E+01 0.  1.
         -5    1    3    3    0  502 -0.74385220879E+01  0.53730166074E+01 -0.15989859051E+02  0.18903674531E+02  0.41800000000E+01 0.  1.
        -11    1    1    2    0    0  0.77940077923E+02  0.31038061344E+02  0.15044910608E+03  0.17225838302E+03  0.00000000000E+00 0. -1.
         11    1    1    2    0    0 -0.24488163124E+02  0.20823101822E+00  0.28023354164E+02  0.37215881985E+02  0.00000000000E+00 0.  1.
</event>
<event>
 7    1  0.2490079E-009  0.1053910E+03  0.7561462E-02  0.1269351E+00
         -2   -1    0    0    0  501 -0.00000000000E+00  0.00000000000E+00  0.28030886003E+03  0.28030886003E+03  0.00000000000E+00 0.  1.
          2   -1    0    0  501    0  0.00000000000E+00 -0.00000000000E+00 -0.31099069131E+03  0.31099069131E+03  0.00000000000E+00 0. -1.
         25    2    1    2    0    0  0.32287881121E+02 -0.57942682061E+02 -0.28187617980E+03  0.31543899645E+03  0.12509083927E+03 0.  0.
          5    1    3    3  502    0 -0.38025109067E+02  0.13982669250E+02 -0.88731538232E+02  0.97632895255E+02  0.41800000000E+01 0. -1.
         -5    1    3    3    0  502  0.70312990188E+02 -0.71925351311E+02 -0.19314464157E+03  0.21780610120E+03  0.41800000000E+01 0. -1.
        -11    1    1    2    0    0 -0.64112498986E+00  0.19840167403E+02  0.21476938158E-01  0.19850535134E+02  0.00000000000E+00 0. -1.
         11    1    1    2    0    0 -0.31646756131E+02  0.38102514657E+02  0.25117287159E+03  0.25601001976E+03  0.00000000000E+00 0.  1.
</event>
<event>
 7    1  0.2490079E-009  0.1000351E+03  0.7561462E-02  0.1280222E+00
          2   -1    0    0  501    0  0.00000000000E+00  0.00000000000E+00  0.45180860946E+02  0.45180860946E+02  0.00000000000E+00 0. -1.
         -2   -1    0    0    0  501 -0.00000000000E+00 -0.00000000000E+00 -0.27721090101E+03  0.27721090101E+03  0.00000000000E+00 0.  1.
         25    2    1    2    0    0  0.24688427756E+02 -0.10596806537E+02 -0.15260969826E+03  0.19914490716E+03  0.12508862166E+03 0.  0.
          5    1    3    3  502    0 -0.28063541610E+02 -0.38652736245E+02 -0.12364028088E+03  0.13261217080E+03  0.41800000000E+01 0.  1.
         -5    1    3    3    0  502  0.52751969366E+02  0.28055929709E+02 -0.28969417380E+02  0.66532736357E+02  0.41800000000E+01 0.  1.
        -11    1    1    2    0    0 -0.24912167056E+02  0.48393595540E+02 -0.34081253148E+02  0.64219062380E+02  0.00000000000E+00 0. -1.
         11    1    1    2    0    0  0.22373930022E+00 -0.37796789004E+02 -0.45339088653E+02  0.59027792421E+02  0.00000000000E+00 0.  1.
</event>
<event>
 7    1  0.2490079E-009  0.6987712E+02  0.7561462E-02  0.1360511E+00
         -1   -1    0    0    0  501 -0.00000000000E+00  0.00000000000E+00  0.27755914834E+03  0.27755914834E+03  0.00000000000E+00 0.  1.
          1   -1    0    0  501    0  0.00000000000E+00 -0.00000000000E+00 -0.54827123644E+02  0.54827123644E+02  0.00000000000E+00 0. -1.
         25    2    1    2    0    0 -0.54611635903E+02 -0.89241618399E+01  0.93486527881E+02  0.16567879791E+03  0.12509061412E+03 0.  0.
          5    1    3    3  502    0 -0.53601353257E+02  0.74304330296E+01  0.12143519925E+03  0.13301239199E+03  0.41800000000E+01 0. -1.
         -5    1    3    3    0  502 -0.10102826455E+01 -0.16354594870E+02 -0.27948671368E+02  0.32666405919E+02  0.41800000000E+01 0. -1.
        -11    1    1    2    0    0  0.42113877652E+02 -0.12356705548E+02  0.10104720555E+02  0.45037453751E+02  0.00000000000E+00 0. -1.
         11    1    1    2    0    0  0.12497758251E+02  0.21280867388E+02  0.11914077626E+03  0.12167002032E+03  0.00000000000E+00 0.  1.
</event>
<event>
 7    1  0.2490079E-009  0.1510151E+03  0.7561462E-02  0.1199231E+00
          2   -1    0    0  501    0  0.00000000000E+00  0.00000000000E+00  0.20612813745E+03  0.20612813745E+03  0.00000000000E+00 0.  1.
         -2   -1    0    0    0  501 -0.00000000000E+00 -0.00000000000E+00 -0.14395891290E+03  0.14395891290E+03  0.00000000000E+00 0. -1.
         25    2    1    2    0    0  0.12136795577E+03 -0.56209456546E+02  0.25265875304E+02  0.18486716773E+03  0.12509125291E+03 0.  0.
          5    1    3    3  502    0  0.46809643337E+02 -0.57690754247E+02  0.66287210426E+02  0.99653562410E+02  0.41800000000E+01 0. -1.
         -5    1    3    3    0  502  0.74558312433E+02  0.14812977012E+01 -0.41021335121E+02  0.85213605316E+02  0.41800000000E+01 0. -1.
        -11    1    1    2    0    0 -0.15162726461E+02 -0.17874093653E+02  0.26399827155E+02  0.35303574486E+02  0.00000000000E+00 0.  1.
         11    1    1    2    0    0 -0.10620522931E+03  0.74083550199E+02  0.10503522088E+02  0.12991630813E+03  0.00000000000E+00 0. -1.
</event>
<event>
 7    1  0.2490079E-009  0.9984181E+02  0.7561462E-02  0.1280629E+00
          1   -1    0    0  501    0  0.00000000000E+00  0.00000000000E+00  0.13711173637E+03  0.13711173637E+03  0.00000000000E+00 0. -1.
         -1   -1    0    0    0  501 -0.00000000000E+00 -0.00000000000E+00 -0.10598498142E+03  0.10598498142E+03  0.00000000000E+00 0.  1.
         25    2    1    2    0    0  0.53151036583E+02  0.10659146908E+01  0.31798792204E+02  0.13959360643E+03  0.12509613466E+03 0.  0.
          5    1    3    3  502    0  0.78154116259E+02 -0.43238354575E+00 -0.20974155752E+02  0.81028639710E+02  0.41800000000E+01 0. -1.
         -5    1    3    3    0  502 -0.25003079676E+02  0.14982982365E+01  0.52772947956E+02  0.58564966720E+02  0.41800000000E+01 0. -1.
        -11    1    1    2    0    0  0.17619378432E+02 -0.15878251487E+02  0.16864663605E+02  0.29102890666E+02  0.00000000000E+00 0. -1.
         11    1    1    2    0    0 -0.70770415015E+02  0.14812336796E+02 -0.17536700852E+02  0.74400220695E+02  0.00000000000E+00 0.  1.
</event>
<event>
 7    1  0.2490079E-009  0.1065292E+03  0.7561462E-02  0.1267136E+00
          1   -1    0    0  501    0  0.00000000000E+00  0.00000000000E+00  0.35921997514E+02  0.35921997514E+02  0.00000000000E+00 0.  1.
         -1   -1    0    0    0  501 -0.00000000000E+00 -0.00000000000E+00 -0.62636938169E+03  0.62636938169E+03  0.00000000000E+00 0. -1.
         25    2    1    2    0    0 -0.10199190208E+03  0.79383194501E+01 -0.29434374164E+03  0.33578309156E+03  0.12508669526E+03 0.  0.
          5    1    3    3  502    0 -0.52824756882E+02  0.17017504762E+02 -0.23638154649E+02  0.60467223875E+02  0.41800000000E+01 0. -1.
         -5    1    3    3    0  502 -0.49167145200E+02 -0.90791853120E+01 -0.27070558699E+03  0.27531586769E+03  0.41800000000E+01 0. -1.
        -11    1    1    2    0    0  0.65593203258E+02  0.10499090984E+02 -0.69041594187E+02  0.95809399085E+02  0.00000000000E+00 0.  1.
         11    1    1    2    0    0  0.36398698824E+02 -0.18437410434E+02 -0.22706204835E+03  0.23069888855E+03  0.00000000000E+00 0. -1.
</event>
<event>
 7    1  0.2490079E-009  0.7812098E+02  0.7561462E-02  0.1334470E+00
          2   -1    0    0  501    0  0.00000000000E+00  0.00000000000E+00  0.53250775233E+03  0.53250775233E+03  0.00000000000E+00 0.  1.
         -2   -1    0    0    0  501 -0.00000000000E+00 -0.00000000000E+00 -0.33890719250E+02  0.33890719250E+02  0.00000000000E+00 0. -1.
         25    2    1    2    0    0 -0.20566333162E+02  0.46961069396E+02  0.15225811291E+03  0.20361297147E+03  0.12508954034E+03 0.  0.
          5    1    3    3  502    0 -0.17999928481E+02 -0.42276567554E+01 -0.17767438059E+02  0.25981238657E+02  0.41800000000E+01 0.  1.
         -5    1    3    3    0  502 -0.25664046817E+01  0.51188726151E+02  0.17002555097E+03  0.17763173281E+03  0.41800000000E+01 0.  1.
        -11    1    1    2    0    0  0.15921922892E+02  0.16092563330E+02  0.19532210559E+02  0.29899589837E+02  0.00000000000E+00 0. -1.
         11    1    1    2    0    0  0.46444102706E+01 -0.63053632725E+02  0.32682670961E+03  0.33288591028E+03  0.00000000000E+00 0.  1.
</event>
<event>
 7    1  0.2490079E-009  0.9728400E+02  0.7561462E-02  0.1286113E+00
          2   -1    0    0  501    0  0.00000000000E+00  0.00000000000E+00  0.74329576147E+03  0.74329576147E+03  0.00000000000E+00 0. -1.
         -2   -1    0    0    0  501 -0.00000000000E+00 -0.00000000000E+00 -0.20429394977E+02  0.20429394977E+02  0.00000000000E+00 0.  1.
         25    2    1    2    0    0 -0.91070102070E+01 -0.64316904478E+02  0.48383441944E+03  0.50394579398E+03  0.12508403576E+03 0.  0.
          5    1    3    3  502    0  0.26121123299E+02 -0.70724886492E+02  0.44336283270E+03  0.44974703609E+03  0.41800000000E+01 0.  1.
         -5    1    3    3    0  502 -0.35228133506E+02  0.64079820140E+01  0.40471586734E+02  0.54198757887E+02  0.41800000000E+01 0.  1.
        -11    1    1    2    0    0 -0.21435564413E+02  0.21013294617E+02  0.17064232467E+03  0.17326235869E+03  0.00000000000E+00 0. -1.
         11    1    1    2    0    0  0.30542574620E+02  0.43303609862E+02  0.68389622393E+02  0.86517003777E+02  0.00000000000E+00 0.  1.
</event>
<event>
 7    1  0.2490079E-009  0.2047632E+03  0.7561462E-02  0.1145781E+00
          1   -1    0    0  501    0  0.00000000000E+00  0.00000000000E+00  0.10041230528E+04  0.10041230528E+04  0.00000000000E+00 0. -1.
         -1   -1    0    0    0  501 -0.00000000000E+00 -0.00000000000E+00 -0.47027512925E+02  0.47027512925E+02  0.00000000000E+00 0.  1.
         25    2    1    2    0    0  0.16081684178E+03 -0.87131215882E+02  0.60130082251E+03  0.64083119824E+03  0.12509212645E+03 0.  0.
          5    1    3    3  502    0  0.98941036865E+02 -0.11301358218E+03  0.35419334882E+03  0.38474900816E+03  0.41800000000E+01 0. -1.
         -5    1    3    3    0  502  0.61875804912E+02  0.25882366300E+02  0.24710747369E+03  0.25608219007E+03  0.41800000000E+01 0. -1.
        -11    1    1    2    0    0 -0.84980123038E+02  0.12920365155E+02  0.23122652720E+03  0.24668657042E+03  0.00000000000E+00 0. -1.
         11    1    1    2    0    0 -0.75836718740E+02  0.74210850727E+02  0.12456819017E+03  0.16363279707E+03  0.00000000000E+00 0.  1.
</event>
<event>
 7    1  0.2490079E-009  0.2295948E+03  0.7561462E-02  0.1126925E+00
          1   -1    0    0  501    0  0.00000000000E+00  0.00000000000E+00  0.44413594414E+03  0.44413594414E+03  0.00000000000E+00 0. -1.
         -1   -1    0    0    0  501 -0.00000000000E+00 -0.00000000000E+00 -0.16190108844E+03  0.16190108844E+03  0.00000000000E+00 0.  1.
         25    2    1    2    0    0  0.82972984917E+02 -0.18974553864E+03  0.99153378503E+01  0.24214438842E+03  0.12509078806E+03 0.  0.
          5    1    3    3  502    0  0.13964631001E+02 -0.12923014991E+03  0.53286648274E+02  0.14054316721E+03  0.41800000000E+01 0. -1.
         -5    1    3    3    0  502  0.69008353916E+02 -0.60515388724E+02 -0.43371310423E+02  0.10160122121E+03  0.41800000000E+01 0. -1.
        -11    1    1    2    0    0  0.17233959884E+02  0.10387347837E+03  0.88140532385E+02  0.13731519338E+03  0.00000000000E+00 0.  1.
         11    1    1    2    0    0 -0.10020694480E+03  0.85872060265E+02  0.18417898546E+03  0.22657745079E+03  0.00000000000E+00 0. -1.
</event>
<event>
 7    1  0.2490079E-009  0.1191913E+03  0.7561462E-02  0.1244437E+00
         -1   -1    0    0    0  501 -0.00000000000E+00  0.00000000000E+00  0.29205186800E+03  0.29205186800E+03  0.00000000000E+00 0.  1.
          1   -1    0    0  501    0  0.00000000000E+00 -0.00000000000E+00 -0.52941712991E+02  0.52941712991E+02  0.00000000000E+00 0. -1.
         25    2    1    2    0    0  0.27896617457E+02 -0.52245948044E+02  0.11911268572E+03  0.18260047665E+03  0.12508893565E+03 0.  0.
          5    1    3    3  502    0 -0.48949849867E+02 -0.30476485402E+02  0.58504233999E+02  0.82250360244E+02  0.41800000000E+01 0. -1.
         -5    1    3    3    0  502  0.76846467323E+02 -0.21769462642E+02  0.60608451718E+02  0.10035011641E+03  0.41800000000E+01 0. -1.
        -11    1    1    2    0    0 -0.10622297585E+02 -0.21962820391E+02  0.62032727357E+02  0.66657767356E+02  0.00000000000E+00 0.  1.
         11    1    1    2    0    0 -0.17274319872E+02  0.74208768435E+02  0.57964741938E+02  0.95735336985E+02  0.00000000000E+00 0. -1.
</event>
<event>
 7    1  0.2490079E-009  0.9568728E+02  0.7561462E-02  0.1289636E+00
          1   -1    0    0  501    0  0.00000000000E+00  0.00000000000E+00  0.30759476238E+02  0.30759476238E+02  0.00000000000E+00 0. -1.
         -1   -1    0    0    0  501 -0.00000000000E+00 -0.00000000000E+00 -0.46184097515E+03  0.46184097515E+03  0.00000000000E+00 0.  1.
         25    2    1    2    0    0  0.43166706357E+02 -0.22402106617E+02 -0.26078922296E+03  0.29329952021E+03  0.12509344838E+03 0.  0.
          5    1    3    3  502    0  0.49554055061E+02 -0.43098992866E+02 -0.53419935637E+02  0.84760188075E+02  0.41800000000E+01 0. -1.
         -5    1    3    3    0  502 -0.63873487047E+01  0.20696886249E+02 -0.20736928732E+03  0.20853933214E+03  0.41800000000E+01 0. -1.
        -11    1    1    2    0    0  0.23028957933E+02 -0.14993014070E+02 -0.42895827681E+02  0.50942864140E+02  0.00000000000E+00 0.  1.
         11    1    1    2    0    0 -0.66195664290E+02  0.37395120687E+02 -0.12739644827E+03  0.14835806703E+03  0.00000000000E+00 0. -1.
</event>
<event>
 7    1  0.3479978E-009  0.1566672E+03  0.7561462E-02  0.1192512E+00
          2   -1    0    0  501    0  0.00000000000E+00  0.00000000000E+00  0.72150340184E+03  0.72150340184E+03  0.00000000000E+00 0.  1.
         -2   -1    0    0    0  501 -0.00000000000E+00 -0.00000000000E+00 -0.37408268186E+02  0.37408268186E+02  0.00000000000E+00 0. -1.
         25    2    1    2    0    0 -0.22675649969E+02 -0.12061847277E+03  0.37469341771E+03  0.41364920555E+03  0.12508999523E+03 0.  0.
          5    1    3    3  502    0  0.10083633118E+02  0.16251693209E+02  0.12895782579E+03  0.13043538791E+03  0.41800000000E+01 0.  1.
         -5    1    3    3    0  502 -0.32759283086E+02 -0.13687016598E+03  0.24573559192E+03  0.28321381764E+03  0.41800000000E+01 0.  1.
        -11    1    1    2    0    0 -0.33247927848E+02  0.70147639017E+02  0.14692179930E+03  0.16616898349E+03  0.00000000000E+00 0.  1.
         11    1    1    2    0    0  0.55923577817E+02  0.50470833755E+02  0.16247991664E+03  0.17909348098E+03  0.00000000000E+00 0. -1.
</event>
<event>
 7    1  0.2490079E-009  0.1795058E+03  0.7561462E-02  0.1168282E+00
         -2   -1    0    0    0  501 -0.00000000000E+00  0.00000000000E+00  0.22149384422E+02  0.22149384422E+02  0.00000000000E+00 0.  1.
          2   -1    0    0  501    0  0.00000000000E+00 -0.00000000000E+00 -0.14862553808E+04  0.14862553808E+04  0.00000000000E+00 0. -1.
         25    2    1    2    0    0  0.76190992744E+02  0.12246115602E+03 -0.69394854888E+03  0.71973338194E+03  0.12509896278E+03 0.  0.
          5    1    3    3  502    0  0.33818286794E+02 -0.21570589076E+02 -0.16678048072E+03  0.17158720228E+03  0.41800000000E+01 0. -1.
         -5    1    3    3    0  502  0.42372705950E+02  0.14403174510E+03 -0.52716806815E+03  0.54814617967E+03  0.41800000000E+01 0. -1.
        -11    1    1    2    0    0 -0.29735876880E+02 -0.11814987349E+03 -0.50889557139E+03  0.52327652112E+03  0.00000000000E+00 0.  1.
         11    1    1    2    0    0 -0.46455115864E+02 -0.43112825251E+01 -0.26126187607E+03  0.26539486211E+03  0.00000000000E+00 0. -1.
</event>
<event>
 7    1  0.2490079E-009  0.7545782E+02  0.7561462E-02  0.1342459E+00
          1   -1    0    0  501    0  0.00000000000E+00  0.00000000000E+00  0.12736427001E+03  0.12736427001E+03  0.00000000000E+00 0. -1.
         -1   -1    0    0    0  501 -0.00000000000E+00 -0.00000000000E+00 -0.16161243866E+03  0.16161243866E+03  0.00000000000E+00 0.  1.
         25    2    1    2    0    0  0.62196502238E+02  0.41991952729E+02 -0.71789710066E+02  0.16258355707E+03  0.12509165269E+03 0.  0.
          5    1    3    3  502    0  0.26621349389E+02  0.13894582556E+02  0.35112819802E+02  0.46391143359E+02  0.41800000000E+01 0.  1.
         -5    1    3    3    0  502  0.35575152849E+02  0.28097370174E+02 -0.10690252987E+03  0.11619241371E+03  0.41800000000E+01 0.  1.
        -11    1    1    2    0    0 -0.34063485928E+02 -0.24205163058E+02 -0.29766250876E+02  0.51305367004E+02  0.00000000000E+00 0.  1.
         11    1    1    2    0    0 -0.28133016310E+02 -0.17786789671E+02  0.67307792285E+02  0.75087784598E+02  0.00000000000E+00 0. -1.
</event>
<event>
 7    1  0.2490079E-009  0.1345241E+03  0.7561462E-02  0.1220893E+00
          3   -1    0    0  501    0  0.00000000000E+00  0.00000000000E+00  0.51714065271E+03  0.51714065271E+03  0.00000000000E+00 0. -1.
         -3   -1    0    0    0  501 -0.00000000000E+00 -0.00000000000E+00 -0.54133684856E+02  0.54133684856E+02  0.00000000000E+00 0.  1.
         25    2    1    2    0    0  0.11836415416E+02  0.10243091147E+03  0.37207023583E+03  0.40585337658E+03  0.12509400677E+03 0.  0.
          5    1    3    3  502    0  0.58850777278E+02  0.62242015916E+02  0.29349441297E+03  0.30576776379E+03  0.41800000000E+01 0. -1.
         -5    1    3    3    0  502 -0.47014361862E+02  0.40188895558E+02  0.78575822868E+02  0.10008561279E+03  0.41800000000E+01 0. -1.
        -11    1    1    2    0    0  0.21622137881E+02 -0.11684527565E+02 -0.91624117459E+01  0.26229655354E+02  0.00000000000E+00 0.  1.
         11    1    1    2    0    0 -0.33458553297E+02 -0.90746383909E+02  0.10009914376E+03  0.13919130563E+03  0.00000000000E+00 0. -1.
</event>
<event>
 7    1  0.2490079E-009  0.2309902E+03  0.7561462E-02  0.1125945E+00
         -2   -1    0    0    0  501 -0.00000000000E+00  0.00000000000E+00  0.60254434025E+02  0.60254434025E+02  0.00000000000E+00 0.  1.
          2   -1    0    0  501    0  0.00000000000E+00 -0.00000000000E+00 -0.15403166792E+04  0.15403166792E+04  0.00000000000E+00 0. -1.
         25    2    1    2    0    0  0.14609473316E+03  0.16187527429E+03 -0.12349851589E+04  0.12603105061E+04  0.12508778366E+03 0.  0.
          5    1    3    3  502    0  0.37599270276E+02 -0.39288966172E+01 -0.41392827021E+03  0.41567201811E+03  0.41800000000E+01 0. -1.
         -5    1    3    3    0  502  0.10849546288E+03  0.16580417091E+03 -0.82105688872E+03  0.84463848804E+03  0.41800000000E+01 0. -1.
        -11    1    1    2    0    0 -0.13612133072E+03 -0.11610845082E+03 -0.14694787787E+03  0.23152509116E+03  0.00000000000E+00 0.  1.
         11    1    1    2    0    0 -0.99734024366E+01 -0.45766823474E+02 -0.98129208413E+02  0.10873551596E+03  0.00000000000E+00 0. -1.
</event>
<event>
 7    1  0.2490079E-009  0.1187679E+03  0.7561462E-02  0.1245144E+00
         -1   -1    0    0    0  501 -0.00000000000E+00  0.00000000000E+00  0.32448757817E+02  0.32448757817E+02  0.00000000000E+00 0.  1.
          1   -1    0    0  501    0  0.00000000000E+00 -0.00000000000E+00 -0.51193629035E+03  0.51193629035E+03  0.00000000000E+00 0. -1.
         25    2    1    2    0    0 -0.61074375860E+02 -0.35650234544E+02 -0.18507696105E+03  0.23430811552E+03  0.12508314385E+03 0.  0.
          5    1    3    3  502    0 -0.96497474952E+02 -0.96649371783E+01 -0.10585745823E+03  0.14362606848E+03  0.41800000000E+01 0.  1.
         -5    1    3    3    0  502  0.35423099091E+02 -0.25985297366E+02 -0.79219502820E+02  0.90682047040E+02  0.41800000000E+01 0.  1.
        -11    1    1    2    0    0  0.14892570881E+02 -0.19413981692E+02 -0.95392983160E+02  0.98481026542E+02  0.00000000000E+00 0.  1.
         11    1    1    2    0    0  0.46181804980E+02  0.55064216236E+02 -0.19901758832E+03  0.21159590611E+03  0.00000000000E+00 0. -1.
</event>
<event>
 7    1  0.2490079E-009  0.1114385E+03  0.7561462E-02  0.1257929E+00
         -1   -1    0    0    0  501 -0.00000000000E+00  0.00000000000E+00  0.32883922009E+02  0.32883922009E+02  0.00000000000E+00 0.  1.
          1   -1    0    0  501    0  0.00000000000E+00 -0.00000000000E+00 -0.50599573763E+03  0.50599573763E+03  0.00000000000E+00 0. -1.
         25    2    1    2    0    0  0.44535263631E+02  0.48704316626E+02 -0.21644412074E+03  0.25855602288E+03  0.12509060476E+03 0.  0.
          5    1    3    3  502    0  0.69152969323E+02  0.10408317355E+02 -0.50319238965E+02  0.86255228516E+02  0.41800000000E+01 0. -1.
         -5    1    3    3    0  502 -0.24617705692E+02  0.38295999271E+02 -0.16612488177E+03  0.17230079436E+03  0.41800000000E+01 0. -1.
        -11    1    1    2    0    0  0.21706482521E+02  0.44662496638E+01 -0.24152904643E+02  0.32779285718E+02  0.00000000000E+00 0.  1.
         11    1    1    2    0    0 -0.66241746152E+02 -0.53170566290E+02 -0.23251479024E+03  0.24754435104E+03  0.00000000000E+00 0. -1.
</event>
<event>
 7    1  0.2490079E-009  0.6158592E+02  0.7561462E-02  0.1391294E+00
          1   -1    0    0  501    0  0.00000000000E+00  0.00000000000E+00  0.31405156874E+02  0.31405156874E+02  0.00000000000E+00 0. -1.
         -1   -1    0    0    0  501 -0.00000000000E+00 -0.00000000000E+00 -0.47020231686E+03  0.47020231686E+03  0.00000000000E+00 0.  1.
         25    2    1    2    0    0  0.44069662465E+02 -0.70599411936E+01 -0.31840186703E+03  0.34498966257E+03  0.12508453313E+03 0.  0.
          5    1    3    3  502    0  0.39620471161E+02  0.16899721758E+02 -0.31730246470E+03  0.32024007999E+03  0.41800000000E+01 0.  1.
         -5    1    3    3    0  502  0.44491913035E+01 -0.23959662951E+02 -0.10994023325E+01  0.24749582572E+02  0.41800000000E+01 0.  1.
        -11    1    1    2    0    0 -0.23005636255E+01  0.12803068434E+02  0.11983717585E+02  0.17686736315E+02  0.00000000000E+00 0. -1.
         11    1    1    2    0    0 -0.41769098839E+02 -0.57431272402E+01 -0.13237901054E+03  0.13893107485E+03  0.00000000000E+00 0.  1.
</event>
<event>
 7    1  0.2490079E-009  0.2494737E+03  0.7561462E-02  0.1113638E+00
          1   -1    0    0  501    0  0.00000000000E+00  0.00000000000E+00  0.54683775644E+03  0.54683775644E+03  0.00000000000E+00 0. -1.
         -1   -1    0    0    0  501 -0.00000000000E+00 -0.00000000000E+00 -0.32778504475E+03  0.32778504475E+03  0.00000000000E+00 0.  1.
         25    2    1    2    0    0 -0.22459101524E+03  0.77505125524E+02 -0.23304155220E+03  0.35553393357E+03  0.12509134366E+03 0.  0.
          5    1    3    3  502    0 -0.19333586752E+03  0.23784671660E+02 -0.21612855976E+03  0.29098710456E+03  0.41800000000E+01 0.  1.
         -5    1    3    3    0  502 -0.31255147723E+02  0.53720453864E+02 -0.16912992443E+02  0.64546829015E+02  0.41800000000E+01 0.  1.
        -11    1    1    2    0    0  0.96952784048E+02 -0.57216615237E+02  0.29446091854E+03  0.31524722987E+03  0.00000000000E+00 0. -1.
         11    1    1    2    0    0  0.12763823119E+03 -0.20288510287E+02  0.15763334535E+03  0.20384163775E+03  0.00000000000E+00 0.  1.
</event>
<event>
 7    1  0.2490079E-009  0.1382304E+03  0.7561462E-02  0.1215730E+00
          2   -1    0    0  501    0  0.00000000000E+00  0.00000000000E+00  0.98941295903E+03  0.98941295903E+03  0.00000000000E+00 0. -1.
         -2   -1    0    0    0  501 -0.00000000000E+00 -0.00000000000E+00 -0.30486298175E+02  0.30486298175E+02  0.00000000000E+00 0.  1.
         25    2    1    2    0    0 -0.11551391545E+03  0.40759511932E-01  0.71497055754E+03  0.73496535662E+03  0.12509081087E+03 0.  0.
          5    1    3    3  502    0  0.83277423571E+01  0.66776940224E+01  0.33601114845E+03  0.33620664356E+03  0.41800000000E+01 0.  1.
         -5    1    3    3    0  502 -0.12384165780E+03 -0.66369345104E+01  0.37895940909E+03  0.39875871306E+03  0.41800000000E+01 0.  1.
        -11    1    1    2    0    0  0.11223840844E+03  0.25548427875E+02  0.16000626045E+03  0.19710957835E+03  0.00000000000E+00 0.  1.
         11    1    1    2    0    0  0.32755070049E+01 -0.25589187387E+02  0.83949842871E+02  0.87824322231E+02  0.00000000000E+00 0. -1.
</event>
<event>
 7    1  0.2490079E-009  0.1489382E+03  0.7561462E-02  0.1201784E+00
          2   -1    0    0  501    0  0.00000000000E+00  0.00000000000E+00  0.29029187803E+03  0.29029187803E+03  0.00000000000E+00 0. -1.
         -2   -1    0    0    0  501 -0.00000000000E+00 -0.00000000000E+00 -0.97054316358E+02  0.97054316358E+02  0.00000000000E+00 0.  1.
         25    2    1    2    0    0  0.56777028627E+02  0.11420028379E+03  0.96317647424E+02  0.20295169660E+03  0.12508783375E+03 0.  0.
          5    1    3    3  502    0 -0.14210495965E+02  0.95133883686E+02  0.85063325187E+02  0.12847426090E+03  0.41800000000E+01 0. -1.
         -5    1    3    3    0  502  0.70987524592E+02  0.19066400106E+02  0.11254322237E+02  0.74477435709E+02  0.41800000000E+01 0. -1.
        -11    1    1    2    0    0 -0.25740480709E+02 -0.63628789574E+02 -0.24224129734E+01  0.68680880123E+02  0.00000000000E+00 0.  1.
         11    1    1    2    0    0 -0.31036547919E+02 -0.50571494218E+02  0.99342327219E+02  0.11571361766E+03  0.00000000000E+00 0. -1.
</event>
<event>
 7    1  0.2490079E-009  0.1023018E+03  0.7561462E-02  0.1275529E+00
          3   -1    0    0  501    0  0.00000000000E+00  0.00000000000E+00  0.24683846819E+02  0.24683846819E+02  0.00000000000E+00 0. -1.
         -3   -1    0    0    0  501 -0.00000000000E+00 -0.00000000000E+00 -0.61422573905E+03  0.61422573905E+03  0.00000000000E+00 0.  1.
         25    2    1    2    0    0  0.25066594770E+02 -0.38925269130E+02 -0.23610644294E+03  0.27117827402E+03  0.12509153908E+03 0.  0.
          5    1    3    3  502    0 -0.33444521510E+02 -0.32269819950E+02 -0.27027773185E+02  0.53924486293E+02  0.41800000000E+01 0. -1.
         -5    1    3    3    0  502  0.58511116280E+02 -0.66554491799E+01 -0.20907866976E+03  0.21725378772E+03  0.41800000000E+01 0. -1.
        -11    1    1    2    0    0  0.32909782317E+02  0.15455587139E+02 -0.92137237126E+02  0.99051498783E+02  0.00000000000E+00 0.  1.
         11    1    1    2    0    0 -0.57976377087E+02  0.23469681991E+02 -0.26129821216E+03  0.26867981307E+03  0.00000000000E+00 0. -1.
</event>
<event>
 7    1  0.2490079E-009  0.1029560E+03  0.7561462E-02  0.1274200E+00
          2   -1    0    0  501    0  0.00000000000E+00  0.00000000000E+00  0.29314484250E+03  0.29314484250E+03  0.00000000000E+00 0. -1.
         -2   -1    0    0    0  501 -0.00000000000E+00 -0.00000000000E+00 -0.57026871953E+02  0.57026871953E+02  0.00000000000E+00 0.  1.
         25    2    1    2    0    0 -0.39305796352E+02 -0.57661056937E+02  0.13673221655E+03  0.19802340879E+03  0.12509127977E+03 0.  0.
          5    1    3    3  502    0 -0.94438689671E+01  0.21052553930E+02 -0.12543438249E+02  0.26593362539E+02  0.41800000000E+01 0.  1.
         -5    1    3    3    0  502 -0.29861927385E+02 -0.78713610867E+02  0.14927565480E+03  0.17143004625E+03  0.41800000000E+01 0.  1.
        -11    1    1    2    0    0  0.25400696093E+02 -0.11315529209E+02 -0.29422857058E+01  0.27962360567E+02  0.00000000000E+00 0.  1.
         11    1    1    2    0    0  0.13905100259E+02  0.68976586146E+02  0.10232803970E+03  0.12418594510E+03  0.00000000000E+00 0. -1.
</event>
<event>
 7    1  0.2490079E-009  0.1339449E+03  0.7561462E-02  0.1221717E+00
         -2   -1    0    0    0  501 -0.00000000000E+00  0.00000000000E+00  0.84204057009E+02  0.84204057009E+02  0.00000000000E+00 0.  1.
          2   -1    0    0  501    0  0.00000000000E+00 -0.00000000000E+00 -0.25238211043E+03  0.25238211043E+03  0.00000000000E+00 0. -1.
         25    2    1    2    0    0  0.96820310605E+02  0.79085597182E+01 -0.89464324645E+02  0.18189892289E+03  0.12508650967E+03 0.  0.
          5    1    3    3  502    0  0.12685890776E+03 -0.41144908779E+00 -0.71567662150E+02  0.14571463356E+03  0.41800000000E+01 0.  1.
         -5    1    3    3    0  502 -0.30038597157E+02  0.83200088060E+01 -0.17896662495E+02  0.36184289328E+02  0.41800000000E+01 0.  1.
        -11    1    1    2    0    0 -0.46393413278E+02 -0.29153910009E+02  0.46268593056E+01  0.54988245030E+02  0.00000000000E+00 0.  1.
         11    1    1    2    0    0 -0.50426897327E+02  0.21245350291E+02 -0.83340588076E+02  0.99698999513E+02  0.00000000000E+00 0. -1.
</event>
<event>
 7    1  0.2490079E-009  0.5291516E+02  0.7561462E-02  0.1430224E+00
         -2   -1    0    0    0  501 -0.00000000000E+00  0.00000000000E+00  0.26562189480E+02  0.26562189480E+02  0.00000000000E+00 0.  1.
          2   -1    0    0  501    0  0.00000000000E+00 -0.00000000000E+00 -0.47238402501E+03  0.47238402501E+03  0.00000000000E+00 0. -1.
         25    2    1    2    0    0  0.10236982948E+02 -0.10204363088E+02 -0.32176661758E+03  0.34552836512E+03  0.12508864882E+03 0.  0.
          5    1    3    3  502    0 -0.15008158619E+01 -0.34022509911E+00 -0.32831141417E+03  0.32834162891E+03  0.41800000000E+01 0. -1.
         -5    1    3    3    0  502  0.11737798810E+02 -0.98641379890E+01  0.65447965836E+01  0.17186736209E+02  0.41800000000E+01 0. -1.
        -11    1    1    2    0    0 -0.47379288014E+02  0.18580176075E+01 -0.92606075322E+02  0.10403910010E+03  0.00000000000E+00 0. -1.
         11    1    1    2    0    0  0.37142305066E+02  0.83463454807E+01 -0.31449142627E+02  0.49378749280E+02  0.00000000000E+00 0.  1.
</event>
<event>
 7    1  0.2490079E-009  0.7788974E+02  0.7561462E-02  0.1335149E+00
         -1   -1    0    0    0  501 -0.00000000000E+00  0.00000000000E+00  0.52110914407E+02  0.52110914407E+02  0.00000000000E+00 0.  1.
          1   -1    0    0  501    0  0.00000000000E+00 -0.00000000000E+00 -0.24067317179E+03  0.24067317179E+03  0.00000000000E+00 0. -1.
         25    2    1    2    0    0 -0.44973001268E+01 -0.24552003345E+02 -0.10533410485E+03  0.16542555248E+03  0.12508922092E+03 0.  0.
          5    1    3    3  502    0  0.75009118784E+01 -0.44692468460E+02  0.10883625171E+02  0.46793227212E+02  0.41800000000E+01 0. -1.
         -5    1    3    3    0  502 -0.11998212005E+02  0.20140465115E+02 -0.11621773002E+03  0.11863232526E+03  0.41800000000E+01 0. -1.
        -11    1    1    2    0    0  0.34743946088E+02 -0.13997111400E+02 -0.65112745380E+02  0.75118110521E+02  0.00000000000E+00 0. -1.
         11    1    1    2    0    0 -0.30246645962E+02  0.38549114745E+02 -0.18115407149E+02  0.52240423197E+02  0.00000000000E+00 0.  1.
</event>
<event>
 7    1  0.2490079E-009  0.8486324E+02  0.7561462E-02  0.1315791E+00
          4   -1    0    0  501    0  0.00000000000E+00  0.00000000000E+00  0.29995785214E+03  0.29995785214E+03  0.00000000000E+00 0. -1.
         -4   -1    0    0    0  501 -0.00000000000E+00 -0.00000000000E+00 -0.53471501208E+02  0.53471501208E+02  0.00000000000E+00 0.  1.
         25    2    1    2    0    0  0.34482151410E+02  0.12608831456E+02  0.22296688501E+03  0.25828252193E+03  0.12509047896E+03 0.  0.
          5    1    3    3  502    0 -0.35705195765E+02 -0.27560104860E+02  0.51052491533E+02  0.68251371241E+02  0.41800000000E+01 0. -1.
         -5    1    3    3    0  502  0.70187347175E+02  0.40168936315E+02  0.17191439348E+03  0.19003115069E+03  0.41800000000E+01 0. -1.
        -11    1    1    2    0    0 -0.19802096797E+02 -0.18997767367E+02 -0.29187570994E+02  0.40061858457E+02  0.00000000000E+00 0.  1.
         11    1    1    2    0    0 -0.14680054612E+02  0.63889359110E+01  0.52707036914E+02  0.55084972958E+02  0.00000000000E+00 0. -1.
</event>
<event>
 7    1  0.2490079E-009  0.1265755E+03  0.7561462E-02  0.1232627E+00
          2   -1    0    0  501    0  0.00000000000E+00  0.00000000000E+00  0.17537465794E+03  0.17537465794E+03  0.00000000000E+00 0. -1.
         -2   -1    0    0    0  501 -0.00000000000E+00 -0.00000000000E+00 -0.16467416061E+03  0.16467416061E+03  0.00000000000E+00 0.  1.
         25    2    1    2    0    0  0.43967160858E+02 -0.80299027527E+02  0.98985240165E+02  0.18392143831E+03  0.12509185682E+03 0.  0.
          5    1    3    3  502    0 -0.27047135896E+02 -0.51181106023E+02 -0.69912174482E+00  0.58043211017E+02  0.41800000000E+01 0. -1.
         -5    1    3    3    0  502  0.71014296754E+02 -0.29117921504E+02  0.99684361910E+02  0.12587822729E+03  0.41800000000E+01 0. -1.
        -11    1    1    2    0    0 -0.64044698488E+02  0.72423261320E+02 -0.42681422851E+02  0.10568138929E+03  0.00000000000E+00 0. -1.
         11    1    1    2    0    0  0.20077537631E+02  0.78757662078E+01 -0.45603319985E+02  0.50445990964E+02  0.00000000000E+00 0.  1.
</event>
<event>
 7    1  0.2490079E-009  0.8337856E+02  0.7561462E-02  0.1319728E+00
         -1   -1    0    0    0  501 -0.00000000000E+00  0.00000000000E+00  0.29096997090E+02  0.29096997090E+02  0.00000000000E+00 0.  1.
          1   -1    0    0  501    0  0.00000000000E+00 -0.00000000000E+00 -0.46302820337E+03  0.46302820337E+03  0.00000000000E+00 0. -1.
         25    2    1    2    0    0  0.56073204851E+01 -0.33681203766E+02 -0.30127923408E+03  0.32799774752E+03  0.12508988752E+03 0.  0.
          5    1    3    3  502    0 -0.25934318784E+02 -0.26944492600E+02 -0.16033673222E+02  0.40904103086E+02  0.41800000000E+01 0.  1.
         -5    1    3    3    0  502  0.31541639269E+02 -0.67367111665E+01 -0.28524556086E+03  0.28709364444E+03  0.41800000000E+01 0.  1.
        -11    1    1    2    0    0 -0.46538151343E+02  0.53948953206E+01 -0.61787452018E+02  0.77540915992E+02  0.00000000000E+00 0. -1.
         11    1    1    2    0    0  0.40930830858E+02  0.28286308446E+02 -0.70864520183E+02  0.86586536950E+02  0.00000000000E+00 0.  1.
</event>
<event>
 7    1  0.2490079E-009  0.1242871E+03  0.7561462E-02  0.1236188E+00
          1   -1    0    0  501    0  0.00000000000E+00  0.00000000000E+00  0.36023859698E+03  0.36023859698E+03  0.00000000000E+00 0. -1.
         -1   -1    0    0    0  501 -0.00000000000E+00 -0.00000000000E+00 -0.67447312004E+02  0.67447312004E+02  0.00000000000E+00 0.  1.
         25    2    1    2    0    0 -0.52325872652E+02  0.93496632042E+02  0.11493744149E+03  0.20084382174E+03  0.12509199863E+03 0.  0.
          5    1    3    3  502    0  0.16339578251E+02  0.60834963517E+02  0.10705770504E+03  0.12428475052E+03  0.41800000000E+01 0. -1.
         -5    1    3    3    0  502 -0.68665450903E+02  0.32661668525E+02  0.78797364471E+01  0.76559071214E+02  0.41800000000E+01 0. -1.
        -11    1    1    2    0    0  0.26047767505E+02 -0.67395929642E+02  0.36954765164E+02  0.81156344130E+02  0.00000000000E+00 0.  1.
         11    1    1    2    0    0  0.26278105147E+02 -0.26100702400E+02  0.14089907832E+03  0.14568574312E+03  0.00000000000E+00 0. -1.
</event>
<event>
 7    1  0.2490079E-009  0.1187468E+03  0.7561462E-02  0.1245179E+00
         -1   -1    0    0    0  501 -0.00000000000E+00  0.00000000000E+00  0.31983748816E+02  0.31983748816E+02  0.00000000000E+00 0.  1.
          1   -1    0    0  501    0  0.00000000000E+00 -0.00000000000E+00 -0.74278523253E+03  0.74278523253E+03  0.00000000000E+00 0. -1.
         25    2    1    2    0    0 -0.69681577270E+02 -0.10446457970E+02 -0.59210640270E+03  0.60926357690E+03  0.12508982102E+03 0.  0.
          5    1    3    3  502    0  0.63503568192E+01  0.47063071970E+02 -0.17462580606E+03  0.18101630953E+03  0.41800000000E+01 0.  1.
         -5    1    3    3    0  502 -0.76031934089E+02 -0.57509529940E+02 -0.41748059664E+03  0.42824726736E+03  0.41800000000E+01 0.  1.
        -11    1    1    2    0    0  0.28355403512E+02  0.35986525587E+02 -0.10572098319E+03  0.11522146162E+03  0.00000000000E+00 0. -1.
         11    1    1    2    0    0  0.41326173758E+02 -0.25540067617E+02 -0.12974097822E+02  0.50283942821E+02  0.00000000000E+00 0.  1.
</event>
<event>
 7    1  0.2490079E-009  0.1135386E+03  0.7561462E-02  0.1254154E+00
          1   -1    0    0  501    0  0.00000000000E+00  0.00000000000E+00  0.16396864870E+04  0.16396864870E+04  0.00000000000E+00 0. -1.
         -1   -1    0    0    0  501 -0.00000000000E+00 -0.00000000000E+00 -0.11980003986E+02  0.11980003986E+02  0.00000000000E+00 0.  1.
         25    2    1    2    0    0  0.64136257739E+02  0.19594186710E+02  0.12397858488E+04  0.12478837244E+04  0.12508975617E+03 0.  0.
          5    1    3    3  502    0  0.33042803969E+02  0.57494884573E+02  0.10403071862E+04  0.10424269772E+04  0.41800000000E+01 0.  1.
         -5    1    3    3    0  502  0.31093453771E+02 -0.37900697863E+02  0.19947866256E+03  0.20545674723E+03  0.41800000000E+01 0.  1.
        -11    1    1    2    0    0 -0.81166143249E+02 -0.35071150481E+02  0.32391376199E+03  0.33576487847E+03  0.00000000000E+00 0.  1.
         11    1    1    2    0    0  0.17029885510E+02  0.15476963771E+02  0.64006872171E+02  0.68017888038E+02  0.00000000000E+00 0. -1.
</event>
<event>
 7    1  0.2490079E-009  0.2537559E+03  0.7561462E-02  0.1110954E+00
          4   -1    0    0  501    0  0.00000000000E+00  0.00000000000E+00  0.10205344812E+03  0.10205344812E+03  0.00000000000E+00 0. -1.
         -4   -1    0    0    0  501 -0.00000000000E+00 -0.00000000000E+00 -0.66787583958E+03  0.66787583958E+03  0.00000000000E+00 0.  1.
         25    2    1    2    0    0 -0.15561689815E+03  0.17164347789E+03 -0.21754994399E+03  0.34154582377E+03  0.12508984416E+03 0.  0.
          5    1    3    3  502    0 -0.68762497596E+02  0.16094485781E+03 -0.15585381699E+03  0.23439158049E+03  0.41800000000E+01 0.  1.
         -5    1    3    3    0  502 -0.86854400550E+02  0.10698620073E+02 -0.61696126997E+02  0.10715424328E+03  0.41800000000E+01 0.  1.
        -11    1    1    2    0    0  0.14357476406E+03 -0.10695726172E+03 -0.28822920787E+03  0.33930759640E+03  0.00000000000E+00 0.  1.
         11    1    1    2    0    0  0.12042134084E+02 -0.64686216167E+02 -0.60043239601E+02  0.89075867534E+02  0.00000000000E+00 0. -1.
</event>
<event>
 7    1  0.2490079E-009  0.2624163E+03  0.7561462E-02  0.1105700E+00
         -2   -1    0    0    0  501 -0.00000000000E+00  0.00000000000E+00  0.46245432876E+03  0.46245432876E+03  0.00000000000E+00 0.  1.
          2   -1    0    0  501    0  0.00000000000E+00 -0.00000000000E+00 -0.15792880230E+03  0.15792880230E+03  0.00000000000E+00 0. -1.
         25    2    1    2    0    0  0.24579947423E+03  0.19491072491E+02  0.15737966590E+03  0.31813854838E+03  0.12508594359E+03 0.  0.
          5    1    3    3  502    0  0.25940827247E+03  0.25327724147E+02  0.15245330447E+03  0.30198282713E+03  0.41800000000E+01 0.  1.
         -5    1    3    3    0  502 -0.13608798238E+02 -0.58366516560E+01  0.49263614249E+01  0.16155721245E+02  0.41800000000E+01 0.  1.
        -11    1    1    2    0    0 -0.15641540704E+03  0.35842691989E+01  0.13949637267E+03  0.20961360770E+03  0.00000000000E+00 0.  1.
         11    1    1    2    0    0 -0.89384067196E+02 -0.23075341690E+02  0.76494878936E+01  0.92630974990E+02  0.00000000000E+00 0. -1.
</event>
<event>
 7    1  0.2490079E-009  0.1308094E+03  0.7561462E-02  0.1226260E+00
         -2   -1    0    0    0  501 -0.00000000000E+00  0.00000000000E+00  0.28946447422E+02  0.28946447422E+02  0.00000000000E+00 0.  1.
          2   -1    0    0  501    0  0.00000000000E+00 -0.00000000000E+00 -0.66452574096E+03  0.66452574096E+03  0.00000000000E+00 0. -1.
         25    2    1    2    0    0 -0.55930307281E+02  0.49509573895E+02 -0.23987728768E+03  0.28065307016E+03  0.12508251463E+03 0.  0.
          5    1    3    3  502    0  0.26995736116E+02  0.54356143134E+02 -0.80756601625E+02  0.10110618760E+03  0.41800000000E+01 0.  1.
         -5    1    3    3    0  502 -0.82926043397E+02 -0.48465692389E+01 -0.15912068606E+03  0.17954688256E+03  0.41800000000E+01 0.  1.
        -11    1    1    2    0    0  0.61916620206E+02 -0.71638365479E+02 -0.31482587616E+03  0.32875683349E+03  0.00000000000E+00 0. -1.
         11    1    1    2    0    0 -0.59863129256E+01  0.22128791584E+02 -0.80876129695E+02  0.84062284729E+02  0.00000000000E+00 0.  1.
</event>
<event>
 7    1  0.2490079E-009  0.1160596E+03  0.7561462E-02  0.1249743E+00
          1   -1    0    0  501    0  0.00000000000E+00  0.00000000000E+00  0.21616281853E+03  0.21616281853E+03  0.00000000000E+00 0. -1.
         -1   -1    0    0    0  501 -0.00000000000E+00 -0.00000000000E+00 -0.78828425608E+02  0.78828425608E+02  0.00000000000E+00 0.  1.
         25    2    1    2    0    0 -0.88572590136E+00  0.62201950652E+02  0.32002694221E+02  0.14332190956E+03  0.12508848927E+03 0.  0.
          5    1    3    3  502    0 -0.48874761455E+02  0.61715407877E+02 -0.99256058063E+01  0.79457686396E+02  0.41800000000E+01 0.  1.
         -5    1    3    3    0  502  0.47989035554E+02  0.48654277508E+00  0.41928300028E+02  0.63864223165E+02  0.41800000000E+01 0.  1.
        -11    1    1    2    0    0  0.40394177291E+02 -0.13922546634E+02  0.63580157469E+02  0.76602632380E+02  0.00000000000E+00 0. -1.
         11    1    1    2    0    0 -0.39508451389E+02 -0.48279404018E+02  0.41751541230E+02  0.75066702196E+02  0.00000000000E+00 0.  1.
</event>
<event>
 7    1  0.2490079E-009  0.1732463E+03  0.7561462E-02  0.1174504E+00
          2   -1    0    0  501    0  0.00000000000E+00  0.00000000000E+00  0.53490341212E+03  0.53490341212E+03  0.00000000000E+00 0.  1.
         -2   -1    0    0    0  501 -0.00000000000E+00 -0.00000000000E+00 -0.94049447097E+02  0.94049447097E+02  0.00000000000E+00 0. -1.
         25    2    1    2    0    0 -0.41194263010E+02 -0.15019756518E+03  0.61262538859E+02  0.20894324582E+03  0.12509158810E+03 0.  0.
          5    1    3    3  502    0 -0.52437064022E+02 -0.30800151215E+02  0.64704271543E+02  0.88895501315E+02  0.41800000000E+01 0.  1.
         -5    1    3    3    0  502  0.11242801012E+02 -0.11939741396E+03 -0.34417326833E+01  0.12004774450E+03  0.41800000000E+01 0.  1.
        -11    1    1    2    0    0 -0.13733151659E+02  0.42126308481E+02  0.18904580436E+03  0.19416884783E+03  0.00000000000E+00 0.  1.
         11    1    1    2    0    0  0.54927414669E+02  0.10807125670E+03  0.19054562180E+03  0.22584076557E+03  0.00000000000E+00 0. -1.
</event>
<event>
 7    1  0.2490079E-009  0.1608300E+03  0.7561462E-02  0.1187763E+00
         -1   -1    0    0    0  501 -0.00000000000E+00  0.00000000000E+00  0.45241974054E+02  0.45241974054E+02  0.00000000000E+00 0.  1.
          1   -1    0    0  501    0  0.00000000000E+00 -0.00000000000E+00 -0.62690641602E+03  0.62690641602E+03  0.00000000000E+00 0. -1.
         25    2    1    2    0    0 -0.12218539238E+03  0.14386132161E+02 -0.23362451428E+03  0.29217063376E+03  0.12508810753E+03 0.  0.
          5    1    3    3  502    0 -0.14431201543E+03  0.27906421649E+02 -0.17973836990E+03  0.23222420240E+03  0.41800000000E+01 0.  1.
         -5    1    3    3    0  502  0.22126623053E+02 -0.13520289488E+02 -0.53886144382E+02  0.59946431353E+02  0.41800000000E+01 0.  1.
        -11    1    1    2    0    0 -0.57905728785E+01 -0.19430110978E+02 -0.23253763186E+02  0.30851214712E+02  0.00000000000E+00 0. -1.
         11    1    1    2    0    0  0.12797596526E+03  0.50439788174E+01 -0.32478616449E+03  0.34912654160E+03  0.00000000000E+00 0.  1.
</event>
<event>
 7    1  0.2490079E-009  0.1078854E+03  0.7561462E-02  0.1264537E+00
         -2   -1    0    0    0  501 -0.00000000000E+00  0.00000000000E+00  0.33463928418E+03  0.33463928418E+03  0.00000000000E+00 0.  1.
          2   -1    0    0  501    0  0.00000000000E+00 -0.00000000000E+00 -0.45381100152E+02  0.45381100152E+02  0.00000000000E+00 0. -1.
         25    2    1    2    0    0 -0.13554066471E+02 -0.24059284704E+02  0.81788244986E+02  0.15198571746E+03  0.12509108439E+03 0.  0.
          5    1    3    3  502    0 -0.63801145666E+02  0.12570241479E+02  0.49259364578E+02  0.81685705957E+02  0.41800000000E+01 0.  1.
         -5    1    3    3    0  502  0.50247079195E+02 -0.36629526184E+02  0.32528880409E+02  0.70300011499E+02  0.41800000000E+01 0.  1.
        -11    1    1    2    0    0  0.49192133570E+02  0.11670568832E+02  0.15753115511E+03  0.16544525684E+03  0.00000000000E+00 0.  1.
         11    1    1    2    0    0 -0.35638067099E+02  0.12388715872E+02  0.49938783937E+02  0.62589410036E+02  0.00000000000E+00 0. -1.
</event>
<event>
 7    1  0.2848647E-009  0.4543695E+02  0.7561462E-02  0.1471632E+00
          3   -1    0    0  501    0  0.00000000000E+00  0.00000000000E+00  0.19773302202E+03  0.19773302202E+03  0.00000000000E+00 0. -1.
         -3   -1    0    0    0  501 -0.00000000000E+00 -0.00000000000E+00 -0.62842061054E+02  0.62842061054E+02  0.00000000000E+00 0.  1.
         25    2    1    2    0    0 -0.19741909971E+02  0.17426067423E+02  0.81319229544E+02  0.15150643602E+03  0.12509185516E+03 0.  0.
          5    1    3    3  502    0 -0.55155171927E+01  0.18201981132E+02  0.11397867528E+03  0.11563020309E+03  0.41800000000E+01 0. -1.
         -5    1    3    3    0  502 -0.14226392778E+02 -0.77591370896E+00 -0.32659445739E+02  0.35876232934E+02  0.41800000000E+01 0. -1.
        -11    1    1    2    0    0 -0.16741466889E+02 -0.93889135107E+01 -0.19274439251E+02  0.27201698824E+02  0.00000000000E+00 0.  1.
         11    1    1    2    0    0  0.36483376860E+02 -0.80371539119E+01  0.72846170671E+02  0.81866948224E+02  0.00000000000E+00 0. -1.
</event>
<event>
 7    1  0.2490079E-009  0.1130967E+03  0.7561462E-02  0.1254940E+00
          1   -1    0    0  501    0  0.00000000000E+00  0.00000000000E+00  0.10339451078E+03  0.10339451078E+03  0.00000000000E+00 0. -1.
         -1   -1    0    0    0  501 -0.00000000000E+00 -0.00000000000E+00 -0.17779824063E+03  0.17779824063E+03  0.00000000000E+00 0.  1.
         25    2    1    2    0    0  0.69691210803E+02  0.14244119520E+02 -0.73811416810E+02  0.16173389703E+03  0.12509983371E+03 0.  0.
          5    1    3    3  502    0 -0.27472213117E+02  0.17809750527E+02 -0.52651436291E+02  0.62141418159E+02  0.41800000000E+01 0.  1.
         -5    1    3    3    0  502  0.97163423919E+02 -0.35656310069E+01 -0.21159980519E+02  0.99592478872E+02  0.41800000000E+01 0.  1.
        -11    1    1    2    0    0 -0.76525861493E+02  0.37530047025E+01  0.30846456775E+02  0.82594166968E+02  0.00000000000E+00 0. -1.
         11    1    1    2    0    0  0.68346506905E+01 -0.17997124222E+02 -0.31438769817E+02  0.36864687412E+02  0.00000000000E+00 0.  1.
</event>
<event>
 7    1  0.2535935E-009  0.1057904E+03  0.7561462E-02  0.1268570E+00
          2   -1    0    0  501    0  0.00000000000E+00  0.00000000000E+00  0.78447840435E+03  0.78447840435E+03  0.00000000000E+00 0. -1.
         -2   -1    0    0    0  501 -0.00000000000E+00 -0.00000000000E+00 -0.19633411266E+02  0.19633411266E+02  0.00000000000E+00 0.  1.
         25    2    1    2    0    0  0.42151085387E+02 -0.41482140325E+02  0.38043720444E+03  0.40481656478E+03  0.12508598099E+03 0.  0.
          5    1    3    3  502    0 -0.26402765374E+02 -0.76990400076E+01  0.26408547646E+03  0.26554659199E+03  0.41800000000E+01 0. -1.
         -5    1    3    3    0  502  0.68553850761E+02 -0.33783100317E+02  0.11635172797E+03  0.13926997280E+03  0.41800000000E+01 0. -1.
        -11    1    1    2    0    0 -0.39178518069E+02  0.69105894011E+02  0.26223731845E+03  0.27400545989E+03  0.00000000000E+00 0.  1.
         11    1    1    2    0    0 -0.29725673176E+01 -0.27623753686E+02  0.12217047020E+03  0.12528979094E+03  0.00000000000E+00 0. -1.
</event>
<event>
 7    1  0.2490079E-009  0.5423524E+02  0.7561462E-02  0.1423750E+00
         -2   -1    0    0    0  501 -0.00000000000E+00  0.00000000000E+00  0.36092174108E+03  0.36092174108E+03  0.00000000000E+00 0.  1.
          2   -1    0    0  501    0  0.00000000000E+00 -0.00000000000E+00 -0.33882577822E+02  0.33882577822E+02  0.00000000000E+00 0. -1.
         25    2    1    2    0    0 -0.11570603646E+00 -0.19107049211E+01  0.23377523084E+03  0.26514412740E+03  0.12508751159E+03 0.  0.
          5    1    3    3  502    0 -0.16993986215E+02 -0.14168309669E+02  0.24147255078E+03  0.24252010587E+03  0.41800000000E+01 0. -1.
         -5    1    3    3    0  502  0.16878280179E+02  0.12257604748E+02 -0.76973199399E+01  0.22624021530E+02  0.41800000000E+01 0. -1.
        -11    1    1    2    0    0 -0.32059577413E+02  0.46172337771E+01  0.91790451071E+02  0.97337671328E+02  0.00000000000E+00 0.  1.
         11    1    1    2    0    0  0.32175283450E+02 -0.27065288560E+01  0.14734813439E+01  0.32322520180E+02  0.00000000000E+00 0. -1.
</event>
<event>
 7    1  0.2490079E-009  0.1271423E+03  0.7561462E-02  0.1231759E+00
         -1   -1    0    0    0  501 -0.00000000000E+00  0.00000000000E+00  0.21356995600E+03  0.21356995600E+03  0.00000000000E+00 0.  1.
          1   -1    0    0  501    0  0.00000000000E+00 -0.00000000000E+00 -0.10496480300E+03  0.10496480300E+03  0.00000000000E+00 0. -1.
         25    2    1    2    0    0 -0.24261488866E+02 -0.86402342415E+02  0.61660356414E+01  0.15407987172E+03  0.12509437341E+03 0.  0.
          5    1    3    3  502    0 -0.23467501871E+02  0.14102097324E+02  0.39379939846E+02  0.48144001239E+02  0.41800000000E+01 0. -1.
         -5    1    3    3    0  502 -0.79398699511E+00 -0.10050443974E+03 -0.33213904205E+02  0.10593587048E+03  0.41800000000E+01 0. -1.
        -11    1    1    2    0    0  0.54672133292E+02  0.76467775051E+02  0.89968617470E+02  0.13011808064E+03  0.00000000000E+00 0.  1.
         11    1    1    2    0    0 -0.30410644426E+02  0.99345673641E+01  0.12470499887E+02  0.34336806645E+02  0.00000000000E+00 0. -1.
</event>
<event>
 7    1  0.2490079E-009  0.1305263E+03  0.7561462E-02  0.1226677E+00
          2   -1    0    0  501    0  0.00000000000E+00  0.00000000000E+00  0.37783977589E+03  0.37783977589E+03  0.00000000000E+00 0.  1.
         -2   -1    0    0    0  501 -0.00000000000E+00 -0.00000000000E+00 -0.58176455419E+02  0.58176455419E+02  0.00000000000E+00 0. -1.
         25    2    1    2    0    0  0.10022193447E+03  0.62965392003E+01  0.16625244488E+03  0.23102354289E+03  0.12509164395E+03 0.  0.
          5    1    3    3  502    0  0.12281036471E+03  0.28932388150E+02  0.11681085194E+03  0.17199336119E+03  0.41800000000E+01 0.  1.
         -5    1    3    3    0  502 -0.22588430241E+02 -0.22635848950E+02  0.49441592938E+02  0.59030181693E+02  0.41800000000E+01 0.  1.
        -11    1    1    2    0    0 -0.80886103804E+02 -0.13346158508E+02  0.42793145073E+02  0.92476672738E+02  0.00000000000E+00 0. -1.
         11    1    1    2    0    0 -0.19335830664E+02  0.70496193072E+01  0.11061773052E+03  0.11251601568E+03  0.00000000000E+00 0.  1.
</event>
<event>
 7    1  0.2490079E-009  0.8239667E+02  0.7561462E-02  0.1322384E+00
          2   -1    0    0  501    0  0.00000000000E+00  0.00000000000E+00  0.32971930480E+03  0.32971930480E+03  0.00000000000E+00 0. -1.
         -2   -1    0    0    0  501 -0.00000000000E+00 -0.00000000000E+00 -0.42911708077E+02  0.42911708077E+02  0.00000000000E+00 0.  1.
         25    2    1    2    0    0 -0.18139847936E+02 -0.28869682563E+02  0.20697831254E+03  0.24423179455E+03  0.12508650987E+03 0.  0.
          5    1    3    3  502    0 -0.36847853786E+02 -0.62816633087E+02  0.67421251521E+02  0.99331723421E+02  0.41800000000E+01 0. -1.
         -5    1    3    3    0  502  0.18708005850E+02  0.33946950524E+02  0.13955706102E+03  0.14490007113E+03  0.41800000000E+01 0. -1.
        -11    1    1    2    0    0  0.15971479725E+02 -0.66321048790E+01  0.89808070699E+02  0.91457982387E+02  0.00000000000E+00 0. -1.
         11    1    1    2    0    0  0.21683682115E+01  0.35501787442E+02 -0.99787865179E+01  0.36941235938E+02  0.00000000000E+00 0.  1.
</event>
<event>
 7    1  0.2490079E-009  0.2069478E+03  0.7561462E-02  0.1144006E+00
          1   -1    0    0  501    0  0.00000000000E+00  0.00000000000E+00  0.91030579741E+03  0.91030579741E+03  0.00000000000E+00 0. -1.
         -1   -1    0    0    0  501 -0.00000000000E+00 -0.00000000000E+00 -0.57826530529E+02  0.57826530529E+02  0.00000000000E+00 0.  1.
         25    2    1    2    0    0  0.10910079898E+03 -0.16552600469E+03  0.37732029106E+03  0.44420828680E+03  0.12509419429E+03 0.  0.
          5    1    3    3  502    0  0.90765175795E+02 -0.60986298544E+02  0.10397131834E+03  0.15094751798E+03  0.41800000000E+01 0. -1.
         -5    1    3    3    0  502  0.18335623184E+02 -0.10453970615E+03  0.27334897272E+03  0.29326076882E+03  0.41800000000E+01 0. -1.
        -11    1    1    2    0    0 -0.91313095733E+02  0.13848989784E+03  0.45837438394E+03  0.48746754672E+03  0.00000000000E+00 0. -1.
         11    1    1    2    0    0 -0.17787703246E+02  0.27036106857E+02  0.16784591883E+02  0.36456494420E+02  0.00000000000E+00 0.  1.
</event>
<event>
 7    1  0.2490079E-009  0.2568572E+03  0.7561462E-02  0.1109046E+00
          1   -1    0    0  501    0  0.00000000000E+00  0.00000000000E+00  0.65261692866E+03  0.65261692866E+03  0.00000000000E+00 0. -1.
         -1   -1    0    0    0  501 -0.00000000000E+00 -0.00000000000E+00 -0.11186506545E+03  0.11186506545E+03  0.00000000000E+00 0.  1.
         25    2    1    2    0    0  0.67839215511E+02  0.23746998057E+03  0.29239136076E+03  0.40265962037E+03  0.12509161120E+03 0.  0.
          5    1    3    3  502    0  0.11416491562E+01  0.17564993058E+03  0.24058449489E+03  0.29791370068E+03  0.41800000000E+01 0. -1.
         -5    1    3    3    0  502  0.66697566355E+02  0.61820049999E+02  0.51806865878E+02  0.10474591969E+03  0.41800000000E+01 0. -1.
        -11    1    1    2    0    0 -0.35988337550E+02 -0.12341154187E+03  0.19102036551E+03  0.23024845091E+03  0.00000000000E+00 0. -1.
         11    1    1    2    0    0 -0.31850877960E+02 -0.11405843871E+03  0.57340136936E+02  0.13157392284E+03  0.00000000000E+00 0.  1.
</event>
<event>
 7    1  0.2490079E-009  0.1612529E+03  0.7561462E-02  0.1187289E+00
          2   -1    0    0  501    0  0.00000000000E+00  0.00000000000E+00  0.11627372656E+04  0.11627372656E+04  0.00000000000E+00 0. -1.
         -2   -1    0    0    0  501 -0.00000000000E+00 -0.00000000000E+00 -0.24846127533E+02  0.24846127533E+02  0.00000000000E+00 0.  1.
         25    2    1    2    0    0 -0.12270155099E+03  0.39701139348E+01  0.76952898258E+03  0.78923644643E+03  0.12509149021E+03 0.  0.
          5    1    3    3  502    0 -0.10996555236E+03 -0.45926411314E+02  0.61013160186E+03  0.62167491662E+03  0.41800000000E+01 0. -1.
         -5    1    3    3    0  502 -0.12735998626E+02  0.49896525249E+02  0.15939738072E+03  0.16756152981E+03  0.41800000000E+01 0. -1.
        -11    1    1    2    0    0  0.11641367377E+03 -0.33712155912E+02  0.29144213938E+03  0.31563772510E+03  0.00000000000E+00 0.  1.
         11    1    1    2    0    0  0.62878772170E+01  0.29742041977E+02  0.76920016090E+02  0.82709221591E+02  0.00000000000E+00 0. -1.
</event>
<event>
 7    1  0.2490079E-009  0.1029696E+03  0.7561462E-02  0.1274172E+00
          1   -1    0    0  501    0  0.00000000000E+00  0.00000000000E+00  0.12098292210E+04  0.12098292210E+04  0.00000000000E+00 0. -1.
         -1   -1    0    0    0  501 -0.00000000000E+00 -0.00000000000E+00 -0.13211185935E+02  0.13211185935E+02  0.00000000000E+00 0.  1.
         25    2    1    2    0    0 -0.50949633690E+02  0.13405993110E+02  0.83123070630E+03  0.84223962450E+03  0.12509001619E+03 0.  0.
          5    1    3    3  502    0 -0.78107303660E+02  0.40679497966E+02  0.69646512032E+03  0.70202329638E+03  0.41800000000E+01 0.  1.
         -5    1    3    3    0  502  0.27157669970E+02 -0.27273504857E+02  0.13476558599E+03  0.14021632812E+03  0.41800000000E+01 0.  1.
        -11    1    1    2    0    0 -0.13270773153E+02  0.76926515083E+00  0.45971545989E+01  0.14065525918E+02  0.00000000000E+00 0.  1.
         11    1    1    2    0    0  0.64220406842E+02 -0.14175258260E+02  0.36079017421E+03  0.36673525657E+03  0.00000000000E+00 0. -1.
</event>
<event>
 7    1  0.2490079E-009  0.8974690E+02  0.7561462E-02  0.1303466E+00
          2   -1    0    0  501    0  0.00000000000E+00  0.00000000000E+00  0.24660964808E+03  0.24660964808E+03  0.00000000000E+00 0.  1.
         -2   -1    0    0    0  501 -0.00000000000E+00 -0.00000000000E+00 -0.53298335017E+02  0.53298335017E+02  0.00000000000E+00 0. -1.
         25    2    1    2    0    0 -0.24521309013E+01 -0.37632303688E+02  0.10113352638E+03  0.16522022696E+03  0.12509008759E+03 0.  0.
          5    1    3    3  502    0  0.52035269991E+02 -0.13515586602E+01  0.81420080419E+02  0.96727441449E+02  0.41800000000E+01 0. -1.
         -5    1    3    3    0  502 -0.54487400892E+02 -0.36280745028E+02  0.19713445964E+02  0.68492785515E+02  0.41800000000E+01 0. -1.
        -11    1    1    2    0    0 -0.17355945929E+02 -0.19020332277E+01  0.88622472487E+02  0.90326016292E+02  0.00000000000E+00 0.  1.
         11    1    1    2    0    0  0.19808076830E+02  0.39534336916E+02  0.35553141967E+01  0.44361739846E+02  0.00000000000E+00 0. -1.
</event>
<event>
 7    1  0.2490079E-009  0.1239111E+03  0.7561462E-02  0.1236781E+00
          1   -1    0    0  501    0  0.00000000000E+00  0.00000000000E+00  0.68514389071E+03  0.68514389071E+03  0.00000000000E+00 0. -1.
         -1   -1    0    0    0  501 -0.00000000000E+00 -0.00000000000E+00 -0.27700699359E+02  0.27700699359E+02  0.00000000000E+00 0.  1.
         25    2    1    2    0    0  0.56333762152E+02  0.42513326313E+02  0.47616751632E+03  0.49735668966E+03  0.12508915812E+03 0.  0.
          5    1    3    3  502    0 -0.15536058412E+02  0.59198106847E+02  0.30186956073E+03  0.30803975240E+03  0.41800000000E+01 0.  1.
         -5    1    3    3    0  502  0.71869820563E+02 -0.16684780534E+02  0.17429795559E+03  0.18931693726E+03  0.41800000000E+01 0.  1.
        -11    1    1    2    0    0 -0.44465216332E+02  0.20137185507E+02  0.10691984323E+03  0.11753516316E+03  0.00000000000E+00 0. -1.
         11    1    1    2    0    0 -0.11868545820E+02 -0.62650511820E+02  0.74355831796E+02  0.97952737243E+02  0.00000000000E+00 0.  1.
</event>
<event>
 7    1  0.2490079E-009  0.8190872E+02  0.7561462E-02  0.1323720E+00
          1   -1    0    0  501    0  0.00000000000E+00  0.00000000000E+00  0.72728567391E+02  0.72728567391E+02  0.00000000000E+00 0. -1.
         -1   -1    0    0    0  501 -0.00000000000E+00 -0.00000000000E+00 -0.15229116907E+03  0.15229116907E+03  0.00000000000E+00 0.  1.
         25    2    1    2    0    0 -0.15276504027E+01  0.27181605725E+02 -0.10669834731E+02  0.12846457316E+03  0.12509247691E+03 0.  0.
          5    1    3    3  502    0  0.53699072299E+02  0.14075571109E+02  0.25286241533E+02  0.61143916122E+02  0.41800000000E+01 0.  1.
         -5    1    3    3    0  502 -0.55226722702E+02  0.13106034616E+02 -0.35956076265E+02  0.67320657039E+02  0.41800000000E+01 0.  1.
        -11    1    1    2    0    0  0.20100102648E+02 -0.23688925608E+01  0.82764519595E+00  0.20256129320E+02  0.00000000000E+00 0. -1.
         11    1    1    2    0    0 -0.18572452246E+02 -0.24812713164E+02 -0.69720412146E+02  0.76299033983E+02  0.00000000000E+00 0.  1.
</event>
<event>
 7    1  0.2490079E-009  0.1081375E+03  0.7561462E-02  0.1264058E+00
         -2   -1    0    0    0  501 -0.00000000000E+00  0.00000000000E+00  0.17332238068E+03  0.17332238068E+03  0.00000000000E+00 0.  1.
          2   -1    0    0  501    0  0.00000000000E+00 -0.00000000000E+00 -0.74249369447E+02  0.74249369447E+02  0.00000000000E+00 0. -1.
         25    2    1    2    0    0  0.76342649983E+01  0.29748048349E+02  0.69827251959E+02  0.14651444190E+03  0.12508960064E+03 0.  0.
          5    1    3    3  502    0 -0.50902520777E+01  0.73622429106E+02  0.68261603278E+02  0.10061456960E+03  0.41800000000E+01 0.  1.
         -5    1    3    3    0  502  0.12724517076E+02 -0.43874380757E+02  0.15656486805E+01  0.45899872303E+02  0.41800000000E+01 0.  1.
        -11    1    1    2    0    0 -0.47288244096E+02 -0.63639749143E+00  0.17949245083E+02  0.50584171739E+02  0.00000000000E+00 0.  1.
         11    1    1    2    0    0  0.39653979098E+02 -0.29111650857E+02  0.11296514194E+02  0.50473136487E+02  0.00000000000E+00 0. -1.
</event>
<event>
 7    1  0.2490079E-009  0.8269833E+02  0.7561462E-02  0.1321564E+00
         -2   -1    0    0    0  501 -0.00000000000E+00  0.00000000000E+00  0.24956673512E+03  0.24956673512E+03  0.00000000000E+00 0.  1.
          2   -1    0    0  501    0  0.00000000000E+00 -0.00000000000E+00 -0.51627527516E+02  0.51627527516E+02  0.00000000000E+00 0. -1.
         25    2    1    2    0    0 -0.16063085491E+02 -0.24201190062E+02  0.12981366779E+03  0.18260194945E+03  0.12509261882E+03 0.  0.
          5    1    3    3  502    0 -0.32962694515E+02  0.28279459487E+02  0.23882032395E+01  0.43697173516E+02  0.41800000000E+01 0.  1.
         -5    1    3    3    0  502  0.16899609024E+02 -0.52480649549E+02  0.12742546455E+03  0.13890477594E+03  0.41800000000E+01 0.  1.
        -11    1    1    2    0    0  0.27436282252E+02  0.39076897494E+02 -0.20012225141E+00  0.47747183691E+02  0.00000000000E+00 0. -1.
         11    1    1    2    0    0 -0.11373196761E+02 -0.14875707432E+02  0.68325662064E+02  0.70845129491E+02  0.00000000000E+00 0.  1.
</event>
<event>
 7    1  0.2490079E-009  0.1121037E+03  0.7561462E-02  0.1256723E+00
         -1   -1    0    0    0  501 -0.00000000000E+00  0.00000000000E+00  0.26015302745E+02  0.26015302745E+02  0.00000000000E+00 0.  1.
          1   -1    0    0  501    0  0.00000000000E+00 -0.00000000000E+00 -0.70544614799E+03  0.70544614799E+03  0.00000000000E+00 0. -1.
         25    2    1    2    0    0  0.10574693761E+02 -0.45765218743E+02 -0.55361782488E+03  0.56951420668E+03  0.12508979252E+03 0.  0.
          5    1    3    3  502    0 -0.13021012482E+02  0.35435918697E+02 -0.82163019469E+02  0.90517872645E+02  0.41800000000E+01 0.  1.
         -5    1    3    3    0  502  0.23595706243E+02 -0.81201137440E+02 -0.47145480541E+03  0.47899633404E+03  0.41800000000E+01 0.  1.
        -11    1    1    2    0    0 -0.45725196136E+02  0.48058774819E+02 -0.75117923383E+02  0.10021547691E+03  0.00000000000E+00 0.  1.
         11    1    1    2    0    0  0.35150502375E+02 -0.22935560761E+01 -0.50695096984E+02  0.61731767145E+02  0.00000000000E+00 0. -1.
</event>
<event>
 7    1  0.2490079E-009  0.1109261E+03  0.7561462E-02  0.1258864E+00
          2   -1    0    0  501    0  0.00000000000E+00  0.00000000000E+00  0.24922917757E+03  0.24922917757E+03  0.00000000000E+00 0. -1.
         -2   -1    0    0    0  501 -0.00000000000E+00 -0.00000000000E+00 -0.66035386382E+02  0.66035386382E+02  0.00000000000E+00 0.  1.
         25    2    1    2    0    0  0.55035777811E+02  0.14837500104E+02  0.15584432157E+03  0.20780876071E+03  0.12509172720E+03 0.  0.
          5    1    3    3  502    0  0.50151245430E+02 -0.48318733274E+02  0.55860834969E+02  0.89374228314E+02  0.41800000000E+01 0.  1.
         -5    1    3    3    0  502  0.48845323810E+01  0.63156233378E+02  0.99983486601E+02  0.11843453240E+03  0.41800000000E+01 0.  1.
        -11    1    1    2    0    0 -0.29015626004E+02 -0.41961723893E+02 -0.12656115747E+02  0.52563010666E+02  0.00000000000E+00 0.  1.
         11    1    1    2    0    0 -0.26020151807E+02  0.27124223789E+02  0.40005585365E+02  0.54892792575E+02  0.00000000000E+00 0. -1.
</event>
<event>
 7    1  0.2490079E-009  0.1733388E+03  0.7561462E-02  0.1174410E+00
         -2   -1    0    0    0  501 -0.00000000000E+00  0.00000000000E+00  0.38487413577E+02  0.38487413577E+02  0.00000000000E+00 0. -1.
          2   -1    0    0  501    0  0.00000000000E+00 -0.00000000000E+00 -0.89212403449E+03  0.89212403449E+03  0.00000000000E+00 0.  1.
         25    2    1    2    0    0  0.51566224998E+02  0.13136176491E+03 -0.32760453221E+03  0.37800220438E+03  0.12508376454E+03 0.  0.
          5    1    3    3  502    0  0.10065349795E+02  0.13531150856E+03 -0.29559690486E+03  0.32527760172E+03  0.41800000000E+01 0. -1.
         -5    1    3    3    0  502  0.41500875202E+02 -0.39497436488E+01 -0.32007627347E+02  0.52724602662E+02  0.41800000000E+01 0. -1.
        -11    1    1    2    0    0 -0.44527535745E+01  0.14804041812E+02 -0.39583125008E+02  0.42494828553E+02  0.00000000000E+00 0. -1.
         11    1    1    2    0    0 -0.47113471423E+02 -0.14616580673E+03 -0.48644896370E+03  0.51011441514E+03  0.00000000000E+00 0.  1.
</event>
<event>
 7    1  0.2490079E-009  0.8239886E+02  0.7561462E-02  0.1322378E+00
         -1   -1    0    0    0  501 -0.00000000000E+00  0.00000000000E+00  0.81048481870E+03  0.81048481870E+03  0.00000000000E+00 0.  1.
          1   -1    0    0  501    0  0.00000000000E+00 -0.00000000000E+00 -0.17536094962E+02  0.17536094962E+02  0.00000000000E+00 0. -1.
         25    2    1    2    0    0  0.30251509358E+02  0.36161610231E+02  0.36353937513E+03  0.38733669047E+03  0.12508404632E+03 0.  0.
          5    1    3    3  502    0 -0.75971743125E+01 -0.47803253913E+01  0.30923375776E+03  0.30939223958E+03  0.41800000000E+01 0.  1.
         -5    1    3    3    0  502  0.37848683671E+02  0.40941935622E+02  0.54305617364E+02  0.77944450895E+02  0.41800000000E+01 0.  1.
        -11    1    1    2    0    0  0.25613268155E+02  0.89986243223E+01  0.12491198890E+03  0.12782808657E+03  0.00000000000E+00 0.  1.
         11    1    1    2    0    0 -0.55864777513E+02 -0.45160234553E+02  0.30449735971E+03  0.31285613662E+03  0.00000000000E+00 0. -1.
</event>
<event>
 7    1  0.2490079E-009  0.8995308E+02  0.7561462E-02  0.1302965E+00
         -3   -1    0    0    0  501 -0.00000000000E+00  0.00000000000E+00  0.84860680726E+02  0.84860680726E+02  0.00000000000E+00 0.  1.
          3   -1    0    0  501    0  0.00000000000E+00 -0.00000000000E+00 -0.14051500796E+03  0.14051500796E+03  0.00000000000E+00 0. -1.
         25    2    1    2    0    0 -0.11004414017E+02 -0.13235557233E+02 -0.16850368013E+02  0.12740046980E+03  0.12510262867E+03 0.  0.
          5    1    3    3  502    0  0.10202725459E+02  0.36818110984E+02  0.35130850052E+02  0.52070317155E+02  0.41800000000E+01 0. -1.
         -5    1    3    3    0  502 -0.21207139476E+02 -0.50053668217E+02 -0.51981218065E+02  0.75330152650E+02  0.41800000000E+01 0. -1.
        -11    1    1    2    0    0 -0.17906538838E+02  0.42313609666E+02 -0.32983311917E+02  0.56559566487E+02  0.00000000000E+00 0. -1.
         11    1    1    2    0    0  0.28910952855E+02 -0.29078052433E+02 -0.58206473049E+01  0.41415652395E+02  0.00000000000E+00 0.  1.
</event>
<event>
 7    1  0.2490079E-009  0.9762287E+02  0.7561462E-02  0.1285376E+00
          1   -1    0    0  501    0  0.00000000000E+00  0.00000000000E+00  0.16310015301E+03  0.16310015301E+03  0.00000000000E+00 0. -1.
         -1   -1    0    0    0  501 -0.00000000000E+00 -0.00000000000E+00 -0.11070885380E+03  0.11070885380E+03  0.00000000000E+00 0.  1.
         25    2    1    2    0    0  0.55844096911E+01  0.64906588436E+02 -0.16149557983E+02  0.14195715507E+03  0.12508786831E+03 0.  0.
          5    1    3    3  502    0  0.37431996006E+02 -0.79819314251E+00  0.36019258202E+02  0.52121500350E+02  0.41800000000E+01 0. -1.
         -5    1    3    3    0  502 -0.31847586315E+02  0.65704781579E+02 -0.52168816185E+02  0.89835654718E+02  0.41800000000E+01 0. -1.
        -11    1    1    2    0    0 -0.25463680172E+02 -0.12459409576E+02  0.70232632272E+02  0.75738091676E+02  0.00000000000E+00 0.  1.
         11    1    1    2    0    0  0.19879270481E+02 -0.52447178860E+02 -0.16917750804E+01  0.56113760060E+02  0.00000000000E+00 0. -1.
</event>
<event>
 7    1  0.2490079E-009  0.1632942E+03  0.7561462E-02  0.1185027E+00
          1   -1    0    0  501    0  0.00000000000E+00  0.00000000000E+00  0.67308835292E+03  0.67308835292E+03  0.00000000000E+00 0. -1.
         -1   -1    0    0    0  501 -0.00000000000E+00 -0.00000000000E+00 -0.65676350752E+02  0.65676350752E+02  0.00000000000E+00 0.  1.
         25    2    1    2    0    0 -0.13720919422E+03  0.36254847108E+02  0.48037804175E+03  0.51628632812E+03  0.12509089770E+03 0.  0.
          5    1    3    3  502    0 -0.10116113716E+03 -0.20614361270E+02  0.39031167849E+03  0.40375637002E+03  0.41800000000E+01 0. -1.
         -5    1    3    3    0  502 -0.36048057062E+02  0.56869208378E+02  0.90066363256E+02  0.11252995810E+03  0.41800000000E+01 0. -1.
        -11    1    1    2    0    0  0.63229019348E+02  0.16007729946E+02 -0.14929093760E+01  0.65240977032E+02  0.00000000000E+00 0.  1.
         11    1    1    2    0    0  0.73980174876E+02 -0.52262577054E+02  0.12852686979E+03  0.15723739852E+03  0.00000000000E+00 0. -1.
</event>
<event>
 7    1  0.2490079E-009  0.1082223E+03  0.7561462E-02  0.1263898E+00
          4   -1    0    0  501    0  0.00000000000E+00  0.00000000000E+00  0.24658835664E+02  0.24658835664E+02  0.00000000000E+00 0. -1.
         -4   -1    0    0    0  501 -0.00000000000E+00 -0.00000000000E+00 -0.57026343299E+03  0.57026343299E+03  0.00000000000E+00 0.  1.
         25    2    1    2    0    0 -0.38606399630E+02 -0.18671419485E+02 -0.24826962797E+03  0.28129073513E+03  0.12509034136E+03 0.  0.
          5    1    3    3  502    0 -0.34786357535E+02  0.50759452705E+02 -0.13302851177E+03  0.14663106783E+03  0.41800000000E+01 0. -1.
         -5    1    3    3    0  502 -0.38200420953E+01 -0.69430872190E+02 -0.11524111620E+03  0.13465966730E+03  0.41800000000E+01 0. -1.
        -11    1    1    2    0    0 -0.20152513965E+01  0.39434218879E+02 -0.22258383133E+03  0.22605902067E+03  0.00000000000E+00 0.  1.
         11    1    1    2    0    0  0.40621651027E+02 -0.20762799394E+02 -0.74751138027E+02  0.87572512852E+02  0.00000000000E+00 0. -1.
</event>
<event>
 7    1  0.2490079E-009  0.1089519E+03  0.7561462E-02  0.1262523E+00
         -1   -1    0    0    0  501 -0.00000000000E+00  0.00000000000E+00  0.77223546804E+02  0.77223546804E+02  0.00000000000E+00 0.  1.
          1   -1    0    0  501    0  0.00000000000E+00 -0.00000000000E+00 -0.23551713696E+03  0.23551713696E+03  0.00000000000E+00 0. -1.
         25    2    1    2    0    0 -0.37211403734E+02 -0.69242825818E+02 -0.65917861222E+02  0.16177762659E+03  0.12509028156E+03 0.  0.
          5    1    3    3  502    0  0.16138629799E+02 -0.41164688488E+02 -0.87076220130E+02  0.97748286236E+02  0.41800000000E+01 0.  1.
         -5    1    3    3    0  502 -0.53350033533E+02 -0.28078137330E+02  0.21158358908E+02  0.64029340349E+02  0.41800000000E+01 0.  1.
        -11    1    1    2    0    0  0.46460496826E+02  0.34163851700E+01 -0.62837105885E+02  0.78222447730E+02  0.00000000000E+00 0. -1.
         11    1    1    2    0    0 -0.92490930912E+01  0.65826440648E+02 -0.29538623052E+02  0.72740609450E+02  0.00000000000E+00 0.  1.
</event>
<event>
 7    1  0.2490079E-009  0.1422114E+03  0.7561462E-02  0.1210384E+00
         -2   -1    0    0    0  501 -0.00000000000E+00  0.00000000000E+00  0.36123637613E+02  0.36123637613E+02  0.00000000000E+00 0.  1.
          2   -1    0    0  501    0  0.00000000000E+00 -0.00000000000E+00 -0.71861457819E+03  0.71861457819E+03  0.00000000000E+00 0. -1.
         25    2    1    2    0    0 -0.41215969346E+02  0.10483821628E+03 -0.28887375172E+03  0.33434316420E+03  0.12508996479E+03 0.  0.
          5    1    3    3  502    0 -0.63890630982E+02  0.23850047369E+02 -0.61683716421E+02  0.92049936221E+02  0.41800000000E+01 0. -1.
         -5    1    3    3    0  502  0.22674661636E+02  0.80988168910E+02 -0.22719003530E+03  0.24229322798E+03  0.41800000000E+01 0. -1.
        -11    1    1    2    0    0 -0.39052107515E+01 -0.80557583093E+02 -0.32440283680E+03  0.33427829034E+03  0.00000000000E+00 0. -1.
         11    1    1    2    0    0  0.45121180097E+02 -0.24280633185E+02 -0.69214352055E+02  0.86116761270E+02  0.00000000000E+00 0.  1.
</event>
<event>
 7    1  0.2490079E-009  0.6652926E+02  0.7561462E-02  0.1372310E+00
          1   -1    0    0  501    0  0.00000000000E+00  0.00000000000E+00  0.19896624058E+03  0.19896624058E+03  0.00000000000E+00 0. -1.
         -1   -1    0    0    0  501 -0.00000000000E+00 -0.00000000000E+00 -0.67063275931E+02  0.67063275931E+02  0.00000000000E+00 0.  1.
         25    2    1    2    0    0 -0.58999519348E+00  0.17516286036E+02  0.31299141853E+02  0.13012906386E+03  0.12508704413E+03 0.  0.
          5    1    3    3  502    0  0.24760873862E+02 -0.16623872994E+02  0.67637165759E+02  0.74038588720E+02  0.41800000000E+01 0. -1.
         -5    1    3    3    0  502 -0.25350869055E+02  0.34140159029E+02 -0.36338023906E+02  0.56090475143E+02  0.41800000000E+01 0. -1.
        -11    1    1    2    0    0 -0.11929029709E+02 -0.35980860570E+02  0.56067871054E+01  0.38319187606E+02  0.00000000000E+00 0.  1.
         11    1    1    2    0    0  0.12519024902E+02  0.18464574534E+02  0.94997035691E+02  0.97581265042E+02  0.00000000000E+00 0. -1.
</event>
<event>
 7    1  0.2490079E-009  0.1050894E+03  0.7561462E-02  0.1269944E+00
         -2   -1    0    0    0  501 -0.00000000000E+00  0.00000000000E+00  0.72549231410E+02  0.72549231410E+02  0.00000000000E+00 0. -1.
          2   -1    0    0  501    0  0.00000000000E+00 -0.00000000000E+00 -0.20561024251E+03  0.20561024251E+03  0.00000000000E+00 0.  1.
         25    2    1    2    0    0 -0.25410132390E+02 -0.17150784047E+02 -0.13085827360E+03  0.18360616742E+03  0.12509001849E+03 0.  0.
          5    1    3    3  502    0  0.43975851655E+02  0.91305920636E+01 -0.18191253466E+02  0.48637818031E+02  0.41800000000E+01 0.  1.
         -5    1    3    3    0  502 -0.69385984044E+02 -0.26281376110E+02 -0.11266702013E+03  0.13496834939E+03  0.41800000000E+01 0.  1.
        -11    1    1    2    0    0  0.51812554313E+02  0.31570525899E+02  0.11065103896E+02  0.61673944370E+02  0.00000000000E+00 0.  1.
         11    1    1    2    0    0 -0.26402421923E+02 -0.14419741852E+02 -0.13267841398E+02  0.32879362127E+02  0.00000000000E+00 0. -1.
</event>
<event>
 7    1  0.2490079E-009  0.9506788E+02  0.7561462E-02  0.1291023E+00
         -2   -1    0    0    0  501 -0.00000000000E+00  0.00000000000E+00  0.86722290244E+02  0.86722290244E+02  0.00000000000E+00 0.  1.
          2   -1    0    0  501    0  0.00000000000E+00 -0.00000000000E+00 -0.15165872939E+03  0.15165872939E+03  0.00000000000E+00 0. -1.
         25    2    1    2    0    0  0.22005425548E+02  0.81219978191E+01 -0.12100959545E+02  0.12784283958E+03  0.12508857985E+03 0.  0.
          5    1    3    3  502    0 -0.25694629565E+02 -0.47278231234E+02 -0.30100561284E+01  0.54055323281E+02  0.41800000000E+01 0. -1.
         -5    1    3    3    0  502  0.47700055113E+02  0.55400229053E+02 -0.90909034167E+01  0.73787516301E+02  0.41800000000E+01 0. -1.
        -11    1    1    2    0    0 -0.29608453312E+02 -0.28556680210E+02 -0.71069093372E+02  0.82115531570E+02  0.00000000000E+00 0. -1.
         11    1    1    2    0    0  0.76030277646E+01  0.20434682391E+02  0.18233613771E+02  0.28422648483E+02  0.00000000000E+00 0.  1.
</event>
<event>
 7    1  0.2490079E-009  0.1068157E+03  0.7561462E-02  0.1266583E+00
         -1   -1    0    0    0  501 -0.00000000000E+00  0.00000000000E+00  0.23371575370E+03  0.23371575370E+03  0.00000000000E+00 0.  1.
          1   -1    0    0  501    0  0.00000000000E+00 -0.00000000000E+00 -0.78260308765E+02  0.78260308765E+02  0.00000000000E+00 0. -1.
         25    2    1    2    0    0 -0.73225436146E+02  0.32838404659E+02  0.94188675149E+02  0.17596530470E+03  0.12510777998E+03 0.  0.
          5    1    3    3  502    0 -0.13209056102E+02 -0.11466940855E+02 -0.27684129459E+02  0.33012926553E+02  0.41800000000E+01 0. -1.
         -5    1    3    3    0  502 -0.60016380043E+02  0.44305345514E+02  0.12187280461E+03  0.14295237815E+03  0.41800000000E+01 0. -1.
        -11    1    1    2    0    0  0.66660122859E+02 -0.62002288990E+02  0.51315259840E+02  0.10450412294E+03  0.00000000000E+00 0.  1.
         11    1    1    2    0    0  0.65653132864E+01  0.29163884331E+02  0.99515099501E+01  0.31506634827E+02  0.00000000000E+00 0. -1.
</event>
<event>
 7    1  0.2490079E-009  0.1034673E+03  0.7561462E-02  0.1273169E+00
         -1   -1    0    0    0  501 -0.00000000000E+00  0.00000000000E+00  0.51676638537E+02  0.51676638537E+02  0.00000000000E+00 0.  1.
          1   -1    0    0  501    0  0.00000000000E+00 -0.00000000000E+00 -0.28077027038E+03  0.28077027038E+03  0.00000000000E+00 0. -1.
         25    2    1    2    0    0 -0.22321509976E+02  0.14501092872E+02 -0.19534570944E+03  0.23348547581E+03  0.12508792794E+03 0.  0.
          5    1    3    3  502    0  0.12367589653E+02  0.63358550609E+02 -0.12678629170E+03  0.14233586819E+03  0.41800000000E+01 0.  1.
         -5    1    3    3    0  502 -0.34689099629E+02 -0.48857457736E+02 -0.68559417736E+02  0.91149607624E+02  0.41800000000E+01 0.  1.
        -11    1    1    2    0    0  0.15326422690E+02  0.31827715465E+02  0.79845634174E+01  0.36216791094E+02  0.00000000000E+00 0.  1.
         11    1    1    2    0    0  0.69950872858E+01 -0.46328808337E+02 -0.41732485819E+02  0.62744642008E+02  0.00000000000E+00 0. -1.
</event>
<event>
 7    1  0.2490079E-009  0.9421161E+02  0.7561462E-02  0.1292962E+00
          2   -1    0    0  501    0  0.00000000000E+00  0.00000000000E+00  0.58764684167E+03  0.58764684167E+03  0.00000000000E+00 0. -1.
         -2   -1    0    0    0  501 -0.00000000000E+00 -0.00000000000E+00 -0.32322652929E+02  0.32322652929E+02  0.00000000000E+00 0.  1.
         25    2    1    2    0    0  0.59934154802E+02  0.13510815885E+01  0.43398321330E+03  0.45561306501E+03  0.12509159546E+03 0.  0.
          5    1    3    3  502    0  0.93937015361E+02  0.25526524360E+01  0.22553375904E+03  0.24436372022E+03  0.41800000000E+01 0.  1.
         -5    1    3    3    0  502 -0.34002860559E+02 -0.12015708474E+01  0.20844945425E+03  0.21124934480E+03  0.41800000000E+01 0.  1.
        -11    1    1    2    0    0 -0.33322917450E+02  0.12072980491E+01 -0.63095592060E+01  0.33936483810E+02  0.00000000000E+00 0.  1.
         11    1    1    2    0    0 -0.26611237352E+02 -0.25583796377E+01  0.12765053465E+03  0.13041994578E+03  0.00000000000E+00 0. -1.
</event>
<event>
 7    1  0.2490079E-009  0.1608598E+03  0.7561462E-02  0.1187729E+00
          2   -1    0    0  501    0  0.00000000000E+00  0.00000000000E+00  0.10262919006E+04  0.10262919006E+04  0.00000000000E+00 0. -1.
         -2   -1    0    0    0  501 -0.00000000000E+00 -0.00000000000E+00 -0.30193980713E+02  0.30193980713E+02  0.00000000000E+00 0.  1.
         25    2    1    2    0    0 -0.68082290957E+02 -0.11788275515E+03  0.49994858949E+03  0.53303267118E+03  0.12507475408E+03 0.  0.
          5    1    3    3  502    0 -0.10180444507E+03 -0.67857609484E+02  0.36942507641E+03  0.38918011214E+03  0.41800000000E+01 0. -1.
         -5    1    3    3    0  502  0.33722154113E+02 -0.50025145667E+02  0.13052351308E+03  0.14385255904E+03  0.41800000000E+01 0. -1.
        -11    1    1    2    0    0  0.16045464644E+01  0.22534333712E+02  0.12068229143E+02  0.25612749166E+02  0.00000000000E+00 0.  1.
         11    1    1    2    0    0  0.66477744492E+02  0.95348421439E+02  0.48408110121E+03  0.49784046092E+03  0.00000000000E+00 0. -1.
</event>
<event>
 7    1  0.2490079E-009  0.2729423E+03  0.7561462E-02  0.1099607E+00
          2   -1    0    0  501    0  0.00000000000E+00  0.00000000000E+00  0.27967106258E+03  0.27967106258E+03  0.00000000000E+00 0. -1.
         -2   -1    0    0    0  501 -0.00000000000E+00 -0.00000000000E+00 -0.34972547733E+03  0.34972547733E+03  0.00000000000E+00 0.  1.
         25    2    1    2    0    0  0.24329412812E+03 -0.70265523883E+02  0.11216065894E+03  0.30390146265E+03  0.12508720545E+03 0.  0.
          5    1    3    3  502    0  0.25471979721E+03 -0.62299618378E+02  0.11880196427E+03  0.28791456486E+03  0.41800000000E+01 0. -1.
         -5    1    3    3    0  502 -0.11425669093E+02 -0.79659055047E+01 -0.66413053312E+01  0.15986897799E+02  0.41800000000E+01 0. -1.
        -11    1    1    2    0    0 -0.12969255502E+03 -0.98577955968E+01 -0.76972105424E+02  0.15113583286E+03  0.00000000000E+00 0.  1.
         11    1    1    2    0    0 -0.11360157310E+03  0.80123319479E+02 -0.10524296827E+03  0.17435924439E+03  0.00000000000E+00 0. -1.
</event>
<event>
 7    1  0.2490079E-009  0.1662299E+03  0.7561462E-02  0.1181837E+00
         -2   -1    0    0    0  501 -0.00000000000E+00  0.00000000000E+00  0.27950788874E+03  0.27950788874E+03  0.00000000000E+00 0. -1.
          2   -1    0    0  501    0  0.00000000000E+00 -0.00000000000E+00 -0.12568996474E+03  0.12568996474E+03  0.00000000000E+00 0.  1.
         25    2    1    2    0    0 -0.64737328895E+02 -0.13575189224E+03  0.52916632868E+02  0.20264497259E+03  0.12508124113E+03 0.  0.
          5    1    3    3  502    0 -0.82247141048E+02 -0.13034791005E+03  0.76800341131E+02  0.17225253166E+03  0.41800000000E+01 0.  1.
         -5    1    3    3    0  502  0.17509812152E+02 -0.54039821851E+01 -0.23883708263E+02  0.30392440927E+02  0.41800000000E+01 0.  1.
        -11    1    1    2    0    0 -0.94572407871E+01  0.17095760495E+02 -0.11840591082E+02  0.22845218917E+02  0.00000000000E+00 0.  1.
         11    1    1    2    0    0  0.74194569682E+02  0.11865613174E+03  0.11274188221E+03  0.17970766198E+03  0.00000000000E+00 0. -1.
</event>
<event>
 7    1  0.2490079E-009  0.7966562E+02  0.7561462E-02  0.1330003E+00
          2   -1    0    0  501    0  0.00000000000E+00  0.00000000000E+00  0.11784726828E+04  0.11784726828E+04  0.00000000000E+00 0. -1.
         -2   -1    0    0    0  501 -0.00000000000E+00 -0.00000000000E+00 -0.11346918463E+02  0.11346918463E+02  0.00000000000E+00 0.  1.
         25    2    1    2    0    0 -0.12813298011E+02  0.23187595545E+02  0.82039198226E+03  0.83029662692E+03  0.12509052296E+03 0.  0.
          5    1    3    3  502    0 -0.33523293530E+02  0.27104630308E+02  0.93041055004E+02  0.10262837088E+03  0.41800000000E+01 0. -1.
         -5    1    3    3    0  502  0.20709995519E+02 -0.39170347627E+01  0.72735092725E+03  0.72766825604E+03  0.41800000000E+01 0. -1.
        -11    1    1    2    0    0 -0.35700657295E+02 -0.28562825785E+02  0.14921183557E+03  0.15605942401E+03  0.00000000000E+00 0.  1.
         11    1    1    2    0    0  0.48513955306E+02  0.53752302399E+01  0.19752194647E+03  0.20346355029E+03  0.00000000000E+00 0. -1.
</event>
<event>
 7    1  0.2490079E-009  0.2329842E+03  0.7561462E-02  0.1124557E+00
         -1   -1    0    0    0  501 -0.00000000000E+00  0.00000000000E+00  0.34092125158E+03  0.34092125158E+03  0.00000000000E+00 0.  1.
          1   -1    0    0  501    0  0.00000000000E+00 -0.00000000000E+00 -0.18719776160E+03  0.18719776160E+03  0.00000000000E+00 0. -1.
         25    2    1    2    0    0 -0.21341455758E+03  0.41033647067E+02  0.15114349607E+03  0.29278271491E+03  0.12509127935E+03 0.  0.
          5    1    3    3  502    0 -0.10164864847E+03 -0.23835392847E+02  0.12128027941E+03  0.16008420366E+03  0.41800000000E+01 0.  1.
         -5    1    3    3    0  502 -0.11176590911E+03  0.64869039914E+02  0.29863216656E+02  0.13269851125E+03  0.41800000000E+01 0.  1.
        -11    1    1    2    0    0  0.10223182017E+03  0.21720970844E+02  0.20223452319E+02  0.10645249482E+03  0.00000000000E+00 0.  1.
         11    1    1    2    0    0  0.11118273741E+03 -0.62754617911E+02 -0.17643458411E+02  0.12888380345E+03  0.00000000000E+00 0. -1.
</event>
<event>
 7    1  0.2490079E-009  0.7275709E+02  0.7561462E-02  0.1350961E+00
          1   -1    0    0  501    0  0.00000000000E+00  0.00000000000E+00  0.44663418198E+03  0.44663418198E+03  0.00000000000E+00 0. -1.
         -1   -1    0    0    0  501 -0.00000000000E+00 -0.00000000000E+00 -0.30087065992E+02  0.30087065992E+02  0.00000000000E+00 0.  1.
         25    2    1    2    0    0  0.12506888019E+01 -0.41664949406E+02  0.25477756530E+03  0.28687238112E+03  0.12508646225E+03 0.  0.
          5    1    3    3  502    0  0.26229249662E+02 -0.41830629077E+02  0.25673259819E+03  0.26147059957E+03  0.41800000000E+01 0.  1.
         -5    1    3    3    0  502 -0.24978560860E+02  0.16567967142E+00 -0.19550328901E+01  0.25401781551E+02  0.41800000000E+01 0.  1.
        -11    1    1    2    0    0 -0.28900700447E+02  0.25904274027E+02  0.18331419817E+02  0.42922288519E+02  0.00000000000E+00 0.  1.
         11    1    1    2    0    0  0.27650011645E+02  0.15760675379E+02  0.14343813087E+03  0.14692657833E+03  0.00000000000E+00 0. -1.
</event>
<event>
 7    1  0.2490079E-009  0.8626073E+02  0.7561462E-02  0.1312168E+00
         -1   -1    0    0    0  501 -0.00000000000E+00  0.00000000000E+00  0.62579667219E+02  0.62579667219E+02  0.00000000000E+00 0.  1.
          1   -1    0    0  501    0  0.00000000000E+00 -0.00000000000E+00 -0.20588134514E+03  0.20588134514E+03  0.00000000000E+00 0. -1.
         25    2    1    2    0    0 -0.10379207894E+02 -0.34047882647E+02 -0.72646999867E+02  0.14896929294E+03  0.12508907779E+03 0.  0.
          5    1    3    3  502    0  0.50355060006E+02  0.50157688413E+01 -0.54307028545E+02  0.74347264607E+02  0.41800000000E+01 0.  1.
         -5    1    3    3    0  502 -0.60734267900E+02 -0.39063651488E+02 -0.18339971323E+02  0.74622028337E+02  0.41800000000E+01 0.  1.
        -11    1    1    2    0    0  0.16298560286E+02  0.15421321498E+01  0.18326686058E+02  0.24574146187E+02  0.00000000000E+00 0.  1.
         11    1    1    2    0    0 -0.59193523915E+01  0.32505750497E+02 -0.88981364109E+02  0.94917573225E+02  0.00000000000E+00 0. -1.
</event>
<event>
 7    1  0.2490079E-009  0.9468406E+02  0.7561462E-02  0.1291889E+00
          1   -1    0    0  501    0  0.00000000000E+00  0.00000000000E+00  0.76383185983E+03  0.76383185983E+03  0.00000000000E+00 0. -1.
         -1   -1    0    0    0  501 -0.00000000000E+00 -0.00000000000E+00 -0.23927832866E+02  0.23927832866E+02  0.00000000000E+00 0.  1.
         25    2    1    2    0    0 -0.55630206302E+02  0.14624953938E+02  0.24295467569E+03  0.27924765821E+03  0.12507466188E+03 0.  0.
          5    1    3    3  502    0 -0.37776753765E+02 -0.19567908237E+02  0.11096383529E+02  0.44165464848E+02  0.41800000000E+01 0. -1.
         -5    1    3    3    0  502 -0.17853452538E+02  0.34192862176E+02  0.23185829216E+03  0.23508219336E+03  0.41800000000E+01 0. -1.
        -11    1    1    2    0    0  0.74823104643E+01 -0.48420635826E+02  0.22768701407E+03  0.23289894658E+03  0.00000000000E+00 0. -1.
         11    1    1    2    0    0  0.48147895838E+02  0.33795681887E+02  0.26926233721E+03  0.27561308791E+03  0.00000000000E+00 0.  1.
</event>
<event>
 7    1  0.2490079E-009  0.9090601E+02  0.7561462E-02  0.1300672E+00
          1   -1    0    0  501    0  0.00000000000E+00  0.00000000000E+00  0.28145068142E+03  0.28145068142E+03  0.00000000000E+00 0. -1.
         -1   -1    0    0    0  501 -0.00000000000E+00 -0.00000000000E+00 -0.54123357828E+02  0.54123357828E+02  0.00000000000E+00 0.  1.
         25    2    1    2    0    0  0.20333815161E+02 -0.26558516900E+02  0.19486232785E+03  0.23396095122E+03  0.12509029147E+03 0.  0.
          5    1    3    3  502    0 -0.20802849254E+02 -0.67628163832E+02  0.11516475668E+03  0.13522840183E+03  0.41800000000E+01 0. -1.
         -5    1    3    3    0  502  0.41136664414E+02  0.41069646932E+02  0.79697571174E+02  0.98732549391E+02  0.41800000000E+01 0. -1.
        -11    1    1    2    0    0  0.91621407536E+01  0.20623862920E+02  0.57946219069E+02  0.62185632177E+02  0.00000000000E+00 0. -1.
         11    1    1    2    0    0 -0.29495955914E+02  0.59346539800E+01 -0.25481223324E+02  0.39427455856E+02  0.00000000000E+00 0.  1.
</event>
<event>
 7    1  0.2490079E-009  0.1238623E+03  0.7561462E-02  0.1236858E+00
          1   -1    0    0  501    0  0.00000000000E+00  0.00000000000E+00  0.93362232931E+03  0.93362232931E+03  0.00000000000E+00 0. -1.
         -1   -1    0    0    0  501 -0.00000000000E+00 -0.00000000000E+00 -0.17810939115E+02  0.17810939115E+02  0.00000000000E+00 0.  1.
         25    2    1    2    0    0  0.65090682038E+02 -0.18043578979E+02  0.50695274461E+03  0.52650969184E+03  0.12509597397E+03 0.  0.
          5    1    3    3  502    0  0.86417621594E+02  0.22196852572E+02  0.24903917988E+03  0.26457265751E+03  0.41800000000E+01 0. -1.
         -5    1    3    3    0  502 -0.21326939556E+02 -0.40240431551E+02  0.25791356473E+03  0.26193703433E+03  0.41800000000E+01 0. -1.
        -11    1    1    2    0    0 -0.22299330618E+02 -0.36847729907E+02  0.11152748353E+03  0.11955498704E+03  0.00000000000E+00 0.  1.
         11    1    1    2    0    0 -0.42791351420E+02  0.54891308886E+02  0.29733116206E+03  0.30536858954E+03  0.00000000000E+00 0. -1.
</event>
<event>
 7    1  0.2490079E-009  0.6245191E+02  0.7561462E-02  0.1387821E+00
          2   -1    0    0  501    0  0.00000000000E+00  0.00000000000E+00  0.55484438990E+02  0.55484438990E+02  0.00000000000E+00 0. -1.
         -2   -1    0    0    0  501 -0.00000000000E+00 -0.00000000000E+00 -0.23639314629E+03  0.23639314629E+03  0.00000000000E+00 0.  1.
         25    2    1    2    0    0 -0.94451105974E+01 -0.31486971923E+02 -0.12159646687E+03  0.17752118253E+03  0.12508968774E+03 0.  0.
          5    1    3    3  502    0  0.21224587354E+02  0.16959775276E+02  0.13556225227E+02  0.30648992287E+02  0.41800000000E+01 0. -1.
         -5    1    3    3    0  502 -0.30669697951E+02 -0.48446747199E+02 -0.13515269210E+03  0.14687219025E+03  0.41800000000E+01 0. -1.
        -11    1    1    2    0    0  0.13931444695E+02  0.81071072564E+01  0.23328283513E+02  0.28355231458E+02  0.00000000000E+00 0. -1.
         11    1    1    2    0    0 -0.44863340974E+01  0.23379864666E+02 -0.82640523941E+02  0.86001171287E+02  0.00000000000E+00 0.  1.
</event>
<event>
 7    1  0.2490079E-009  0.1537875E+03  0.7561462E-02  0.1195895E+00
         -2   -1    0    0    0  501 -0.00000000000E+00  0.00000000000E+00  0.30421157742E+02  0.30421157742E+02  0.00000000000E+00 0. -1.
          2   -1    0    0  501    0  0.00000000000E+00 -0.00000000000E+00 -0.10320037583E+04  0.10320037583E+04  0.00000000000E+00 0.  1.
         25    2    1    2    0    0 -0.13267032913E+03  0.40456168743E+02 -0.47119367974E+03  0.50686206487E+03  0.12509017213E+03 0.  0.
          5    1    3    3  502    0 -0.46721776912E+02  0.30718445675E+02 -0.36754418036E+03  0.37179664369E+03  0.41800000000E+01 0.  1.
         -5    1    3    3    0  502 -0.85948552214E+02  0.97377230678E+01 -0.10364949938E+03  0.13506542119E+03  0.41800000000E+01 0.  1.
        -11    1    1    2    0    0  0.12459499011E+03 -0.96815169693E+00 -0.38267314190E+03  0.40244699330E+03  0.00000000000E+00 0.  1.
         11    1    1    2    0    0  0.80753390148E+01 -0.39488017046E+02 -0.14771577887E+03  0.15311585782E+03  0.00000000000E+00 0. -1.
</event>
<event>
 7    1  0.2490079E-009  0.8719757E+02  0.7561462E-02  0.1309784E+00
         -2   -1    0    0    0  501 -0.00000000000E+00  0.00000000000E+00  0.39923604939E+03  0.39923604939E+03  0.00000000000E+00 0.  1.
          2   -1    0    0  501    0  0.00000000000E+00 -0.00000000000E+00 -0.32591643008E+02  0.32591643008E+02  0.00000000000E+00 0. -1.
         25    2    1    2    0    0 -0.19929499147E+02  0.20272901607E+02  0.24648984004E+03  0.27787157602E+03  0.12508875266E+03 0.  0.
          5    1    3    3  502    0 -0.21139851741E+02  0.57302971733E+02  0.53470177435E+02  0.81283800207E+02  0.41800000000E+01 0. -1.
         -5    1    3    3    0  502  0.12103525946E+01 -0.37030070126E+02  0.19301966261E+03  0.19658777581E+03  0.41800000000E+01 0. -1.
        -11    1    1    2    0    0 -0.26561144761E+02 -0.56737915349E+01  0.95613390067E+02  0.99396210599E+02  0.00000000000E+00 0.  1.
         11    1    1    2    0    0  0.46490643908E+02 -0.14599110073E+02  0.24541176278E+02  0.54559905783E+02  0.00000000000E+00 0. -1.
</event>
<event>
 7    1  0.2490079E-009  0.1090987E+03  0.7561462E-02  0.1262248E+00
         -1   -1    0    0    0  501 -0.00000000000E+00  0.00000000000E+00  0.40206712367E+02  0.40206712367E+02  0.00000000000E+00 0.  1.
          1   -1    0    0  501    0  0.00000000000E+00 -0.00000000000E+00 -0.41831335375E+03  0.41831335375E+03  0.00000000000E+00 0. -1.
         25    2    1    2    0    0 -0.50943499304E+02 -0.48555787995E+02 -0.19812346958E+03  0.24464982077E+03  0.12509085074E+03 0.  0.
          5    1    3    3  502    0 -0.56496968319E+02  0.29811918447E+02 -0.10212734337E+03  0.12053267015E+03  0.41800000000E+01 0. -1.
         -5    1    3    3    0  502  0.55534690149E+01 -0.78367706442E+02 -0.95996126209E+02  0.12411715062E+03  0.41800000000E+01 0. -1.
        -11    1    1    2    0    0  0.16480654768E+02  0.65264501172E+00  0.69094584542E+01  0.17882352843E+02  0.00000000000E+00 0.  1.
         11    1    1    2    0    0  0.34462844536E+02  0.47903142983E+02 -0.18689263026E+03  0.19598789250E+03  0.00000000000E+00 0. -1.
</event>
<event>
 7    1  0.2490079E-009  0.9433674E+02  0.7561462E-02  0.1292677E+00
         -4   -1    0    0    0  501 -0.00000000000E+00  0.00000000000E+00  0.12440720399E+03  0.12440720399E+03  0.00000000000E+00 0. -1.
          4   -1    0    0  501    0  0.00000000000E+00 -0.00000000000E+00 -0.13252999660E+03  0.13252999660E+03  0.00000000000E+00 0.  1.
         25    2    1    2    0    0  0.60193872560E+02 -0.30549361897E+02  0.15908671803E+00  0.14214365786E+03  0.12509287891E+03 0.  0.
          5    1    3    3  502    0  0.58310395986E+01  0.29482639674E+02 -0.41153787639E+02  0.51130555463E+02  0.41800000000E+01 0. -1.
         -5    1    3    3    0  502  0.54362832961E+02 -0.60032001571E+02  0.41312874357E+02  0.91013102396E+02  0.41800000000E+01 0. -1.
        -11    1    1    2    0    0 -0.32682979019E+02 -0.41572790576E+01 -0.46026990979E+02  0.56603391995E+02  0.00000000000E+00 0.  1.
         11    1    1    2    0    0 -0.27510893540E+02  0.34706640955E+02  0.37745111645E+02  0.58190150737E+02  0.00000000000E+00 0. -1.
</event>
<event>
 7    1  0.2490079E-009  0.9857216E+02  0.7561462E-02  0.1283327E+00
         -1   -1    0    0    0  501 -0.00000000000E+00  0.00000000000E+00  0.92623916230E+02  0.92623916230E+02  0.00000000000E+00 0.  1.
          1   -1    0    0  501    0  0.00000000000E+00 -0.00000000000E+00 -0.22961668188E+03  0.22961668188E+03  0.00000000000E+00 0. -1.
         25    2    1    2    0    0  0.43689964377E+02 -0.16259544160E+02  0.19973412312E+02  0.13498779610E+03  0.12509828989E+03 0.  0.
          5    1    3    3  502    0  0.18655126852E+02  0.38038225510E+02 -0.33882045125E+02  0.54409426937E+02  0.41800000000E+01 0.  1.
         -5    1    3    3    0  502  0.25034837525E+02 -0.54297769670E+02  0.53855457437E+02  0.80578369162E+02  0.41800000000E+01 0.  1.
        -11    1    1    2    0    0 -0.31709003817E+02  0.49789205956E+02 -0.12938367789E+03  0.14221308680E+03  0.00000000000E+00 0.  1.
         11    1    1    2    0    0 -0.11980960560E+02 -0.33529661795E+02 -0.27582500072E+02  0.45039715211E+02  0.00000000000E+00 0. -1.
</event>
<event>
 7    1  0.2490079E-009  0.1136571E+03  0.7561462E-02  0.1253944E+00
          2   -1    0    0  501    0  0.00000000000E+00  0.00000000000E+00  0.84260587819E+03  0.84260587819E+03  0.00000000000E+00 0. -1.
         -2   -1    0    0    0  501 -0.00000000000E+00 -0.00000000000E+00 -0.34659123341E+02  0.34659123341E+02  0.00000000000E+00 0.  1.
         25    2    1    2    0    0 -0.50757464122E+02 -0.10500754229E+02  0.74983897261E+03  0.76196602801E+03  0.12508859662E+03 0.  0.
          5    1    3    3  502    0  0.34456608433E+02  0.20655978277E+02  0.15236462725E+03  0.15762734325E+03  0.41800000000E+01 0.  1.
         -5    1    3    3    0  502 -0.85214072555E+02 -0.31156732505E+02  0.59747434536E+03  0.60433868476E+03  0.41800000000E+01 0.  1.
        -11    1    1    2    0    0 -0.11165126217E+02  0.29322387523E+02  0.33921463048E+02  0.46207446465E+02  0.00000000000E+00 0. -1.
         11    1    1    2    0    0  0.61922590339E+02 -0.18821633295E+02  0.24186319194E+02  0.69091527052E+02  0.00000000000E+00 0.  1.
</event>
<event>
 7    1  0.2490079E-009  0.1015897E+03  0.7561462E-02  0.1276988E+00
         -1   -1    0    0    0  501 -0.00000000000E+00  0.00000000000E+00  0.16288457494E+02  0.16288457494E+02  0.00000000000E+00 0.  1.
          1   -1    0    0  501    0  0.00000000000E+00 -0.00000000000E+00 -0.92392615746E+03  0.92392615746E+03  0.00000000000E+00 0. -1.
         25    2    1    2    0    0  0.13642212125E+00 -0.22093714569E+02 -0.73643624884E+03  0.74731129030E+03  0.12509062781E+03 0.  0.
          5    1    3    3  502    0  0.44190778426E+02 -0.54820523438E+02 -0.35675862660E+03  0.36366509970E+03  0.41800000000E+01 0. -1.
         -5    1    3    3    0  502 -0.44054356305E+02  0.32726808869E+02 -0.37967762224E+03  0.38364619060E+03  0.41800000000E+01 0. -1.
        -11    1    1    2    0    0  0.28788705891E+02  0.35512938864E+02 -0.50758129201E+02  0.68310658712E+02  0.00000000000E+00 0.  1.
         11    1    1    2    0    0 -0.28925128012E+02 -0.13419224296E+02 -0.12044332193E+03  0.12459266595E+03  0.00000000000E+00 0. -1.
</event>
<event>
 7    1  0.2490079E-009  0.1154502E+03  0.7561462E-02  0.1250797E+00
         -1   -1    0    0    0  501 -0.00000000000E+00  0.00000000000E+00  0.60242643167E+02  0.60242643167E+02  0.00000000000E+00 0.  1.
          1   -1    0    0  501    0  0.00000000000E+00 -0.00000000000E+00 -0.35766121023E+03  0.35766121023E+03  0.00000000000E+00 0. -1.
         25    2    1    2    0    0 -0.43945451694E+02 -0.63419759170E+02 -0.73331258642E+02  0.16425533542E+03  0.12509625551E+03 0.  0.
          5    1    3    3  502    0 -0.58103042096E+02 -0.12097533755E+02 -0.90372918368E+02  0.10819912476E+03  0.41800000000E+01 0.  1.
         -5    1    3    3    0  502  0.14157590402E+02 -0.51322225415E+02  0.17041659726E+02  0.56056210662E+02  0.41800000000E+01 0.  1.
        -11    1    1    2    0    0  0.69792582143E+02  0.30549279489E+02 -0.12984029741E+03  0.15054157509E+03  0.00000000000E+00 0.  1.
         11    1    1    2    0    0 -0.25847130449E+02  0.32870479682E+02 -0.94247011012E+02  0.10310694289E+03  0.00000000000E+00 0. -1.
</event>
<event>
 7    1  0.2490079E-009  0.7841156E+02  0.7561462E-02  0.1333621E+00
         -2   -1    0    0    0  501 -0.00000000000E+00  0.00000000000E+00  0.83413500977E+02  0.83413500977E+02  0.00000000000E+00 0.  1.
          2   -1    0    0  501    0  0.00000000000E+00 -0.00000000000E+00 -0.16992714447E+03  0.16992714447E+03  0.00000000000E+00 0. -1.
         25    2    1    2    0    0 -0.11584501338E+01  0.38754279487E+02 -0.79802015268E+02  0.15335863387E+03  0.12508905929E+03 0.  0.
          5    1    3    3  502    0 -0.20380751544E+02  0.31761147804E+02  0.25675342239E+02  0.45834933647E+02  0.41800000000E+01 0. -1.
         -5    1    3    3    0  502  0.19222301410E+02  0.69931316831E+01 -0.10547735751E+03  0.10752370022E+03  0.41800000000E+01 0. -1.
        -11    1    1    2    0    0  0.37796849395E+02  0.79425102387E+01  0.65244307540E+01  0.39169547990E+02  0.00000000000E+00 0.  1.
         11    1    1    2    0    0 -0.36638399261E+02 -0.46696789726E+02 -0.13236058983E+02  0.60812463595E+02  0.00000000000E+00 0. -1.
</event>
<event>
 7    1  0.2490079E-009  0.1087271E+03  0.7561462E-02  0.1262945E+00
          4   -1    0    0  501    0  0.00000000000E+00  0.00000000000E+00  0.75537850666E+02  0.75537850666E+02  0.00000000000E+00 0. -1.
         -4   -1    0    0    0  501 -0.00000000000E+00 -0.00000000000E+00 -0.21915170975E+03  0.21915170975E+03  0.00000000000E+00 0.  1.
         25    2    1    2    0    0  0.28523925738E+02  0.61058779106E+02 -0.93774110390E+02  0.17024494702E+03  0.12509184370E+03 0.  0.
          5    1    3    3  502    0 -0.29862034045E+02  0.71618761908E+01 -0.84661171023E+02  0.90155531316E+02  0.41800000000E+01 0.  1.
         -5    1    3    3    0  502  0.58385959783E+02  0.53896902915E+02 -0.91129393673E+01  0.80089415703E+02  0.41800000000E+01 0.  1.
        -11    1    1    2    0    0 -0.50556156762E+02 -0.10350261948E+02 -0.45819213438E+02  0.69010529842E+02  0.00000000000E+00 0. -1.
         11    1    1    2    0    0  0.22032231024E+02 -0.50708517158E+02 -0.40205352582E+01  0.55434083559E+02  0.00000000000E+00 0.  1.
</event>
<event>
 7    1  0.2490079E-009  0.1524756E+03  0.7561462E-02  0.1197464E+00
         -3   -1    0    0    0  501 -0.00000000000E+00  0.00000000000E+00  0.38728239792E+03  0.38728239792E+03  0.00000000000E+00 0.  1.
          3   -1    0    0  501    0  0.00000000000E+00 -0.00000000000E+00 -0.74366243100E+02  0.74366243100E+02  0.00000000000E+00 0. -1.
         25    2    1    2    0    0  0.12274441103E+03 -0.26431392652E+02  0.11831463898E+03  0.21310016986E+03  0.12509404319E+03 0.  0.
          5    1    3    3  502    0  0.11884528401E+03  0.60729333077E+01  0.35970106927E+02  0.12438811455E+03  0.41800000000E+01 0. -1.
         -5    1    3    3    0  502  0.38991270194E+01 -0.32504325960E+02  0.82344532055E+02  0.88712055308E+02  0.41800000000E+01 0. -1.
        -11    1    1    2    0    0  0.96899838493E+01 -0.11573673798E+02  0.96400399610E+01  0.17910222853E+02  0.00000000000E+00 0. -1.
         11    1    1    2    0    0 -0.13243439488E+03  0.38005066450E+02  0.18496147587E+03  0.23063824830E+03  0.00000000000E+00 0.  1.
</event>
<event>
 7    1  0.2490079E-009  0.1185505E+03  0.7561462E-02  0.1245508E+00
         -1   -1    0    0    0  501 -0.00000000000E+00  0.00000000000E+00  0.24734655712E+02  0.24734655712E+02  0.00000000000E+00 0.  1.
          1   -1    0    0  501    0  0.00000000000E+00 -0.00000000000E+00 -0.73528140138E+03  0.73528140138E+03  0.00000000000E+00 0. -1.
         25    2    1    2    0    0  0.32627461428E+02  0.67343870330E+02 -0.49929896291E+03  0.52013993251E+03  0.12508535851E+03 0.  0.
          5    1    3    3  502    0  0.35869540289E+02 -0.23260493965E+02 -0.76740240439E+02  0.87944365383E+02  0.41800000000E+01 0. -1.
         -5    1    3    3    0  502 -0.32420788605E+01  0.90604364295E+02 -0.42255872247E+03  0.43219556713E+03  0.41800000000E+01 0. -1.
        -11    1    1    2    0    0  0.18410926234E+01  0.14481591627E+02 -0.51733729884E+01  0.15487734056E+02  0.00000000000E+00 0.  1.
         11    1    1    2    0    0 -0.34468554052E+02 -0.81825461957E+02 -0.20607440976E+03  0.22438839052E+03  0.00000000000E+00 0. -1.
</event>
<event>
 7    1  0.2490079E-009  0.2126541E+03  0.7561462E-02  0.1139481E+00
          1   -1    0    0  501    0  0.00000000000E+00  0.00000000000E+00  0.71152162841E+02  0.71152162841E+02  0.00000000000E+00 0. -1.
         -1   -1    0    0    0  501 -0.00000000000E+00 -0.00000000000E+00 -0.64856315739E+03  0.64856315739E+03  0.00000000000E+00 0.  1.
         25    2    1    2    0    0  0.13674791763E+03  0.12455657506E+03 -0.29110738454E+03  0.36688735161E+03  0.12509390898E+03 0.  0.
          5    1    3    3  502    0  0.14892011961E+03  0.68987963594E+02 -0.19280180754E+03  0.25323220676E+03  0.41800000000E+01 0. -1.
         -5    1    3    3    0  502 -0.12172201980E+02  0.55568611470E+02 -0.98305577000E+02  0.11365514485E+03  0.41800000000E+01 0. -1.
        -11    1    1    2    0    0 -0.46304769211E+02 -0.10026864771E+03 -0.12962412934E+03  0.17029488622E+03  0.00000000000E+00 0. -1.
         11    1    1    2    0    0 -0.90443148422E+02 -0.24287927357E+02 -0.15667948066E+03  0.18253308240E+03  0.00000000000E+00 0.  1.
</event>
<event>
 7    1  0.2490079E-009  0.9294169E+02  0.7561462E-02  0.1295880E+00
         -2   -1    0    0    0  501 -0.00000000000E+00  0.00000000000E+00  0.53717078711E+03  0.53717078711E+03  0.00000000000E+00 0. -1.
          2   -1    0    0  501    0  0.00000000000E+00 -0.00000000000E+00 -0.35717478826E+02  0.35717478826E+02  0.00000000000E+00 0.  1.
         25    2    1    2    0    0  0.50199773429E+02  0.48561772311E+02  0.37660961596E+03  0.40294058967E+03  0.12509217798E+03 0.  0.
          5    1    3    3  502    0  0.19820404148E+02  0.14069499624E+02  0.11870307508E+01  0.24691712825E+02  0.41800000000E+01 0.  1.
         -5    1    3    3    0  502  0.30379369282E+02  0.34492272687E+02  0.37542258520E+03  0.37824887685E+03  0.41800000000E+01 0.  1.
        -11    1    1    2    0    0 -0.14769813792E+02 -0.71401786407E+02  0.73733400066E+02  0.10369656111E+03  0.00000000000E+00 0. -1.
         11    1    1    2    0    0 -0.35429959637E+02  0.22840014096E+02  0.51110292266E+02  0.66251115155E+02  0.00000000000E+00 0.  1.
</event>
<event>
 7    1  0.2490079E-009  0.1306647E+03  0.7561462E-02  0.1226473E+00
         -2   -1    0    0    0  501 -0.00000000000E+00  0.00000000000E+00  0.54110924188E+02  0.54110924188E+02  0.00000000000E+00 0. -1.
          2   -1    0    0  501    0  0.00000000000E+00 -0.00000000000E+00 -0.61844189004E+03  0.61844189004E+03  0.00000000000E+00 0.  1.
         25    2    1    2    0    0  0.69147286516E+02  0.38874867798E+02 -0.51910073298E+03  0.53981706224E+03  0.12507712474E+03 0.  0.
          5    1    3    3  502    0 -0.17061937276E+02 -0.31091467194E+02 -0.15921171978E+03  0.16316750029E+03  0.41800000000E+01 0.  1.
         -5    1    3    3    0  502  0.86209223791E+02  0.69966334992E+02 -0.35988901320E+03  0.37664956196E+03  0.41800000000E+01 0.  1.
        -11    1    1    2    0    0  0.11945528816E+02 -0.30778588983E+02 -0.38859772243E+02  0.50991166856E+02  0.00000000000E+00 0.  1.
         11    1    1    2    0    0 -0.81092815332E+02 -0.80962788148E+01 -0.63704606299E+01  0.81744585128E+02  0.00000000000E+00 0. -1.
</event>
<event>
 7    1  0.2490079E-009  0.1037753E+03  0.7561462E-02  0.1272551E+00
         -2   -1    0    0    0  501 -0.00000000000E+00  0.00000000000E+00  0.45660793625E+02  0.45660793625E+02  0.00000000000E+00 0. -1.
          2   -1    0    0  501    0  0.00000000000E+00 -0.00000000000E+00 -0.52076794177E+03  0.52076794177E+03  0.00000000000E+00 0.  1.
         25    2    1    2    0    0  0.73045322900E+02 -0.21743343312E+02 -0.39785188058E+03  0.42395703022E+03  0.12508018397E+03 0.  0.
          5    1    3    3  502    0  0.26363780700E+02 -0.30252720601E+02 -0.23713088224E+02  0.46798066089E+02  0.41800000000E+01 0.  1.
         -5    1    3    3    0  502  0.46681542200E+02  0.85093772893E+01 -0.37413879235E+03  0.37715896414E+03  0.41800000000E+01 0.  1.
        -11    1    1    2    0    0 -0.46837644239E+02 -0.34064883982E+02 -0.40820023371E+02  0.70855173040E+02  0.00000000000E+00 0.  1.
         11    1    1    2    0    0 -0.26207678661E+02  0.55808227294E+02 -0.36435244195E+02  0.71616532128E+02  0.00000000000E+00 0. -1.
</event>
<event>
 7    1  0.2490079E-009  0.1059450E+03  0.7561462E-02  0.1268269E+00
         -2   -1    0    0    0  501 -0.00000000000E+00  0.00000000000E+00  0.97475770204E+01  0.97475770204E+01  0.00000000000E+00 0.  1.
          2   -1    0    0  501    0  0.00000000000E+00 -0.00000000000E+00 -0.29822859716E+04  0.29822859716E+04  0.00000000000E+00 0. -1.
         25    2    1    2    0    0 -0.47073276325E+02  0.42725595578E+02 -0.25849916767E+04  0.25887973026E+04  0.12509250852E+03 0.  0.
          5    1    3    3  502    0  0.11219694475E+02  0.40653314496E+02 -0.20798712306E+04  0.20803029543E+04  0.41800000000E+01 0.  1.
         -5    1    3    3    0  502 -0.58292970800E+02  0.20722810820E+01 -0.50512044612E+03  0.50849434833E+03  0.41800000000E+01 0.  1.
        -11    1    1    2    0    0 -0.25074834423E+02  0.35392457050E+01 -0.75530688697E+02  0.79662779995E+02  0.00000000000E+00 0.  1.
         11    1    1    2    0    0  0.72148110747E+02 -0.46264841283E+02 -0.31201602921E+03  0.32357346601E+03  0.00000000000E+00 0. -1.
</event>
<event>
 7    1  0.2490079E-009  0.4934179E+02  0.7561462E-02  0.1448924E+00
         -3   -1    0    0    0  501 -0.00000000000E+00  0.00000000000E+00  0.50136702908E+02  0.50136702908E+02  0.00000000000E+00 0.  1.
          3   -1    0    0  501    0  0.00000000000E+00 -0.00000000000E+00 -0.47037844943E+03  0.47037844943E+03  0.00000000000E+00 0. -1.
         25    2    1    2    0    0 -0.33160642346E+02  0.66119134456E+01 -0.39903281645E+03  0.41954466702E+03  0.12508874218E+03 0.  0.
          5    1    3    3  502    0 -0.12560536424E+02  0.29764925063E+02 -0.17975375360E+02  0.37206240856E+02  0.41800000000E+01 0. -1.
         -5    1    3    3    0  502 -0.20600105921E+02 -0.23153011617E+02 -0.38105744109E+03  0.38233842617E+03  0.41800000000E+01 0. -1.
        -11    1    1    2    0    0  0.18382155643E+02  0.60007661114E+00  0.36549827131E+02  0.40916422147E+02  0.00000000000E+00 0.  1.
         11    1    1    2    0    0  0.14778486703E+02 -0.72119900568E+01 -0.57758757204E+02  0.60054063173E+02  0.00000000000E+00 0. -1.
</event>
<event>
 7    1  0.2490079E-009  0.9405690E+02  0.7561462E-02  0.1293314E+00
         -1   -1    0    0    0  501 -0.00000000000E+00  0.00000000000E+00  0.15378851291E+03  0.15378851291E+03  0.00000000000E+00 0.  1.
          1   -1    0    0  501    0  0.00000000000E+00 -0.00000000000E+00 -0.10337719357E+03  0.10337719357E+03  0.00000000000E+00 0. -1.
         25    2    1    2    0    0 -0.56645644686E+02 -0.29534793257E+02  0.37925266953E+02  0.14548925593E+03  0.12509102543E+03 0.  0.
          5    1    3    3  502    0 -0.53431073711E+01 -0.48025800409E+02 -0.30952657757E+02  0.57537515792E+02  0.41800000000E+01 0.  1.
         -5    1    3    3    0  502 -0.51302537315E+02  0.18491007152E+02  0.68877924710E+02  0.87951740136E+02  0.41800000000E+01 0.  1.
        -11    1    1    2    0    0  0.58301084914E+01  0.33447813818E+02  0.41034454579E+02  0.53259486261E+02  0.00000000000E+00 0.  1.
         11    1    1    2    0    0  0.50815536195E+02 -0.39130205608E+01 -0.28548402201E+02  0.58416964290E+02  0.00000000000E+00 0. -1.
</event>
<event>
 7    1  0.2490079E-009  0.1199095E+03  0.7561462E-02  0.1243246E+00
          3   -1    0    0  501    0  0.00000000000E+00  0.00000000000E+00  0.14716954717E+03  0.14716954717E+03  0.00000000000E+00 0. -1.
         -3   -1    0    0    0  501 -0.00000000000E+00 -0.00000000000E+00 -0.20885584020E+03  0.20885584020E+03  0.00000000000E+00 0.  1.
         25    2    1    2    0    0  0.73830260640E+02 -0.93210069073E+02  0.37891498732E+02  0.17669838690E+03  0.12509008712E+03 0.  0.
          5    1    3    3  502    0  0.78965103693E+01 -0.85801137333E+01  0.64833172073E+02  0.66005952979E+02  0.41800000000E+01 0. -1.
         -5    1    3    3    0  502  0.65933750271E+02 -0.84629955339E+02 -0.26941673341E+02  0.11069243392E+03  0.41800000000E+01 0. -1.
        -11    1    1    2    0    0 -0.10107790314E+02  0.23721951955E+02  0.15865530853E+02  0.30275625490E+02  0.00000000000E+00 0.  1.
         11    1    1    2    0    0 -0.63722470326E+02  0.69488117118E+02 -0.11544332262E+03  0.14905137497E+03  0.00000000000E+00 0. -1.
</event>
<event>
 7    1  0.2490079E-009  0.1075566E+03  0.7561462E-02  0.1265163E+00
          1   -1    0    0  501    0  0.00000000000E+00  0.00000000000E+00  0.26141988280E+03  0.26141988280E+03  0.00000000000E+00 0. -1.
         -1   -1    0    0    0  501 -0.00000000000E+00 -0.00000000000E+00 -0.90935956137E+02  0.90935956137E+02  0.00000000000E+00 0.  1.
         25    2    1    2    0    0  0.50613382130E+02 -0.60101848893E+02  0.78447034999E+01  0.14793063802E+03  0.12509191661E+03 0.  0.
          5    1    3    3  502    0 -0.20001437191E+02 -0.41860643634E+01 -0.40546492351E+02  0.45596831760E+02  0.41800000000E+01 0.  1.
         -5    1    3    3    0  502  0.70614819321E+02 -0.55915784530E+02  0.48391195851E+02  0.10233380626E+03  0.41800000000E+01 0.  1.
        -11    1    1    2    0    0 -0.66150611248E+02  0.35731634039E+02  0.15823685635E+03  0.17519005607E+03  0.00000000000E+00 0. -1.
         11    1    1    2    0    0  0.15537229118E+02  0.24370214854E+02  0.44023668148E+01  0.29235144848E+02  0.00000000000E+00 0.  1.
</event>
<event>
 7    1  0.2490079E-009  0.1132851E+03  0.7561462E-02  0.1254605E+00
         -1   -1    0    0    0  501 -0.00000000000E+00  0.00000000000E+00  0.21238272286E+02  0.21238272286E+02  0.00000000000E+00 0.  1.
          1   -1    0    0  501    0  0.00000000000E+00 -0.00000000000E+00 -0.69603989406E+03  0.69603989406E+03  0.00000000000E+00 0. -1.
         25    2    1    2    0    0 -0.20922017564E+02 -0.48186247091E+02 -0.31958993168E+03  0.34719752868E+03  0.12509498095E+03 0.  0.
          5    1    3    3  502    0 -0.72012188995E+02 -0.17178663159E+02 -0.14979113638E+03  0.16713981803E+03  0.41800000000E+01 0.  1.
         -5    1    3    3    0  502  0.51090171431E+02 -0.31007583932E+02 -0.16979879530E+03  0.18005771065E+03  0.41800000000E+01 0.  1.
        -11    1    1    2    0    0 -0.28177952082E+01 -0.20057762399E+02 -0.25607929259E+02  0.32649959314E+02  0.00000000000E+00 0.  1.
         11    1    1    2    0    0  0.23739812772E+02  0.68244009490E+02 -0.32960376083E+03  0.33743067836E+03  0.00000000000E+00 0. -1.
</event>
<event>
 7    1  0.2490079E-009  0.1014975E+03  0.7561462E-02  0.1277178E+00
          3   -1    0    0  501    0  0.00000000000E+00  0.00000000000E+00  0.37773152834E+03  0.37773152834E+03  0.00000000000E+00 0. -1.
         -3   -1    0    0    0  501 -0.00000000000E+00 -0.00000000000E+00 -0.39539960382E+02  0.39539960382E+02  0.00000000000E+00 0.  1.
         25    2    1    2    0    0 -0.52362737792E+02 -0.23832064312E+02  0.20813626737E+03  0.24955705483E+03  0.12509274249E+03 0.  0.
          5    1    3    3  502    0 -0.16102803405E+02 -0.63464444614E+02  0.17353677636E+03  0.18552498795E+03  0.41800000000E+01 0. -1.
         -5    1    3    3    0  502 -0.36259934387E+02  0.39632380302E+02  0.34599491018E+02  0.64032066879E+02  0.41800000000E+01 0. -1.
        -11    1    1    2    0    0  0.20690918387E+02  0.42124763635E+02  0.18724012223E+02  0.50529184129E+02  0.00000000000E+00 0.  1.
         11    1    1    2    0    0  0.31671819405E+02 -0.18292699323E+02  0.11133128836E+03  0.11718524975E+03  0.00000000000E+00 0. -1.
</event>
<event>
 7    1  0.2490079E-009  0.1643173E+03  0.7561462E-02  0.1183907E+00
          1   -1    0    0  501    0  0.00000000000E+00  0.00000000000E+00  0.10712604006E+03  0.10712604006E+03  0.00000000000E+00 0. -1.
         -1   -1    0    0    0  501 -0.00000000000E+00 -0.00000000000E+00 -0.31000722051E+03  0.31000722051E+03  0.00000000000E+00 0.  1.
         25    2    1    2    0    0 -0.10265093890E+03 -0.95896178010E+02 -0.15124584421E+03  0.24136187129E+03  0.12508779040E+03 0.  0.
          5    1    3    3  502    0 -0.36797375757E+01  0.26739523460E+02 -0.39922858255E+02  0.48371991842E+02  0.41800000000E+01 0.  1.
         -5    1    3    3    0  502 -0.98971201321E+02 -0.12263570147E+03 -0.11132298595E+03  0.19298987944E+03  0.41800000000E+01 0.  1.
        -11    1    1    2    0    0  0.43835450464E+02  0.21459106550E+02 -0.63580673197E+02  0.80153240580E+02  0.00000000000E+00 0.  1.
         11    1    1    2    0    0  0.58815488433E+02  0.74437071459E+02  0.11945336958E+02  0.95618148707E+02  0.00000000000E+00 0. -1.
</event>
<event>
 7    1  0.2490079E-009  0.9045901E+02  0.7561462E-02  0.1301744E+00
         -1   -1    0    0    0  501 -0.00000000000E+00  0.00000000000E+00  0.10727622131E+03  0.10727622131E+03  0.00000000000E+00 0.  1.
          1   -1    0    0  501    0  0.00000000000E+00 -0.00000000000E+00 -0.13370441554E+03  0.13370441554E+03  0.00000000000E+00 0. -1.
         25    2    1    2    0    0 -0.37881387152E+01 -0.40535997208E+02 -0.46232647490E+02  0.13943515800E+03  0.12508872262E+03 0.  0.
          5    1    3    3  502    0  0.27163778179E+02  0.64132493359E+01  0.32211990020E+02  0.42826222260E+02  0.41800000000E+01 0. -1.
         -5    1    3    3    0  502 -0.30951916895E+02 -0.46949246544E+02 -0.78444637509E+02  0.96608935738E+02  0.41800000000E+01 0. -1.
        -11    1    1    2    0    0  0.15777759956E+02  0.66160801982E+02  0.18561855605E+01  0.68041420127E+02  0.00000000000E+00 0.  1.
         11    1    1    2    0    0 -0.11989621241E+02 -0.25624804774E+02  0.17948267698E+02  0.33504058718E+02  0.00000000000E+00 0. -1.
</event>
<event>
 7    1  0.2490079E-009  0.1089118E+03  0.7561462E-02  0.1262598E+00
          1   -1    0    0  501    0  0.00000000000E+00  0.00000000000E+00  0.66335503839E+02  0.66335503839E+02  0.00000000000E+00 0. -1.
         -1   -1    0    0    0  501 -0.00000000000E+00 -0.00000000000E+00 -0.22600572751E+03  0.22600572751E+03  0.00000000000E+00 0.  1.
         25    2    1    2    0    0 -0.34446369976E+02  0.66384409867E+01 -0.14476745044E+03  0.19451305365E+03  0.12508833692E+03 0.  0.
          5    1    3    3  502    0  0.44043834099E+02  0.17281041114E+02 -0.34605334701E+02  0.58766447007E+02  0.41800000000E+01 0.  1.
         -5    1    3    3    0  502 -0.78490204074E+02 -0.10642600127E+02 -0.11016211573E+03  0.13574660665E+03  0.41800000000E+01 0.  1.
        -11    1    1    2    0    0 -0.24767399844E+02  0.13816644226E+02  0.10478707678E+02  0.30234534349E+02  0.00000000000E+00 0. -1.
         11    1    1    2    0    0  0.59213769820E+02 -0.20455085213E+02 -0.25381480914E+02  0.67593643346E+02  0.00000000000E+00 0.  1.
</event>
<event>
 7    1  0.2490079E-009  0.1151356E+03  0.7561462E-02  0.1251345E+00
         -2   -1    0    0    0  501 -0.00000000000E+00  0.00000000000E+00  0.43270533822E+02  0.43270533822E+02  0.00000000000E+00 0.  1.
          2   -1    0    0  501    0  0.00000000000E+00 -0.00000000000E+00 -0.47653681153E+03  0.47653681153E+03  0.00000000000E+00 0. -1.
         25    2    1    2    0    0 -0.45910799312E+02  0.58600168783E+02 -0.13694858831E+03  0.19986142860E+03  0.12509154060E+03 0.  0.
          5    1    3    3  502    0  0.38486332986E+02  0.18959233675E+02 -0.79010564397E+02  0.90004400196E+02  0.41800000000E+01 0.  1.
         -5    1    3    3    0  502 -0.84397132298E+02  0.39640935108E+02 -0.57938023909E+02  0.10985702841E+03  0.41800000000E+01 0.  1.
        -11    1    1    2    0    0 -0.17622854406E+00 -0.46067364992E+02 -0.45960618988E+02  0.65073893933E+02  0.00000000000E+00 0.  1.
         11    1    1    2    0    0  0.46087027856E+02 -0.12532803791E+02 -0.25035707042E+03  0.25487202282E+03  0.00000000000E+00 0. -1.
</event>
<event>
 7    1  0.2652704E-009  0.1120052E+03  0.7561462E-02  0.1256901E+00
         -2   -1    0    0    0  501 -0.00000000000E+00  0.00000000000E+00  0.39302030178E+02  0.39302030178E+02  0.00000000000E+00 0. -1.
          2   -1    0    0  501    0  0.00000000000E+00 -0.00000000000E+00 -0.51852643229E+03  0.51852643229E+03  0.00000000000E+00 0.  1.
         25    2    1    2    0    0 -0.10134127011E+02  0.79305771116E+02 -0.35230468674E+03  0.38230614266E+03  0.12508912246E+03 0.  0.
          5    1    3    3  502    0  0.52915974309E+01 -0.28212883174E+02 -0.14869083495E+03  0.15149390938E+03  0.41800000000E+01 0.  1.
         -5    1    3    3    0  502 -0.15425724442E+02  0.10751865429E+03 -0.20361385178E+03  0.23081223328E+03  0.41800000000E+01 0.  1.
        -11    1    1    2    0    0  0.21738450141E+02 -0.42917150524E+02 -0.12858693522E+03  0.13729181306E+03  0.00000000000E+00 0.  1.
         11    1    1    2    0    0 -0.11604323130E+02 -0.36388620592E+02  0.16672198479E+01  0.38230506744E+02  0.00000000000E+00 0. -1.
</event>
<event>
 7    1  0.2490079E-009  0.1321921E+03  0.7561462E-02  0.1224239E+00
         -1   -1    0    0    0  501 -0.00000000000E+00  0.00000000000E+00  0.23066892017E+02  0.23066892017E+02  0.00000000000E+00 0.  1.
          1   -1    0    0  501    0  0.00000000000E+00 -0.00000000000E+00 -0.15383722386E+04  0.15383722386E+04  0.00000000000E+00 0. -1.
         25    2    1    2    0    0  0.76016373323E+02 -0.99869923739E+02 -0.11642310047E+04  0.11776392295E+04  0.12509129395E+03 0.  0.
          5    1    3    3  502    0  0.51889134384E+02 -0.86072773426E+02 -0.11243982228E+04  0.11288887635E+04  0.41800000000E+01 0.  1.
         -5    1    3    3    0  502  0.24127238939E+02 -0.13797150312E+02 -0.39832781866E+02  0.48750465913E+02  0.41800000000E+01 0.  1.
        -11    1    1    2    0    0 -0.74363964306E+02  0.59377948916E+02 -0.14268962594E+03  0.17151113479E+03  0.00000000000E+00 0.  1.
         11    1    1    2    0    0 -0.16524090167E+01  0.40491974822E+02 -0.20838471597E+03  0.21228876638E+03  0.00000000000E+00 0. -1.
</event>
<event>
 7    1  0.2490079E-009  0.3218193E+03  0.7561462E-02  0.1074815E+00
         -2   -1    0    0    0  501 -0.00000000000E+00  0.00000000000E+00  0.45019153789E+02  0.45019153789E+02  0.00000000000E+00 0.  1.
          2   -1    0    0  501    0  0.00000000000E+00 -0.00000000000E+00 -0.25415229315E+04  0.25415229315E+04  0.00000000000E+00 0. -1.
         25    2    1    2    0    0  0.17748181732E+03 -0.25032384805E+03 -0.91991146387E+03  0.97777528926E+03  0.12508233511E+03 0.  0.
          5    1    3    3  502    0  0.14861013896E+03 -0.12259675381E+03 -0.64626335583E+03  0.67438025989E+03  0.41800000000E+01 0. -1.
         -5    1    3    3    0  502  0.28871678364E+02 -0.12772709424E+03 -0.27364810804E+03  0.30339502937E+03  0.41800000000E+01 0. -1.
        -11    1    1    2    0    0 -0.99465283543E+02  0.64924950917E+02 -0.55735169862E+03  0.56986797404E+03  0.00000000000E+00 0.  1.
         11    1    1    2    0    0 -0.78016533777E+02  0.18539889713E+03 -0.10192406152E+04  0.10388988220E+04  0.00000000000E+00 0. -1.
</event>
<event>
 7    1  0.2490079E-009  0.1187643E+03  0.7561462E-02  0.1245150E+00
         -1   -1    0    0    0  501 -0.00000000000E+00  0.00000000000E+00  0.33909932554E+03  0.33909932554E+03  0.00000000000E+00 0.  1.
          1   -1    0    0  501    0  0.00000000000E+00 -0.00000000000E+00 -0.70908710983E+02  0.70908710983E+02  0.00000000000E+00 0. -1.
         25    2    1    2    0    0 -0.76197389435E+02 -0.60466606941E+01  0.38470161162E+02  0.15156017318E+03  0.12509168050E+03 0.  0.
          5    1    3    3  502    0 -0.71244109800E+02 -0.43887249313E+02  0.64022314606E+02  0.10544260525E+03  0.41800000000E+01 0. -1.
         -5    1    3    3    0  502 -0.49532796347E+01  0.37840588619E+02 -0.25552153444E+02  0.46117567930E+02  0.41800000000E+01 0. -1.
        -11    1    1    2    0    0  0.88641071056E+02 -0.15967775684E+02  0.20052221130E+03  0.21982121500E+03  0.00000000000E+00 0. -1.
         11    1    1    2    0    0 -0.12443681622E+02  0.22014436378E+02  0.29198242098E+02  0.38626648353E+02  0.00000000000E+00 0.  1.
</event>
<event>
 7    1  0.2490079E-009  0.1095190E+03  0.7561462E-02  0.1261463E+00
         -2   -1    0    0    0  501 -0.00000000000E+00  0.00000000000E+00  0.33047210049E+02  0.33047210049E+02  0.00000000000E+00 0.  1.
          2   -1    0    0  501    0  0.00000000000E+00 -0.00000000000E+00 -0.85098336572E+03  0.85098336572E+03  0.00000000000E+00 0. -1.
         25    2    1    2    0    0  0.65632298712E+02 -0.54581844508E+02 -0.68384699418E+03  0.70041458759E+03  0.12508839543E+03 0.  0.
          5    1    3    3  502    0  0.65401726691E+02 -0.16857110814E+02 -0.63479831416E+03  0.63839479955E+03  0.41800000000E+01 0. -1.
         -5    1    3    3    0  502  0.23057202160E+00 -0.37724733694E+02 -0.49048680021E+02  0.62019788032E+02  0.41800000000E+01 0. -1.
        -11    1    1    2    0    0 -0.51357245418E+02 -0.55074265314E+01 -0.23061348498E+02  0.56566104678E+02  0.00000000000E+00 0.  1.
         11    1    1    2    0    0 -0.14275053294E+02  0.60089271039E+02 -0.11102781299E+03  0.12704988351E+03  0.00000000000E+00 0. -1.
</event>
<event>
 7    1  0.3895151E-009  0.1075919E+03  0.7561462E-02  0.1265095E+00
         -1   -1    0    0    0  501 -0.00000000000E+00  0.00000000000E+00  0.32598350836E+02  0.32598350836E+02  0.00000000000E+00 0.  1.
          1   -1    0    0  501    0  0.00000000000E+00 -0.00000000000E+00 -0.60794124261E+03  0.60794124261E+03  0.00000000000E+00 0. -1.
         25    2    1    2    0    0 -0.60519661487E+02 -0.62172661568E+02 -0.26561236039E+03  0.30614629450E+03  0.12509020094E+03 0.  0.
          5    1    3    3  502    0 -0.73978494572E+02 -0.37699545229E+02 -0.70508557773E+02  0.10900918534E+03  0.41800000000E+01 0. -1.
         -5    1    3    3    0  502  0.13458833085E+02 -0.24473116339E+02 -0.19510380262E+03  0.19713710916E+03  0.41800000000E+01 0. -1.
        -11    1    1    2    0    0  0.12620143198E+02  0.53701328396E+02 -0.66765211958E+02  0.86606548330E+02  0.00000000000E+00 0.  1.
         11    1    1    2    0    0  0.47899518289E+02  0.84713331715E+01 -0.24296531943E+03  0.24778675062E+03  0.00000000000E+00 0. -1.
</event>
<event>
 7    1  0.2490079E-009  0.1073528E+03  0.7561462E-02  0.1265552E+00
          1   -1    0    0  501    0  0.00000000000E+00  0.00000000000E+00  0.12880531009E+04  0.12880531009E+04  0.00000000000E+00 0. -1.
         -1   -1    0    0    0  501 -0.00000000000E+00 -0.00000000000E+00 -0.15359316796E+02  0.15359316796E+02  0.00000000000E+00 0.  1.
         25    2    1    2    0    0  0.35355744841E+01 -0.23640449751E+02  0.10937731879E+04  0.11011621978E+04  0.12508808122E+03 0.  0.
          5    1    3    3  502    0 -0.52183468305E+02  0.14171606431E+02  0.33129428280E+03  0.33570421953E+03  0.41800000000E+01 0. -1.
         -5    1    3    3    0  502  0.55719042789E+02 -0.37812056183E+02  0.76247890515E+03  0.76545797829E+03  0.41800000000E+01 0. -1.
        -11    1    1    2    0    0  0.87496620386E+01  0.56888923795E+02  0.93900692425E+02  0.11013739726E+03  0.00000000000E+00 0.  1.
         11    1    1    2    0    0 -0.12285236523E+02 -0.33248474044E+02  0.85019903760E+02  0.92112822658E+02  0.00000000000E+00 0. -1.
</event>
<event>
 7    1  0.2490079E-009  0.1172159E+03  0.7561462E-02  0.1247762E+00
          2   -1    0    0  501    0  0.00000000000E+00  0.00000000000E+00  0.31259848059E+03  0.31259848059E+03  0.00000000000E+00 0. -1.
         -2   -1    0    0    0  501 -0.00000000000E+00 -0.00000000000E+00 -0.47772325181E+02  0.47772325181E+02  0.00000000000E+00 0.  1.
         25    2    1    2    0    0 -0.47042182526E+02 -0.37366414685E+02  0.16274637056E+03  0.21387252203E+03  0.12508340683E+03 0.  0.
          5    1    3    3  502    0 -0.69221633173E+02 -0.65665985628E+02  0.14482788503E+03  0.17348269323E+03  0.41800000000E+01 0.  1.
         -5    1    3    3    0  502  0.22179450646E+02  0.28299570944E+02  0.17918485534E+02  0.40389828799E+02  0.41800000000E+01 0.  1.
        -11    1    1    2    0    0  0.68318867626E+02  0.11571211116E+02  0.82542206020E+02  0.10777094402E+03  0.00000000000E+00 0.  1.
         11    1    1    2    0    0 -0.21276685099E+02  0.25795203568E+02  0.19537578830E+02  0.38727339729E+02  0.00000000000E+00 0. -1.
</event>
<event>
 7    1  0.2490079E-009  0.1089132E+03  0.7561462E-02  0.1262596E+00
          2   -1    0    0  501    0  0.00000000000E+00  0.00000000000E+00  0.31613090325E+03  0.31613090325E+03  0.00000000000E+00 0.  1.
         -2   -1    0    0    0  501 -0.00000000000E+00 -0.00000000000E+00 -0.55410852301E+02  0.55410852301E+02  0.00000000000E+00 0. -1.
         25    2    1    2    0    0  0.52848418310E+02 -0.44212540445E+02  0.99193862520E+02  0.17387909762E+03  0.12508722628E+03 0.  0.
          5    1    3    3  502    0  0.85535131893E+02 -0.20420697563E+02  0.28863244699E+02  0.92648923207E+02  0.41800000000E+01 0.  1.
         -5    1    3    3    0  502 -0.32686713582E+02 -0.23791842882E+02  0.70330617821E+02  0.81230174416E+02  0.41800000000E+01 0.  1.
        -11    1    1    2    0    0 -0.31304124591E+02  0.56316770180E+02  0.16047678225E+03  0.17292866871E+03  0.00000000000E+00 0.  1.
         11    1    1    2    0    0 -0.21544293719E+02 -0.12104229735E+02  0.10494061772E+01  0.24733989218E+02  0.00000000000E+00 0. -1.
</event>
<event>
 7    1  0.2490079E-009  0.1106636E+03  0.7561462E-02  0.1259346E+00
         -2   -1    0    0    0  501 -0.00000000000E+00  0.00000000000E+00  0.13918561957E+03  0.13918561957E+03  0.00000000000E+00 0.  1.
          2   -1    0    0  501    0  0.00000000000E+00 -0.00000000000E+00 -0.12582972922E+03  0.12582972922E+03  0.00000000000E+00 0. -1.
         25    2    1    2    0    0  0.44875570540E+02  0.29519908184E+02 -0.45993777800E+02  0.14369889155E+03  0.12509477218E+03 0.  0.
          5    1    3    3  502    0 -0.89654288179E+01  0.54947930922E+02  0.15557397713E+02  0.57958252649E+02  0.41800000000E+01 0. -1.
         -5    1    3    3    0  502  0.53840999358E+02 -0.25428022739E+02 -0.61551175514E+02  0.85740638902E+02  0.41800000000E+01 0. -1.
        -11    1    1    2    0    0  0.23883104576E+02  0.10675353823E+02  0.14988366643E+02  0.30149908757E+02  0.00000000000E+00 0. -1.
         11    1    1    2    0    0 -0.68758675115E+02 -0.40195262007E+02  0.44361301511E+02  0.91166548488E+02  0.00000000000E+00 0.  1.
</event>
<event>
 7    1  0.2490079E-009  0.9292243E+02  0.7561462E-02  0.1295925E+00
          1   -1    0    0  501    0  0.00000000000E+00  0.00000000000E+00  0.74529600553E+02  0.74529600553E+02  0.00000000000E+00 0. -1.
         -1   -1    0    0    0  501 -0.00000000000E+00 -0.00000000000E+00 -0.18549744341E+03  0.18549744341E+03  0.00000000000E+00 0.  1.
         25    2    1    2    0    0 -0.65482835003E+01  0.34187503824E+02 -0.30738405930E+02  0.13343159867E+03  0.12508987365E+03 0.  0.
          5    1    3    3  502    0  0.24675224438E+02  0.64249681995E+02 -0.50644949953E+02  0.85552742172E+02  0.41800000000E+01 0. -1.
         -5    1    3    3    0  502 -0.31223507939E+02 -0.30062178171E+02  0.19906544023E+02  0.47878856496E+02  0.41800000000E+01 0. -1.
        -11    1    1    2    0    0  0.83115035347E+00 -0.53347417220E+02 -0.10920488507E+02  0.54460029417E+02  0.00000000000E+00 0. -1.
         11    1    1    2    0    0  0.57171331469E+01  0.19159913396E+02 -0.69308948416E+02  0.72135415874E+02  0.00000000000E+00 0.  1.
</event>
<event>
 7    1  0.2490079E-009  0.1062061E+03  0.7561462E-02  0.1267761E+00
         -2   -1    0    0    0  501 -0.00000000000E+00  0.00000000000E+00  0.21406913263E+02  0.21406913263E+02  0.00000000000E+00 0.  1.
          2   -1    0    0  501    0  0.00000000000E+00 -0.00000000000E+00 -0.61690400709E+03  0.61690400709E+03  0.00000000000E+00 0. -1.
         25    2    1    2    0    0  0.63636666353E+01 -0.29287001477E+02 -0.40806159385E+03  0.42785515995E+03  0.12509016275E+03 0.  0.
          5    1    3    3  502    0  0.12778912428E+02 -0.78075303984E+02 -0.24765109475E+03  0.26001459733E+03  0.41800000000E+01 0.  1.
         -5    1    3    3    0  502 -0.64152457931E+01  0.48788302507E+02 -0.16041049910E+03  0.16784056262E+03  0.41800000000E+01 0.  1.
        -11    1    1    2    0    0  0.33954143304E+02 -0.26898869495E-01 -0.13020808336E+03  0.13456236302E+03  0.00000000000E+00 0. -1.
         11    1    1    2    0    0 -0.40317809939E+02  0.29313900347E+02 -0.57227416619E+02  0.75893397372E+02  0.00000000000E+00 0.  1.
</event>
<event>
 7    1  0.2490079E-009  0.1465223E+03  0.7561462E-02  0.1204813E+00
         -1   -1    0    0    0  501 -0.00000000000E+00  0.00000000000E+00  0.43432798240E+03  0.43432798240E+03  0.00000000000E+00 0.  1.
          1   -1    0    0  501    0  0.00000000000E+00 -0.00000000000E+00 -0.69306982034E+02  0.69306982034E+02  0.00000000000E+00 0. -1.
         25    2    1    2    0    0 -0.12483062859E+03 -0.39053911674E+02  0.14826978445E+03  0.23396305823E+03  0.12508752850E+03 0.  0.
          5    1    3    3  502    0 -0.40397327261E+01 -0.89420738449E+00 -0.21392556186E+02  0.22186322533E+02  0.41800000000E+01 0. -1.
         -5    1    3    3    0  502 -0.12079089586E+03 -0.38159704289E+02  0.16966234063E+03  0.21177673570E+03  0.41800000000E+01 0. -1.
        -11    1    1    2    0    0  0.47544245961E+02 -0.30464444780E+02  0.78517875034E+02  0.96713982544E+02  0.00000000000E+00 0.  1.
         11    1    1    2    0    0  0.77286382627E+02  0.69518356454E+02  0.13823334088E+03  0.17295792366E+03  0.00000000000E+00 0. -1.
</event>
<event>
 7    1  0.2490079E-009  0.1141933E+03  0.7561462E-02  0.1252996E+00
         -4   -1    0    0    0  501 -0.00000000000E+00  0.00000000000E+00  0.30584096066E+03  0.30584096066E+03  0.00000000000E+00 0.  1.
          4   -1    0    0  501    0  0.00000000000E+00 -0.00000000000E+00 -0.56859047884E+02  0.56859047884E+02  0.00000000000E+00 0. -1.
         25    2    1    2    0    0  0.53562168061E+02 -0.35975196539E+02  0.19062948284E+03  0.23696294669E+03  0.12509483507E+03 0.  0.
          5    1    3    3  502    0 -0.23128073471E+01 -0.58603854552E+02  0.31409812730E+02  0.66661905028E+02  0.41800000000E+01 0.  1.
         -5    1    3    3    0  502  0.55874975408E+02  0.22628658013E+02  0.15921967011E+03  0.17030104166E+03  0.41800000000E+01 0.  1.
        -11    1    1    2    0    0  0.68411477507E+01 -0.23449091586E+02  0.32005231037E+01  0.24635432752E+02  0.00000000000E+00 0.  1.
         11    1    1    2    0    0 -0.60403315812E+02  0.59424288125E+02  0.55151906831E+02  0.10110162910E+03  0.00000000000E+00 0. -1.
</event>
<event>
 7    1  0.2490079E-009  0.1094196E+03  0.7561462E-02  0.1261649E+00
         -3   -1    0    0    0  501 -0.00000000000E+00  0.00000000000E+00  0.10714861560E+03  0.10714861560E+03  0.00000000000E+00 0.  1.
          3   -1    0    0  501    0  0.00000000000E+00 -0.00000000000E+00 -0.16503648763E+03  0.16503648763E+03  0.00000000000E+00 0. -1.
         25    2    1    2    0    0 -0.12678866400E+02 -0.75989177526E+02 -0.23510292913E+02  0.14877895016E+03  0.12508930163E+03 0.  0.
          5    1    3    3  502    0  0.48356686105E+02 -0.74647430103E+01  0.11562235804E+02  0.50450462595E+02  0.41800000000E+01 0. -1.
         -5    1    3    3    0  502 -0.61035552505E+02 -0.68524434515E+02 -0.35072528718E+02  0.98328487560E+02  0.41800000000E+01 0. -1.
        -11    1    1    2    0    0  0.55825367311E+01  0.96143346025E+01  0.29185374574E+02  0.31231174093E+02  0.00000000000E+00 0.  1.
         11    1    1    2    0    0  0.70963296687E+01  0.66374842923E+02 -0.63562953688E+02  0.92174978977E+02  0.00000000000E+00 0. -1.
</event>
<event>
 7    1  0.2490079E-009  0.1527113E+03  0.7561462E-02  0.1197180E+00
         -2   -1    0    0    0  501 -0.00000000000E+00  0.00000000000E+00  0.67514542515E+02  0.67514542515E+02  0.00000000000E+00 0.  1.
          2   -1    0    0  501    0  0.00000000000E+00 -0.00000000000E+00 -0.44215892641E+03  0.44215892641E+03  0.00000000000E+00 0. -1.
         25    2    1    2    0    0  0.38079673509E+01  0.12138190021E+03 -0.28345103678E+03  0.33277631213E+03  0.12509003697E+03 0.  0.
          5    1    3    3  502    0  0.62212646709E+02  0.84257316810E+02 -0.16289257409E+03  0.19370382531E+03  0.41800000000E+01 0. -1.
         -5    1    3    3    0  502 -0.58404679358E+02  0.37124583400E+02 -0.12055846270E+03  0.13907248682E+03  0.41800000000E+01 0. -1.
        -11    1    1    2    0    0  0.22144224540E+02 -0.38413977057E+02  0.79416422411E+01  0.45045199470E+02  0.00000000000E+00 0.  1.
         11    1    1    2    0    0 -0.25952191891E+02 -0.82967923153E+02 -0.99134989357E+02  0.13185195733E+03  0.00000000000E+00 0. -1.
</event>
<event>
 7    1  0.2490079E-009  0.9943630E+02  0.7561462E-02  0.1281486E+00
         -2   -1    0    0    0  501 -0.00000000000E+00  0.00000000000E+00  0.62434126371E+02  0.62434126371E+02  0.00000000000E+00 0. -1.
          2   -1    0    0  501    0  0.00000000000E+00 -0.00000000000E+00 -0.33879201990E+03  0.33879201990E+03  0.00000000000E+00 0.  1.
         25    2    1    2    0    0  0.22488290707E+01  0.67449587097E+02 -0.24631808249E+03  0.28438527962E+03  0.12509150838E+03 0.  0.
          5    1    3    3  502    0 -0.17627523036E+02  0.81649523086E+00  0.86359884977E+01  0.20086038190E+02  0.41800000000E+01 0.  1.
         -5    1    3    3    0  502  0.19876352107E+02  0.66633091866E+02 -0.25495407099E+03  0.26429924143E+03  0.41800000000E+01 0.  1.
        -11    1    1    2    0    0 -0.20779622112E+02 -0.83816618223E+02 -0.31874740154E+02  0.92048993723E+02  0.00000000000E+00 0.  1.
         11    1    1    2    0    0  0.18530793042E+02  0.16367031126E+02  0.18349291152E+01  0.24791872932E+02  0.00000000000E+00 0. -1.
</event>
<event>
 7    1  0.2490079E-009  0.1161664E+03  0.7561462E-02  0.1249559E+00
          4   -1    0    0  501    0  0.00000000000E+00  0.00000000000E+00  0.39687656502E+03  0.39687656502E+03  0.00000000000E+00 0. -1.
         -4   -1    0    0    0  501 -0.00000000000E+00 -0.00000000000E+00 -0.50954734948E+02  0.50954734948E+02  0.00000000000E+00 0.  1.
         25    2    1    2    0    0 -0.16904326796E+02  0.87625423533E+02  0.16962252652E+03  0.22887449257E+03  0.12509100979E+03 0.  0.
          5    1    3    3  502    0  0.40639710577E+02  0.44111786085E+02  0.13694999815E+03  0.14956674143E+03  0.41800000000E+01 0. -1.
         -5    1    3    3    0  502 -0.57544037373E+02  0.43513637447E+02  0.32672528370E+02  0.79307751142E+02  0.41800000000E+01 0. -1.
        -11    1    1    2    0    0  0.31181558438E+02 -0.43180715095E+02  0.21785718566E+02  0.57545471379E+02  0.00000000000E+00 0.  1.
         11    1    1    2    0    0 -0.14277231642E+02 -0.44444708438E+02  0.15451358499E+03  0.16141133602E+03  0.00000000000E+00 0. -1.
</event>
<event>
 7    1  0.2490079E-009  0.1833826E+03  0.7561462E-02  0.1164569E+00
          1   -1    0    0  501    0  0.00000000000E+00  0.00000000000E+00  0.65767728581E+03  0.65767728581E+03  0.00000000000E+00 0. -1.
         -1   -1    0    0    0  501 -0.00000000000E+00 -0.00000000000E+00 -0.52765260112E+02  0.52765260112E+02  0.00000000000E+00 0.  1.
         25    2    1    2    0    0 -0.72896465482E+02 -0.13176220647E+03  0.30061621658E+03  0.35873727921E+03  0.12508857699E+03 0.  0.
          5    1    3    3  502    0 -0.41807454018E+02 -0.15225865055E+03  0.23432278146E+03  0.28258662069E+03  0.41800000000E+01 0.  1.
         -5    1    3    3    0  502 -0.31089011465E+02  0.20496444087E+02  0.66293435119E+02  0.76150658526E+02  0.41800000000E+01 0.  1.
        -11    1    1    2    0    0  0.57752015882E+02  0.14184448469E+03  0.23848495212E+03  0.28342587313E+03  0.00000000000E+00 0.  1.
         11    1    1    2    0    0  0.15144449601E+02 -0.10082278219E+02  0.65810857007E+02  0.68279393581E+02  0.00000000000E+00 0. -1.
</event>
<event>
 7    1  0.2490079E-009  0.1002701E+03  0.7561462E-02  0.1279729E+00
          1   -1    0    0  501    0  0.00000000000E+00  0.00000000000E+00  0.28829582565E+02  0.28829582565E+02  0.00000000000E+00 0. -1.
         -1   -1    0    0    0  501 -0.00000000000E+00 -0.00000000000E+00 -0.47925090436E+03  0.47925090436E+03  0.00000000000E+00 0.  1.
         25    2    1    2    0    0 -0.89565378066E+01 -0.40509488867E+02 -0.29237472171E+03  0.32070452727E+03  0.12508867918E+03 0.  0.
          5    1    3    3  502    0 -0.60506041178E+02 -0.22202380321E+02 -0.88400467529E+02  0.10948078265E+03  0.41800000000E+01 0. -1.
         -5    1    3    3    0  502  0.51549503372E+02 -0.18307108546E+02 -0.20397425418E+03  0.21122374461E+03  0.41800000000E+01 0. -1.
        -11    1    1    2    0    0 -0.29974813596E+02  0.99014301163E+01 -0.12227693107E+03  0.12628608648E+03  0.00000000000E+00 0.  1.
         11    1    1    2    0    0  0.38931351403E+02  0.30608058751E+02 -0.35769669024E+02  0.61089873175E+02  0.00000000000E+00 0. -1.
</event>
<event>
 7    1  0.2490079E-009  0.1098704E+03  0.7561462E-02  0.1260810E+00
          1   -1    0    0  501    0  0.00000000000E+00  0.00000000000E+00  0.32000244279E+03  0.32000244279E+03  0.00000000000E+00 0. -1.
         -1   -1    0    0    0  501 -0.00000000000E+00 -0.00000000000E+00 -0.49265805648E+02  0.49265805648E+02  0.00000000000E+00 0.  1.
         25    2    1    2    0    0  0.35534609174E+00  0.21913834142E+02  0.23954107507E+03  0.27112259252E+03  0.12508873302E+03 0.  0.
          5    1    3    3  502    0  0.41044197566E+02  0.58708004265E+02  0.12757510775E+03  0.14636986178E+03  0.41800000000E+01 0. -1.
         -5    1    3    3    0  502 -0.40688851474E+02 -0.36794170123E+02  0.11196596732E+03  0.12475273074E+03  0.41800000000E+01 0. -1.
        -11    1    1    2    0    0 -0.44537448775E+02 -0.19789094458E+02  0.14234975329E+02  0.50772306678E+02  0.00000000000E+00 0.  1.
         11    1    1    2    0    0  0.44182102683E+02 -0.21247396839E+01  0.16960586747E+02  0.47373349249E+02  0.00000000000E+00 0. -1.
</event>
<event>
 7    1  0.2490079E-009  0.1080451E+03  0.7561462E-02  0.1264234E+00
         -1   -1    0    0    0  501 -0.00000000000E+00  0.00000000000E+00  0.31913019694E+03  0.31913019694E+03  0.00000000000E+00 0.  1.
          1   -1    0    0  501    0  0.00000000000E+00 -0.00000000000E+00 -0.43958700827E+02  0.43958700827E+02  0.00000000000E+00 0. -1.
         25    2    1    2    0    0 -0.35615323809E+02 -0.53793277685E+01  0.20154230312E+03  0.23992946068E+03  0.12509779253E+03 0.  0.
          5    1    3    3  502    0 -0.73965546708E+02  0.12105314183E+02  0.17374515195E+03  0.18926777581E+03  0.41800000000E+01 0.  1.
         -5    1    3    3    0  502  0.38350222900E+02 -0.17484641952E+02  0.27797151169E+02  0.50661684869E+02  0.41800000000E+01 0.  1.
        -11    1    1    2    0    0 -0.25221039827E+02  0.24235259582E+02  0.28124092638E+02  0.44882215227E+02  0.00000000000E+00 0.  1.
         11    1    1    2    0    0  0.60836363635E+02 -0.18855931814E+02  0.45505100356E+02  0.78277221868E+02  0.00000000000E+00 0. -1.
</event>
<event>
 7    1  0.2490079E-009  0.1619509E+03  0.7561462E-02  0.1186512E+00
          2   -1    0    0  501    0  0.00000000000E+00  0.00000000000E+00  0.18407907662E+03  0.18407907662E+03  0.00000000000E+00 0.  1.
         -2   -1    0    0    0  501 -0.00000000000E+00 -0.00000000000E+00 -0.19251323152E+03  0.19251323152E+03  0.00000000000E+00 0. -1.
         25    2    1    2    0    0 -0.10385329718E+03 -0.52654940642E+02  0.88814994897E+02  0.19259525497E+03  0.12508708490E+03 0.  0.
          5    1    3    3  502    0 -0.98836291218E+02 -0.89542758260E+02  0.69649651474E+02  0.15051599373E+03  0.41800000000E+01 0. -1.
         -5    1    3    3    0  502 -0.50170059621E+01  0.36887817619E+02  0.19165343423E+02  0.42079261234E+02  0.41800000000E+01 0. -1.
        -11    1    1    2    0    0  0.12116505037E+03  0.58747835652E+02 -0.71746758230E+02  0.15257743917E+03  0.00000000000E+00 0.  1.
         11    1    1    2    0    0 -0.17311753195E+02 -0.60928950101E+01 -0.25502391576E+02  0.31419614007E+02  0.00000000000E+00 0. -1.
</event>
<event>
 7    1  0.2490079E-009  0.1374937E+03  0.7561462E-02  0.1216742E+00
          3   -1    0    0  501    0  0.00000000000E+00  0.00000000000E+00  0.19521332338E+03  0.19521332338E+03  0.00000000000E+00 0. -1.
         -3   -1    0    0    0  501 -0.00000000000E+00 -0.00000000000E+00 -0.13101622496E+03  0.13101622496E+03  0.00000000000E+00 0.  1.
         25    2    1    2    0    0 -0.94135658519E+02 -0.64591785486E+02  0.61657288303E+02  0.18023064849E+03  0.12509134462E+03 0.  0.
          5    1    3    3  502    0 -0.41589637513E+02  0.17679372132E+02  0.68623448193E+02  0.82273374730E+02  0.41800000000E+01 0. -1.
         -5    1    3    3    0  502 -0.52546021006E+02 -0.82271157618E+02 -0.69661598900E+01  0.97957273762E+02  0.41800000000E+01 0. -1.
        -11    1    1    2    0    0  0.51091929360E+02 -0.36380209338E+01 -0.29600937598E+02  0.59159411328E+02  0.00000000000E+00 0.  1.
         11    1    1    2    0    0  0.43043729160E+02  0.68229806420E+02  0.32140747712E+02  0.86839488526E+02  0.00000000000E+00 0. -1.
</event>
<event>
 7    1  0.2490079E-009  0.1228125E+03  0.7561462E-02  0.1238528E+00
          4   -1    0    0  501    0  0.00000000000E+00  0.00000000000E+00  0.18445004739E+03  0.18445004739E+03  0.00000000000E+00 0. -1.
         -4   -1    0    0    0  501 -0.00000000000E+00 -0.00000000000E+00 -0.85160718987E+02  0.85160718987E+02  0.00000000000E+00 0.  1.
         25    2    1    2    0    0  0.41075200359E+02  0.44898487679E+02  0.33687316344E+02  0.14313592869E+03  0.12510001007E+03 0.  0.
          5    1    3    3  502    0 -0.21808005445E+02 -0.32237853194E+02  0.14188779096E+02  0.41637268550E+02  0.41800000000E+01 0. -1.
         -5    1    3    3    0  502  0.62883205804E+02  0.77136340873E+02  0.19498537247E+02  0.10149866014E+03  0.41800000000E+01 0. -1.
        -11    1    1    2    0    0 -0.31498785644E+02  0.22555287613E+02  0.14730407981E+02  0.41447550177E+02  0.00000000000E+00 0.  1.
         11    1    1    2    0    0 -0.95764147155E+01 -0.67453775292E+02  0.50871604079E+02  0.85027287512E+02  0.00000000000E+00 0. -1.
</event>
<event>
 7    1  0.2490079E-009  0.1375181E+03  0.7561462E-02  0.1216708E+00
          1   -1    0    0  501    0  0.00000000000E+00  0.00000000000E+00  0.15088494845E+04  0.15088494845E+04  0.00000000000E+00 0. -1.
         -1   -1    0    0    0  501 -0.00000000000E+00 -0.00000000000E+00 -0.18988370062E+02  0.18988370062E+02  0.00000000000E+00 0.  1.
         25    2    1    2    0    0  0.26961190164E+02  0.10476944651E+03  0.11044611920E+04  0.11167744507E+04  0.12508839441E+03 0.  0.
          5    1    3    3  502    0  0.46452337129E+02  0.31365020955E+02  0.16643090394E+03  0.17566531346E+03  0.41800000000E+01 0.  1.
         -5    1    3    3    0  502 -0.19491146965E+02  0.73404425557E+02  0.93803028809E+03  0.94110913728E+03  0.41800000000E+01 0.  1.
        -11    1    1    2    0    0 -0.20553531307E+02 -0.12234551899E+03  0.32713446496E+03  0.34986830641E+03  0.00000000000E+00 0.  1.
         11    1    1    2    0    0 -0.64076588574E+01  0.17576072480E+02  0.58265457408E+02  0.61195097376E+02  0.00000000000E+00 0. -1.
</event>
<event>
 7    1  0.2490079E-009  0.9169638E+02  0.7561462E-02  0.1298795E+00
         -3   -1    0    0    0  501 -0.00000000000E+00  0.00000000000E+00  0.24218635826E+03  0.24218635826E+03  0.00000000000E+00 0.  1.
          3   -1    0    0  501    0  0.00000000000E+00 -0.00000000000E+00 -0.65940207054E+02  0.65940207054E+02  0.00000000000E+00 0. -1.
         25    2    1    2    0    0 -0.60019487776E+02 -0.16162504791E+02  0.77824229526E+02  0.15989976076E+03  0.12509099614E+03 0.  0.
          5    1    3    3  502    0 -0.67986923411E+02  0.27788660254E+02  0.87180700301E+02  0.11407181203E+03  0.41800000000E+01 0. -1.
         -5    1    3    3    0  502  0.79674356356E+01 -0.43951165046E+02 -0.93564707749E+01  0.45827948730E+02  0.41800000000E+01 0. -1.
        -11    1    1    2    0    0  0.41256782079E+02  0.19943985616E+02 -0.21256036846E+01  0.45873770510E+02  0.00000000000E+00 0. -1.
         11    1    1    2    0    0  0.18762705697E+02 -0.37814808244E+01  0.10054752536E+03  0.10235303405E+03  0.00000000000E+00 0.  1.
</event>
<event>
 7    1  0.2490079E-009  0.1777576E+03  0.7561462E-02  0.1169991E+00
         -2   -1    0    0    0  501 -0.00000000000E+00  0.00000000000E+00  0.34863720081E+03  0.34863720081E+03  0.00000000000E+00 0. -1.
          2   -1    0    0  501    0  0.00000000000E+00 -0.00000000000E+00 -0.11518894771E+03  0.11518894771E+03  0.00000000000E+00 0.  1.
         25    2    1    2    0    0  0.16303241930E+03  0.35751319824E+02  0.14714840929E+03  0.25526032066E+03  0.12508976909E+03 0.  0.
          5    1    3    3  502    0  0.91067079997E+02 -0.22205393380E+02  0.16631198825E+02  0.95290932038E+02  0.41800000000E+01 0.  1.
         -5    1    3    3    0  502  0.71965339305E+02  0.57956713203E+02  0.13051721047E+03  0.15996938862E+03  0.41800000000E+01 0.  1.
        -11    1    1    2    0    0 -0.11563412565E+03 -0.38059652485E+02  0.14634221716E+02  0.12261300342E+03  0.00000000000E+00 0.  1.
         11    1    1    2    0    0 -0.47398293648E+02  0.23083326615E+01  0.71665622086E+02  0.85952824441E+02  0.00000000000E+00 0. -1.
</event>
<event>
 7    1  0.2490079E-009  0.2426072E+03  0.7561462E-02  0.1118068E+00
         -3   -1    0    0    0  501 -0.00000000000E+00  0.00000000000E+00  0.13107813544E+03  0.13107813544E+03  0.00000000000E+00 0.  1.
          3   -1    0    0  501    0  0.00000000000E+00 -0.00000000000E+00 -0.49139442496E+03  0.49139442496E+03  0.00000000000E+00 0. -1.
         25    2    1    2    0    0 -0.11905631612E+03 -0.19294465639E+03 -0.18057951297E+03  0.31568150719E+03  0.12507520394E+03 0.  0.
          5    1    3    3  502    0 -0.62003251913E+02 -0.17995451299E+03 -0.97273263154E+02  0.21379333507E+03  0.41800000000E+01 0. -1.
         -5    1    3    3    0  502 -0.57053064206E+02 -0.12990143398E+02 -0.83306249811E+02  0.10188817212E+03  0.41800000000E+01 0. -1.
        -11    1    1    2    0    0  0.12132636099E+03  0.14892113566E+03 -0.17921162952E+03  0.26270591671E+03  0.00000000000E+00 0. -1.
         11    1    1    2    0    0 -0.22700448700E+01  0.44023520729E+02 -0.52514703588E+00  0.44085136503E+02  0.00000000000E+00 0.  1.
</event>
<event>
 7    1  0.2490079E-009  0.1929285E+03  0.7561462E-02  0.1155846E+00
         -1   -1    0    0    0  501 -0.00000000000E+00  0.00000000000E+00  0.14189908278E+03  0.14189908278E+03  0.00000000000E+00 0.  1.
          1   -1    0    0  501    0  0.00000000000E+00 -0.00000000000E+00 -0.34843569699E+03  0.34843569699E+03  0.00000000000E+00 0. -1.
         25    2    1    2    0    0  0.18359932971E+03  0.12440273085E+02 -0.17350019410E+03  0.28215925672E+03  0.12509218414E+03 0.  0.
          5    1    3    3  502    0  0.16546154574E+03 -0.30872775866E+01 -0.76842156274E+02  0.18250820196E+03  0.41800000000E+01 0.  1.
         -5    1    3    3    0  502  0.18137783965E+02  0.15527550671E+02 -0.96658037830E+02  0.99651054757E+02  0.41800000000E+01 0.  1.
        -11    1    1    2    0    0 -0.10200159704E+03  0.26898848105E+02  0.13476720516E+02  0.10634611334E+03  0.00000000000E+00 0.  1.
         11    1    1    2    0    0 -0.81597732670E+02 -0.39339121190E+02 -0.46513140619E+02  0.10182940972E+03  0.00000000000E+00 0. -1.
</event>
<event>
 7    1  0.2490079E-009  0.9700147E+02  0.7561462E-02  0.1286731E+00
          1   -1    0    0  501    0  0.00000000000E+00  0.00000000000E+00  0.43195845866E+03  0.43195845866E+03  0.00000000000E+00 0. -1.
         -1   -1    0    0    0  501 -0.00000000000E+00 -0.00000000000E+00 -0.33078643190E+02  0.33078643190E+02  0.00000000000E+00 0.  1.
         25    2    1    2    0    0  0.15659438405E+01  0.23901346791E+02  0.13399863456E+03  0.18486782247E+03  0.12508697439E+03 0.  0.
          5    1    3    3  502    0 -0.18542128867E+02  0.59998801191E+02  0.24117978615E+02  0.67400415279E+02  0.41800000000E+01 0. -1.
         -5    1    3    3    0  502  0.20108072708E+02 -0.36097454399E+02  0.10988065594E+03  0.11746740719E+03  0.41800000000E+01 0. -1.
        -11    1    1    2    0    0  0.41906032539E+02 -0.18209011629E+02  0.10777909833E+03  0.11706416063E+03  0.00000000000E+00 0. -1.
         11    1    1    2    0    0 -0.43471976380E+02 -0.56923351622E+01  0.15710208258E+03  0.16310511875E+03  0.00000000000E+00 0.  1.
</event>
<event>
 7    1  0.2490079E-009  0.1194988E+03  0.7561462E-02  0.1243926E+00
         -3   -1    0    0    0  501 -0.00000000000E+00  0.00000000000E+00  0.26824607305E+03  0.26824607305E+03  0.00000000000E+00 0.  1.
          3   -1    0    0  501    0  0.00000000000E+00 -0.00000000000E+00 -0.80437403395E+02  0.80437403395E+02  0.00000000000E+00 0. -1.
         25    2    1    2    0    0 -0.85234959199E+02  0.46158469538E+02  0.78256562170E+02  0.17654248920E+03  0.12509020102E+03 0.  0.
          5    1    3    3  502    0 -0.69211745533E+02  0.73177483423E+02  0.10020603836E+02  0.10130693313E+03  0.41800000000E+01 0. -1.
         -5    1    3    3    0  502 -0.16023213666E+02 -0.27019013885E+02  0.68235958333E+02  0.75235556070E+02  0.41800000000E+01 0. -1.
        -11    1    1    2    0    0  0.79740924681E+02 -0.23426069973E+02  0.12044914007E+03  0.14633998485E+03  0.00000000000E+00 0.  1.
         11    1    1    2    0    0  0.54940345179E+01 -0.22732399565E+02 -0.10897032581E+02  0.25801002390E+02  0.00000000000E+00 0. -1.
</event>
<event>
 7    1  0.2490079E-009  0.1019254E+03  0.7561462E-02  0.1276298E+00
          3   -1    0    0  501    0  0.00000000000E+00  0.00000000000E+00  0.11968873467E+03  0.11968873467E+03  0.00000000000E+00 0. -1.
         -3   -1    0    0    0  501 -0.00000000000E+00 -0.00000000000E+00 -0.10386318627E+03  0.10386318627E+03  0.00000000000E+00 0.  1.
         25    2    1    2    0    0  0.16958595789E+02 -0.20913329773E+02  0.24310918184E+02  0.13024841576E+03  0.12509463511E+03 0.  0.
          5    1    3    3  502    0  0.59151166443E+02  0.21843660153E+02  0.29636676617E+02  0.69798359446E+02  0.41800000000E+01 0. -1.
         -5    1    3    3    0  502 -0.42192570654E+02 -0.42756989926E+02 -0.53257584332E+01  0.60450056318E+02  0.41800000000E+01 0. -1.
        -11    1    1    2    0    0 -0.29873939762E+02 -0.21043893471E+02 -0.27227450689E+02  0.45570075711E+02  0.00000000000E+00 0.  1.
         11    1    1    2    0    0  0.12915343973E+02  0.41957223244E+02  0.18742080899E+02  0.47733429467E+02  0.00000000000E+00 0. -1.
</event>
<event>
 7    1  0.2490079E-009  0.1259906E+03  0.7561462E-02  0.1233529E+00
          2   -1    0    0  501    0  0.00000000000E+00  0.00000000000E+00  0.70959918458E+03  0.70959918458E+03  0.00000000000E+00 0.  1.
         -2   -1    0    0    0  501 -0.00000000000E+00 -0.00000000000E+00 -0.55702814415E+02  0.55702814415E+02  0.00000000000E+00 0. -1.
         25    2    1    2    0    0  0.11552155874E+03 -0.64888538755E+01  0.57082785419E+03  0.59571396117E+03  0.12507337306E+03 0.  0.
          5    1    3    3  502    0  0.10988379040E+03 -0.41473279498E+01  0.23167948368E+03  0.25648489874E+03  0.41800000000E+01 0.  1.
         -5    1    3    3    0  502  0.56377683349E+01 -0.23415259258E+01  0.33914837052E+03  0.33922906243E+03  0.41800000000E+01 0.  1.
        -11    1    1    2    0    0  0.18639494975E+01  0.16615483543E+02 -0.99651941033E+01  0.19464164370E+02  0.00000000000E+00 0. -1.
         11    1    1    2    0    0 -0.11738550823E+03 -0.10126629667E+02  0.93033710075E+02  0.15012387346E+03  0.00000000000E+00 0.  1.
</event>
<event>
 7    1  0.2490079E-009  0.9663732E+02  0.7561462E-02  0.1287530E+00
          2   -1    0    0  501    0  0.00000000000E+00  0.00000000000E+00  0.38174056981E+03  0.38174056981E+03  0.00000000000E+00 0. -1.
         -2   -1    0    0    0  501 -0.00000000000E+00 -0.00000000000E+00 -0.43516059730E+02  0.43516059730E+02  0.00000000000E+00 0.  1.
         25    2    1    2    0    0 -0.64859953769E+02  0.17451243296E+02  0.15709761603E+03  0.21175036767E+03  0.12508875949E+03 0.  0.
          5    1    3    3  502    0 -0.70050742220E+02  0.40864318988E+02  0.16682166844E+03  0.18553689798E+03  0.41800000000E+01 0.  1.
         -5    1    3    3    0  502  0.51907884502E+01 -0.23413075693E+02 -0.97240524062E+01  0.26213469693E+02  0.41800000000E+01 0.  1.
        -11    1    1    2    0    0  0.96140276343E+01 -0.29631754635E+02  0.14035925969E+03  0.14377479679E+03  0.00000000000E+00 0. -1.
         11    1    1    2    0    0  0.55245926135E+02  0.12180511339E+02  0.40767634353E+02  0.69731465077E+02  0.00000000000E+00 0.  1.
</event>
<event>
 7    1  0.2490079E-009  0.1070874E+03  0.7561462E-02  0.1266061E+00
          3   -1    0    0  501    0  0.00000000000E+00  0.00000000000E+00  0.11852136046E+03  0.11852136046E+03  0.00000000000E+00 0. -1.
         -3   -1    0    0    0  501 -0.00000000000E+00 -0.00000000000E+00 -0.10974725786E+03  0.10974725786E+03  0.00000000000E+00 0.  1.
         25    2    1    2    0    0 -0.97056950371E-01  0.62133192115E+00  0.33211684691E+02  0.12941860785E+03  0.12508303076E+03 0.  0.
          5    1    3    3  502    0 -0.21537291567E+02 -0.56868016133E+02  0.33305533318E+01  0.61044173944E+02  0.41800000000E+01 0. -1.
         -5    1    3    3    0  502  0.21440234617E+02  0.57489348054E+02  0.29881131359E+02  0.68374433902E+02  0.41800000000E+01 0. -1.
        -11    1    1    2    0    0  0.38855659907E+02 -0.24748011781E+02 -0.26505934470E+02  0.53148762507E+02  0.00000000000E+00 0.  1.
         11    1    1    2    0    0 -0.38758602957E+02  0.24126679860E+02  0.20683523760E+01  0.45701247968E+02  0.00000000000E+00 0. -1.
</event>
<event>
 7    1  0.2490079E-009  0.1215519E+03  0.7561462E-02  0.1240559E+00
          2   -1    0    0  501    0  0.00000000000E+00  0.00000000000E+00  0.12603616895E+03  0.12603616895E+03  0.00000000000E+00 0. -1.
         -2   -1    0    0    0  501 -0.00000000000E+00 -0.00000000000E+00 -0.16797823873E+03  0.16797823873E+03  0.00000000000E+00 0.  1.
         25    2    1    2    0    0 -0.89400254813E+02 -0.39670036605E+02 -0.24442169254E+02  0.16066006384E+03  0.12509244226E+03 0.  0.
          5    1    3    3  502    0 -0.33133350300E+02  0.35931426055E+02 -0.42152247447E+02  0.64677435364E+02  0.41800000000E+01 0.  1.
         -5    1    3    3    0  502 -0.56266904514E+02 -0.75601462661E+02  0.17710078192E+02  0.95982628478E+02  0.41800000000E+01 0.  1.
        -11    1    1    2    0    0  0.63970096744E+02  0.37596018187E+02 -0.51881996174E+02  0.90539358226E+02  0.00000000000E+00 0.  1.
         11    1    1    2    0    0  0.25430158070E+02  0.20740184177E+01  0.34382095651E+02  0.42814985615E+02  0.00000000000E+00 0. -1.
</event>
<event>
 7    1  0.2490079E-009  0.9645450E+02  0.7561462E-02  0.1287933E+00
         -2   -1    0    0    0  501 -0.00000000000E+00  0.00000000000E+00  0.49935292415E+02  0.49935292415E+02  0.00000000000E+00 0.  1.
          2   -1    0    0  501    0  0.00000000000E+00 -0.00000000000E+00 -0.38297661051E+03  0.38297661051E+03  0.00000000000E+00 0. -1.
         25    2    1    2    0    0  0.39226707198E+02  0.47363272930E+02 -0.87830658129E+02  0.16475209062E+03  0.12508801972E+03 0.  0.
          5    1    3    3  502    0 -0.57542028301E+01  0.38796994591E+02 -0.10767551981E+03  0.11467261053E+03  0.41800000000E+01 0.  1.
         -5    1    3    3    0  502  0.44980910028E+02  0.85662783396E+01  0.19844861678E+02  0.50079480095E+02  0.41800000000E+01 0.  1.
        -11    1    1    2    0    0 -0.10705939963E+02 -0.70161021114E+02 -0.14345560992E+03  0.16005217290E+03  0.00000000000E+00 0. -1.
         11    1    1    2    0    0 -0.28520767235E+02  0.22797748184E+02 -0.10175505005E+03  0.10810763940E+03  0.00000000000E+00 0.  1.
</event>
<event>
 7    1  0.2490079E-009  0.1041037E+03  0.7561462E-02  0.1271896E+00
         -2   -1    0    0    0  501 -0.00000000000E+00  0.00000000000E+00  0.21261065165E+02  0.21261065165E+02  0.00000000000E+00 0. -1.
          2   -1    0    0  501    0  0.00000000000E+00 -0.00000000000E+00 -0.71712895911E+03  0.71712895911E+03  0.00000000000E+00 0.  1.
         25    2    1    2    0    0 -0.75550267000E+01  0.52545201234E+02 -0.46430283025E+03  0.48377916628E+03  0.12508831661E+03 0.  0.
          5    1    3    3  502    0 -0.60224714894E+02  0.81156314553E+01 -0.14827037429E+03  0.16029490338E+03  0.41800000000E+01 0. -1.
         -5    1    3    3    0  502  0.52669688194E+02  0.44429569779E+02 -0.31603245596E+03  0.32348426291E+03  0.41800000000E+01 0. -1.
        -11    1    1    2    0    0  0.31033995074E+02 -0.16240740045E+02 -0.19460165907E+03  0.19772879457E+03  0.00000000000E+00 0.  1.
         11    1    1    2    0    0 -0.23478968374E+02 -0.36304461190E+02 -0.36963404626E+02  0.56882063427E+02  0.00000000000E+00 0. -1.
</event>
<event>
 7    1  0.2490079E-009  0.1926582E+03  0.7561462E-02  0.1156085E+00
          1   -1    0    0  501    0  0.00000000000E+00  0.00000000000E+00  0.21573009856E+03  0.21573009856E+03  0.00000000000E+00 0. -1.
         -1   -1    0    0    0  501 -0.00000000000E+00 -0.00000000000E+00 -0.25776756965E+03  0.25776756965E+03  0.00000000000E+00 0.  1.
         25    2    1    2    0    0 -0.90718060247E+02 -0.15061719251E+03 -0.13455695397E+03  0.25430011153E+03  0.12509063805E+03 0.  0.
          5    1    3    3  502    0 -0.10395083754E+03 -0.76914065432E+02 -0.12281415278E+03  0.17838816836E+03  0.41800000000E+01 0.  1.
         -5    1    3    3    0  502  0.13232777295E+02 -0.73703127082E+02 -0.11742801189E+02  0.75911943173E+02  0.41800000000E+01 0.  1.
        -11    1    1    2    0    0  0.49502217467E+02  0.42540650065E+02  0.79404730566E+02  0.10278758524E+03  0.00000000000E+00 0. -1.
         11    1    1    2    0    0  0.41215842780E+02  0.10807654245E+03  0.13114752320E+02  0.11640997145E+03  0.00000000000E+00 0.  1.
</event>
<event>
 7    1  0.2490079E-009  0.1289928E+03  0.7561462E-02  0.1228958E+00
         -1   -1    0    0    0  501 -0.00000000000E+00  0.00000000000E+00  0.96798936870E+02  0.96798936870E+02  0.00000000000E+00 0.  1.
          1   -1    0    0  501    0  0.00000000000E+00 -0.00000000000E+00 -0.19345597097E+03  0.19345597097E+03  0.00000000000E+00 0. -1.
         25    2    1    2    0    0 -0.61311777035E+01  0.82781735134E+02 -0.51129039745E+02  0.15859707097E+03  0.12509374566E+03 0.  0.
          5    1    3    3  502    0 -0.26091413629E+02 -0.21906149474E+02  0.98899446190E+01  0.35720087549E+02  0.41800000000E+01 0. -1.
         -5    1    3    3    0  502  0.19960235925E+02  0.10468788461E+03 -0.61018984363E+02  0.12287698342E+03  0.41800000000E+01 0. -1.
        -11    1    1    2    0    0 -0.22184687495E+02 -0.85714569787E+02 -0.51701213593E+02  0.10252884141E+03  0.00000000000E+00 0.  1.
         11    1    1    2    0    0  0.28315865199E+02  0.29328346525E+01  0.61732192378E+01  0.29128995465E+02  0.00000000000E+00 0. -1.
</event>
<event>
 7    1  0.2490079E-009  0.1533845E+03  0.7561462E-02  0.1196375E+00
          2   -1    0    0  501    0  0.00000000000E+00  0.00000000000E+00  0.94819398575E+03  0.94819398575E+03  0.00000000000E+00 0. -1.
         -2   -1    0    0    0  501 -0.00000000000E+00 -0.00000000000E+00 -0.51968222609E+02  0.51968222609E+02  0.00000000000E+00 0.  1.
         25    2    1    2    0    0 -0.10715205020E+03  0.77452306735E+02  0.78072957029E+03  0.80166425130E+03  0.12508592328E+03 0.  0.
          5    1    3    3  502    0 -0.11887786417E+02 -0.28706004925E+02  0.25474915351E+03  0.25667091342E+03  0.41800000000E+01 0. -1.
         -5    1    3    3    0  502 -0.95264263783E+02  0.10615831166E+03  0.52598041678E+03  0.54499333787E+03  0.41800000000E+01 0. -1.
        -11    1    1    2    0    0  0.54475201559E+02 -0.46515441109E+02  0.44665003118E+01  0.71771745635E+02  0.00000000000E+00 0.  1.
         11    1    1    2    0    0  0.52676848641E+02 -0.30936865626E+02  0.11102969254E+03  0.12672621143E+03  0.00000000000E+00 0. -1.
</event>
<event>
 7    1  0.2490079E-009  0.7437955E+02  0.7561462E-02  0.1345803E+00
          2   -1    0    0  501    0  0.00000000000E+00  0.00000000000E+00  0.13386363204E+03  0.13386363204E+03  0.00000000000E+00 0. -1.
         -2   -1    0    0    0  501 -0.00000000000E+00 -0.00000000000E+00 -0.12920138772E+03  0.12920138772E+03  0.00000000000E+00 0.  1.
         25    2    1    2    0    0  0.58412260402E+02 -0.36736730324E+02 -0.27839899703E+02  0.14554651858E+03  0.12508856677E+03 0.  0.
          5    1    3    3  502    0  0.43606177413E+02 -0.36196774705E+02  0.44129867127E+02  0.71948751068E+02  0.41800000000E+01 0. -1.
         -5    1    3    3    0  502  0.14806082989E+02 -0.53995561850E+00 -0.71969766830E+02  0.73597767514E+02  0.41800000000E+01 0. -1.
        -11    1    1    2    0    0 -0.39225095765E+02  0.41150751014E+02  0.60675462886E+02  0.83147484889E+02  0.00000000000E+00 0. -1.
         11    1    1    2    0    0 -0.19187164637E+02 -0.44140206899E+01 -0.28173318857E+02  0.34371016291E+02  0.00000000000E+00 0.  1.
</event>
<event>
 7    1  0.2490079E-009  0.9082136E+02  0.7561462E-02  0.1300875E+00
         -1   -1    0    0    0  501 -0.00000000000E+00  0.00000000000E+00  0.68971440853E+02  0.68971440853E+02  0.00000000000E+00 0.  1.
          1   -1    0    0  501    0  0.00000000000E+00 -0.00000000000E+00 -0.20890905372E+03  0.20890905372E+03  0.00000000000E+00 0. -1.
         25    2    1    2    0    0  0.30007120896E+02 -0.22708398546E+02 -0.12107488044E+03  0.17811125042E+03  0.12509353373E+03 0.  0.
          5    1    3    3  502    0  0.39107538282E+02 -0.61285853216E+02 -0.11731474548E+03  0.13807815635E+03  0.41800000000E+01 0.  1.
         -5    1    3    3    0  502 -0.91004173857E+01  0.38577454670E+02 -0.37601349630E+01  0.40033094064E+02  0.41800000000E+01 0.  1.
        -11    1    1    2    0    0 -0.47337000664E+02  0.12944686451E+02 -0.45231044480E+02  0.66739822624E+02  0.00000000000E+00 0. -1.
         11    1    1    2    0    0  0.17329879767E+02  0.97637120949E+01  0.26368312051E+02  0.33029421536E+02  0.00000000000E+00 0.  1.
</event>
<event>
 7    1  0.2490079E-009  0.1314894E+03  0.7561462E-02  0.1225262E+00
          2   -1    0    0  501    0  0.00000000000E+00  0.00000000000E+00  0.45601104460E+03  0.45601104460E+03  0.00000000000E+00 0. -1.
         -2   -1    0    0    0  501 -0.00000000000E+00 -0.00000000000E+00 -0.48870735564E+02  0.48870735564E+02  0.00000000000E+00 0.  1.
         25    2    1    2    0    0 -0.15945308691E+02 -0.10047438433E+03  0.22152169710E+03  0.27398572587E+03  0.12508781283E+03 0.  0.
          5    1    3    3  502    0  0.46989119001E+02 -0.67244687090E+02  0.15985404978E+03  0.17972371818E+03  0.41800000000E+01 0. -1.
         -5    1    3    3    0  502 -0.62934427693E+02 -0.33229697238E+02  0.61667647321E+02  0.94262007689E+02  0.41800000000E+01 0. -1.
        -11    1    1    2    0    0 -0.13227593587E+02  0.44513721318E+02  0.15292855091E+03  0.15982359745E+03  0.00000000000E+00 0. -1.
         11    1    1    2    0    0  0.29172902278E+02  0.55960663010E+02  0.32690061024E+02  0.71072456842E+02  0.00000000000E+00 0.  1.
</event>
<event>
 7    1  0.2490079E-009  0.2133152E+03  0.7561462E-02  0.1138967E+00
         -2   -1    0    0    0  501 -0.00000000000E+00  0.00000000000E+00  0.25449353112E+03  0.25449353112E+03  0.00000000000E+00 0.  1.
          2   -1    0    0  501    0  0.00000000000E+00 -0.00000000000E+00 -0.18978163500E+03  0.18978163500E+03  0.00000000000E+00 0. -1.
         25    2    1    2    0    0  0.11130338944E+03  0.15435682098E+03  0.43656657061E+02  0.23188018590E+03  0.12509214294E+03 0.  0.
          5    1    3    3  502    0  0.11754538145E+03  0.81663248991E+02  0.62766486782E+02  0.15634227579E+03  0.41800000000E+01 0. -1.
         -5    1    3    3    0  502 -0.62419920075E+01  0.72693571984E+02 -0.19109829721E+02  0.75537910111E+02  0.41800000000E+01 0. -1.
        -11    1    1    2    0    0  0.52246358006E+01 -0.60524688520E+02 -0.31870577722E+01  0.60833313874E+02  0.00000000000E+00 0.  1.
         11    1    1    2    0    0 -0.11652802524E+03 -0.93832132455E+02  0.24242296833E+02  0.15156166634E+03  0.00000000000E+00 0. -1.
</event>
<event>
 7    1  0.2490079E-009  0.8778092E+02  0.7561462E-02  0.1308316E+00
         -3   -1    0    0    0  501 -0.00000000000E+00  0.00000000000E+00  0.45802455093E+02  0.45802455093E+02  0.00000000000E+00 0.  1.
          3   -1    0    0  501    0  0.00000000000E+00 -0.00000000000E+00 -0.32290189729E+03  0.32290189729E+03  0.00000000000E+00 0. -1.
         25    2    1    2    0    0  0.49883848742E+02 -0.12291797487E+02 -0.19908271400E+03  0.24066740461E+03  0.12508951187E+03 0.  0.
          5    1    3    3  502    0 -0.25052496073E+02  0.48815146031E+01  0.14075718947E+01  0.25901938208E+02  0.41800000000E+01 0. -1.
         -5    1    3    3    0  502  0.74936344815E+02 -0.17173312091E+02 -0.20049028589E+03  0.21476546640E+03  0.41800000000E+01 0. -1.
        -11    1    1    2    0    0 -0.20917817503E+02  0.31598610651E+02  0.48036600859E+01  0.38198199360E+02  0.00000000000E+00 0.  1.
         11    1    1    2    0    0 -0.28966031239E+02 -0.19306813163E+02 -0.82820388280E+02  0.89838748406E+02  0.00000000000E+00 0. -1.
</event>
<event>
 7    1  0.2490079E-009  0.9914921E+02  0.7561462E-02  0.1282095E+00
         -2   -1    0    0    0  501 -0.00000000000E+00  0.00000000000E+00  0.10534419193E+03  0.10534419193E+03  0.00000000000E+00 0.  1.
          2   -1    0    0  501    0  0.00000000000E+00 -0.00000000000E+00 -0.19189778884E+03  0.19189778884E+03  0.00000000000E+00 0. -1.
         25    2    1    2    0    0 -0.68552734621E+02  0.25518212465E+02  0.10462455396E+02  0.14528596893E+03  0.12509153930E+03 0.  0.
          5    1    3    3  502    0 -0.52167002387E+02  0.72247561184E+00  0.64747535744E+02  0.83256434550E+02  0.41800000000E+01 0.  1.
         -5    1    3    3    0  502 -0.16385732234E+02  0.24795736853E+02 -0.54285080348E+02  0.62029534379E+02  0.41800000000E+01 0.  1.
        -11    1    1    2    0    0  0.50829869422E+01  0.30724675476E+02 -0.35292872446E+02  0.47068346953E+02  0.00000000000E+00 0. -1.
         11    1    1    2    0    0  0.63469747679E+02 -0.56242887941E+02 -0.61723179853E+02  0.10488766489E+03  0.00000000000E+00 0.  1.
</event>
<event>
 7    1  0.2490079E-009  0.1001071E+03  0.7561462E-02  0.1280071E+00
          1   -1    0    0  501    0  0.00000000000E+00  0.00000000000E+00  0.33791267596E+02  0.33791267596E+02  0.00000000000E+00 0. -1.
         -1   -1    0    0    0  501 -0.00000000000E+00 -0.00000000000E+00 -0.43611632953E+03  0.43611632953E+03  0.00000000000E+00 0.  1.
         25    2    1    2    0    0 -0.39870094792E+02  0.39117272139E+02 -0.23178771246E+03  0.26924701751E+03  0.12509447370E+03 0.  0.
          5    1    3    3  502    0 -0.64761760996E+02 -0.10189438059E+02 -0.60795773327E+02  0.89507032068E+02  0.41800000000E+01 0.  1.
         -5    1    3    3    0  502  0.24891666203E+02  0.49306710198E+02 -0.17099193914E+03  0.17973998544E+03  0.41800000000E+01 0.  1.
        -11    1    1    2    0    0 -0.14028588314E+02 -0.32839252494E+01  0.36281980852E+01  0.14857633609E+02  0.00000000000E+00 0. -1.
         11    1    1    2    0    0  0.53898683106E+02 -0.35833346890E+02 -0.17416554756E+03  0.18580294601E+03  0.00000000000E+00 0.  1.
</event>
<event>
 7    1  0.2490079E-009  0.1603112E+03  0.7561462E-02  0.1188346E+00
         -2   -1    0    0    0  501 -0.00000000000E+00  0.00000000000E+00  0.16463623001E+03  0.16463623001E+03  0.00000000000E+00 0.  1.
          2   -1    0    0  501    0  0.00000000000E+00 -0.00000000000E+00 -0.18749126645E+03  0.18749126645E+03  0.00000000000E+00 0. -1.
         25    2    1    2    0    0  0.98264398933E+01 -0.12772494241E+03  0.38211255443E+02  0.18307969416E+03  0.12509138475E+03 0.  0.
          5    1    3    3  502    0  0.58880481448E+02 -0.69640356369E+02  0.52933128086E+02  0.10552762093E+03  0.41800000000E+01 0. -1.
         -5    1    3    3    0  502 -0.49054041555E+02 -0.58084586042E+02 -0.14721872643E+02  0.77552073232E+02  0.41800000000E+01 0. -1.
        -11    1    1    2    0    0 -0.26012157093E+02  0.16341713536E+01 -0.26803249200E+02  0.37386053554E+02  0.00000000000E+00 0. -1.
         11    1    1    2    0    0  0.16185717200E+02  0.12609077106E+03 -0.34263042677E+02  0.13166174874E+03  0.00000000000E+00 0.  1.
</event>
<event>
 7    1  0.2490079E-009  0.2877249E+03  0.7561462E-02  0.1091543E+00
          2   -1    0    0  501    0  0.00000000000E+00  0.00000000000E+00  0.14131747192E+04  0.14131747192E+04  0.00000000000E+00 0.  1.
         -2   -1    0    0    0  501 -0.00000000000E+00 -0.00000000000E+00 -0.76061262520E+02  0.76061262520E+02  0.00000000000E+00 0. -1.
         25    2    1    2    0    0  0.16488838668E+03  0.22727469567E+03  0.97207636907E+03  0.10195204491E+04  0.12509001345E+03 0.  0.
          5    1    3    3  502    0  0.14333533896E+03  0.13647131239E+03  0.49000488436E+03  0.52848055555E+03  0.41800000000E+01 0.  1.
         -5    1    3    3    0  502  0.21553047722E+02  0.90803383280E+02  0.48207148471E+03  0.49103989354E+03  0.41800000000E+01 0.  1.
        -11    1    1    2    0    0 -0.14884221565E+03 -0.17680878754E+03  0.34006200084E+03  0.41116604544E+03  0.00000000000E+00 0.  1.
         11    1    1    2    0    0 -0.16046171030E+02 -0.50465908136E+02  0.24975086750E+02  0.58549487162E+02  0.00000000000E+00 0. -1.
</event>
<event>
 7    1  0.2490079E-009  0.1252522E+03  0.7561462E-02  0.1234676E+00
         -2   -1    0    0    0  501 -0.00000000000E+00  0.00000000000E+00  0.22874538531E+02  0.22874538531E+02  0.00000000000E+00 0.  1.
          2   -1    0    0  501    0  0.00000000000E+00 -0.00000000000E+00 -0.10277520843E+04  0.10277520843E+04  0.00000000000E+00 0. -1.
         25    2    1    2    0    0  0.11565243818E+03 -0.15030181756E+02 -0.56540086850E+03  0.59070115867E+03  0.12509326096E+03 0.  0.
          5    1    3    3  502    0  0.10888687228E+03 -0.20421600722E+02 -0.56954704876E+03  0.58023676709E+03  0.41800000000E+01 0.  1.
         -5    1    3    3    0  502  0.67655658953E+01  0.53914189665E+01  0.41461802647E+01  0.10464391580E+02  0.41800000000E+01 0.  1.
        -11    1    1    2    0    0 -0.22736828027E+02  0.28160477625E+02 -0.18929460019E+03  0.19272369213E+03  0.00000000000E+00 0.  1.
         11    1    1    2    0    0 -0.92915610149E+02 -0.13130295869E+02 -0.25018207704E+03  0.26720177199E+03  0.00000000000E+00 0. -1.
</event>
<event>
 7    1  0.2490079E-009  0.9226036E+02  0.7561462E-02  0.1297468E+00
          1   -1    0    0  501    0  0.00000000000E+00  0.00000000000E+00  0.90493070237E+02  0.90493070237E+02  0.00000000000E+00 0.  1.
         -1   -1    0    0    0  501 -0.00000000000E+00 -0.00000000000E+00 -0.34780581811E+03  0.34780581811E+03  0.00000000000E+00 0. -1.
         25    2    1    2    0    0  0.71619217485E+02  0.19322013383E+02  0.92844505656E+01  0.14572518359E+03  0.12508787149E+03 0.  0.
          5    1    3    3  502    0  0.71280046924E+02  0.44383246861E+02  0.49936881250E+02  0.97784877155E+02  0.41800000000E+01 0. -1.
         -5    1    3    3    0  502  0.33917056115E+00 -0.25061233477E+02 -0.40652430684E+02  0.47940306430E+02  0.41800000000E+01 0. -1.
        -11    1    1    2    0    0 -0.51817517749E+02 -0.86193318062E+01 -0.26483669730E+03  0.26999597083E+03  0.00000000000E+00 0. -1.
         11    1    1    2    0    0 -0.19801699736E+02 -0.10702681577E+02 -0.17605011396E+01  0.22577733935E+02  0.00000000000E+00 0.  1.
</event>
<event>
 7    1  0.2490079E-009  0.1275382E+03  0.7561462E-02  0.1231155E+00
          1   -1    0    0  501    0  0.00000000000E+00  0.00000000000E+00  0.21618527781E+02  0.21618527781E+02  0.00000000000E+00 0. -1.
         -1   -1    0    0    0  501 -0.00000000000E+00 -0.00000000000E+00 -0.85416355080E+03  0.85416355080E+03  0.00000000000E+00 0.  1.
         25    2    1    2    0    0  0.41391368286E+02 -0.70638761377E+02 -0.47832986426E+03  0.50114879819E+03  0.12509028301E+03 0.  0.
          5    1    3    3  502    0  0.25086346610E+02  0.31703293698E+02 -0.82669516099E+02  0.92120274150E+02  0.41800000000E+01 0.  1.
         -5    1    3    3    0  502  0.16305021676E+02 -0.10234205508E+03 -0.39566034816E+03  0.40902852404E+03  0.41800000000E+01 0.  1.
        -11    1    1    2    0    0  0.57025725253E+01  0.62698471736E+02 -0.11909504692E+03  0.13471172143E+03  0.00000000000E+00 0. -1.
         11    1    1    2    0    0 -0.47093940811E+02  0.79402896409E+01 -0.23512011184E+03  0.23992155895E+03  0.00000000000E+00 0.  1.
</event>
<event>
 7    1  0.2490079E-009  0.1246077E+03  0.7561462E-02  0.1235684E+00
          2   -1    0    0  501    0  0.00000000000E+00  0.00000000000E+00  0.52589498848E+03  0.52589498848E+03  0.00000000000E+00 0. -1.
         -2   -1    0    0    0  501 -0.00000000000E+00 -0.00000000000E+00 -0.37606352321E+02  0.37606352321E+02  0.00000000000E+00 0.  1.
         25    2    1    2    0    0  0.78662161197E+02  0.27212669475E+02  0.20106726601E+03  0.25100580207E+03  0.12509037624E+03 0.  0.
          5    1    3    3  502    0  0.10452890025E+03  0.46450946131E+02  0.13229663597E+03  0.17493957149E+03  0.41800000000E+01 0.  1.
         -5    1    3    3    0  502 -0.25866739057E+02 -0.19238276657E+02  0.68770630043E+02  0.76066230580E+02  0.41800000000E+01 0.  1.
        -11    1    1    2    0    0 -0.79856370823E+02 -0.50108099048E+01  0.27643756353E+03  0.28778442402E+03  0.00000000000E+00 0. -1.
         11    1    1    2    0    0  0.11942096253E+01 -0.22201859570E+02  0.10783806615E+02  0.24711114708E+02  0.00000000000E+00 0.  1.
</event>
<event>
 7    1  0.2490079E-009  0.9375940E+02  0.7561462E-02  0.1293995E+00
         -1   -1    0    0    0  501 -0.00000000000E+00  0.00000000000E+00  0.86578826345E+02  0.86578826345E+02  0.00000000000E+00 0.  1.
          1   -1    0    0  501    0  0.00000000000E+00 -0.00000000000E+00 -0.16510872245E+03  0.16510872245E+03  0.00000000000E+00 0. -1.
         25    2    1    2    0    0 -0.44890819770E+02 -0.18483313244E+02 -0.54670392107E+02  0.14489190525E+03  0.12509194165E+03 0.  0.
          5    1    3    3  502    0 -0.73494572746E+02  0.86150263492E+00  0.71429126569E+01  0.73964099475E+02  0.41800000000E+01 0.  1.
         -5    1    3    3    0  502  0.28603752976E+02 -0.19344815879E+02 -0.61813304764E+02  0.70927805771E+02  0.41800000000E+01 0.  1.
        -11    1    1    2    0    0 -0.10647960042E+02  0.20974615839E+02  0.23877729122E+02  0.33518047537E+02  0.00000000000E+00 0.  1.
         11    1    1    2    0    0  0.55538779812E+02 -0.24913025952E+01 -0.47737233124E+02  0.73277596016E+02  0.00000000000E+00 0. -1.
</event>
<event>
 7    1  0.2490079E-009  0.1254066E+03  0.7561462E-02  0.1234435E+00
          1   -1    0    0  501    0  0.00000000000E+00  0.00000000000E+00  0.15208782778E+03  0.15208782778E+03  0.00000000000E+00 0. -1.
         -1   -1    0    0    0  501 -0.00000000000E+00 -0.00000000000E+00 -0.13458697986E+03  0.13458697986E+03  0.00000000000E+00 0.  1.
         25    2    1    2    0    0 -0.69714590810E+02  0.61290418761E+02  0.16447706578E+02  0.15663296334E+03  0.12508684403E+03 0.  0.
          5    1    3    3  502    0  0.10583143892E+02  0.69849664146E+02  0.25594745130E+02  0.75256507322E+02  0.41800000000E+01 0.  1.
         -5    1    3    3    0  502 -0.80297734702E+02 -0.85592453852E+01 -0.91470385519E+01  0.81376456018E+02  0.41800000000E+01 0.  1.
        -11    1    1    2    0    0  0.23984438071E+02 -0.44340479132E+02 -0.41516088116E+02  0.65306331483E+02  0.00000000000E+00 0.  1.
         11    1    1    2    0    0  0.45730152739E+02 -0.16949939629E+02  0.42569229457E+02  0.64735512816E+02  0.00000000000E+00 0. -1.
</event>
<event>
 7    1  0.2490079E-009  0.1105463E+03  0.7561462E-02  0.1259562E+00
         -2   -1    0    0    0  501 -0.00000000000E+00  0.00000000000E+00  0.15561581002E+02  0.15561581002E+02  0.00000000000E+00 0.  1.
          2   -1    0    0  501    0  0.00000000000E+00 -0.00000000000E+00 -0.13800147978E+04  0.13800147978E+04  0.00000000000E+00 0. -1.
         25    2    1    2    0    0 -0.48986339977E+02 -0.74801415897E+02 -0.90796802962E+03  0.92089525095E+03  0.12508879680E+03 0.  0.
          5    1    3    3  502    0 -0.44054950726E+02 -0.50821589690E+02 -0.17529965786E+03  0.18780605716E+03  0.41800000000E+01 0.  1.
         -5    1    3    3    0  502 -0.49313892508E+01 -0.23979826207E+02 -0.73266837177E+03  0.73308919379E+03  0.41800000000E+01 0.  1.
        -11    1    1    2    0    0 -0.24245920291E+02  0.42282654859E+02 -0.14130442527E+03  0.14947450670E+03  0.00000000000E+00 0.  1.
         11    1    1    2    0    0  0.73232260268E+02  0.32518761038E+02 -0.31518076190E+03  0.32520662115E+03  0.00000000000E+00 0. -1.
</event>
<event>
 7    1  0.2490079E-009  0.1178730E+03  0.7561462E-02  0.1246648E+00
         -3   -1    0    0    0  501 -0.00000000000E+00  0.00000000000E+00  0.92177480162E+02  0.92177480162E+02  0.00000000000E+00 0.  1.
          3   -1    0    0  501    0  0.00000000000E+00 -0.00000000000E+00 -0.22678225466E+03  0.22678225466E+03  0.00000000000E+00 0. -1.
         25    2    1    2    0    0 -0.59172502999E+02 -0.73325516042E+02 -0.65030025700E+02  0.16957248668E+03  0.12509159677E+03 0.  0.
          5    1    3    3  502    0  0.18620760216E+02  0.79933117364E+01 -0.52296088326E+02  0.56240368045E+02  0.41800000000E+01 0. -1.
         -5    1    3    3    0  502 -0.77793263216E+02 -0.81318827778E+02 -0.12733937374E+02  0.11333211863E+03  0.41800000000E+01 0. -1.
        -11    1    1    2    0    0 -0.47268540851E+01  0.15698088034E+02 -0.60710469912E+02  0.62885087854E+02  0.00000000000E+00 0. -1.
         11    1    1    2    0    0  0.63899357084E+02  0.57627428008E+02 -0.88642788850E+01  0.86502160289E+02  0.00000000000E+00 0.  1.
</event>
<event>
 7    1  0.2490079E-009  0.8399838E+02  0.7561462E-02  0.1318073E+00
         -1   -1    0    0    0  501 -0.00000000000E+00  0.00000000000E+00  0.10873032141E+02  0.10873032141E+02  0.00000000000E+00 0.  1.
          1   -1    0    0  501    0  0.00000000000E+00 -0.00000000000E+00 -0.12535291889E+04  0.12535291889E+04  0.00000000000E+00 0. -1.
         25    2    1    2    0    0  0.17034674995E+02  0.31888058117E+02 -0.82006599613E+03  0.83033891646E+03  0.12508976687E+03 0.  0.
          5    1    3    3  502    0  0.28779487073E+02 -0.67208340411E+01 -0.43740935451E+02  0.52954417385E+02  0.41800000000E+01 0. -1.
         -5    1    3    3    0  502 -0.11744812079E+02  0.38608892158E+02 -0.77632506067E+03  0.77738449907E+03  0.41800000000E+01 0. -1.
        -11    1    1    2    0    0 -0.80681932455E+01  0.32031368847E+02 -0.10880800846E+03  0.11371142000E+03  0.00000000000E+00 0.  1.
         11    1    1    2    0    0 -0.89664817493E+01 -0.63919426964E+02 -0.31378215220E+03  0.32035188462E+03  0.00000000000E+00 0. -1.
</event>
<event>
 7    1  0.2490079E-009  0.9101356E+02  0.7561462E-02  0.1300416E+00
         -3   -1    0    0    0  501 -0.00000000000E+00  0.00000000000E+00  0.17916513675E+03  0.17916513675E+03  0.00000000000E+00 0.  1.
          3   -1    0    0  501    0  0.00000000000E+00 -0.00000000000E+00 -0.81724975423E+02  0.81724975423E+02  0.00000000000E+00 0. -1.
         25    2    1    2    0    0 -0.14551515338E+02 -0.48056932048E+02  0.80307704554E+02  0.15690440134E+03  0.12509375856E+03 0.  0.
          5    1    3    3  502    0  0.11598211095E+02  0.37445294635E+02  0.47129962129E+02  0.61444074744E+02  0.41800000000E+01 0. -1.
         -5    1    3    3    0  502 -0.26149726433E+02 -0.85502226684E+02  0.33177742425E+02  0.95460326591E+02  0.41800000000E+01 0. -1.
        -11    1    1    2    0    0  0.53979965564E+01  0.41465649825E+02  0.52353134016E+02  0.67002903844E+02  0.00000000000E+00 0.  1.
         11    1    1    2    0    0  0.91535187814E+01  0.65912822229E+01 -0.35220677244E+02  0.36982806991E+02  0.00000000000E+00 0. -1.
</event>
<event>
 7    1  0.2490079E-009  0.1217849E+03  0.7561462E-02  0.1240181E+00
          1   -1    0    0  501    0  0.00000000000E+00  0.00000000000E+00  0.23605753268E+03  0.23605753268E+03  0.00000000000E+00 0. -1.
         -1   -1    0    0    0  501 -0.00000000000E+00 -0.00000000000E+00 -0.10858576613E+03  0.10858576613E+03  0.00000000000E+00 0.  1.
         25    2    1    2    0    0 -0.76422267541E+02 -0.18709453495E+02  0.16145194311E+03  0.21887437409E+03  0.12509538389E+03 0.  0.
          5    1    3    3  502    0  0.19432295560E+02  0.14759577668E+02 -0.36322949745E+01  0.25022494089E+02  0.41800000000E+01 0.  1.
         -5    1    3    3    0  502 -0.95854563101E+02 -0.33469031163E+02  0.16508423808E+03  0.19385188000E+03  0.41800000000E+01 0.  1.
        -11    1    1    2    0    0  0.40163400173E+02 -0.34405860364E+02  0.31176345996E+00  0.52886284964E+02  0.00000000000E+00 0.  1.
         11    1    1    2    0    0  0.36258867368E+02  0.53115313859E+02 -0.34291940017E+02  0.72882639766E+02  0.00000000000E+00 0. -1.
</event>
<event>
 7    1  0.2490079E-009  0.1054094E+03  0.7561462E-02  0.1269315E+00
          1   -1    0    0  501    0  0.00000000000E+00  0.00000000000E+00  0.18454828459E+03  0.18454828459E+03  0.00000000000E+00 0. -1.
         -1   -1    0    0    0  501 -0.00000000000E+00 -0.00000000000E+00 -0.89386037759E+02  0.89386037759E+02  0.00000000000E+00 0.  1.
         25    2    1    2    0    0  0.65489817181E+02 -0.11807891198E+02  0.49947656576E+02  0.15023423963E+03  0.12508883208E+03 0.  0.
          5    1    3    3  502    0  0.31217212662E+02 -0.44813099811E+02 -0.25908751263E+02  0.60592607412E+02  0.41800000000E+01 0.  1.
         -5    1    3    3    0  502  0.34272604519E+02  0.33005208613E+02  0.75856407839E+02  0.89641632215E+02  0.41800000000E+01 0.  1.
        -11    1    1    2    0    0  0.21035781376E+02  0.38990300414E+01  0.27811103396E+02  0.35087946727E+02  0.00000000000E+00 0.  1.
         11    1    1    2    0    0 -0.86525598557E+02  0.79088611565E+01  0.17403486857E+02  0.88612135993E+02  0.00000000000E+00 0. -1.
</event>
<event>
 7    1  0.2490079E-009  0.1118528E+03  0.7561462E-02  0.1257177E+00
         -4   -1    0    0    0  501 -0.00000000000E+00  0.00000000000E+00  0.42311401801E+03  0.42311401801E+03  0.00000000000E+00 0.  1.
          4   -1    0    0  501    0  0.00000000000E+00 -0.00000000000E+00 -0.37154433991E+02  0.37154433991E+02  0.00000000000E+00 0. -1.
         25    2    1    2    0    0  0.62111011000E+02 -0.17979413678E+02  0.22946691834E+03  0.26922821120E+03  0.12509087134E+03 0.  0.
          5    1    3    3  502    0 -0.19052915315E+02 -0.36730540348E+02  0.25295108580E+02  0.48677110579E+02  0.41800000000E+01 0. -1.
         -5    1    3    3    0  502  0.81163926314E+02  0.18751126670E+02  0.20417180976E+03  0.22055110063E+03  0.41800000000E+01 0. -1.
        -11    1    1    2    0    0 -0.21073151454E+02  0.44921513127E+02  0.37119115857E+02  0.61966513665E+02  0.00000000000E+00 0. -1.
         11    1    1    2    0    0 -0.41037859545E+02 -0.26942099449E+02  0.11937354982E+03  0.12907372713E+03  0.00000000000E+00 0.  1.
</event>
<event>
 7    1  0.2490079E-009  0.1615752E+03  0.7561462E-02  0.1186930E+00
          2   -1    0    0  501    0  0.00000000000E+00  0.00000000000E+00  0.53185553452E+02  0.53185553452E+02  0.00000000000E+00 0. -1.
         -2   -1    0    0    0  501 -0.00000000000E+00 -0.00000000000E+00 -0.63946549714E+03  0.63946549714E+03  0.00000000000E+00 0.  1.
         25    2    1    2    0    0  0.14206785339E+03  0.42908060089E+02 -0.32421281165E+03  0.37787019700E+03  0.12509021528E+03 0.  0.
          5    1    3    3  502    0  0.12053478169E+02  0.40173696816E+01  0.10282203813E+02  0.16870735324E+02  0.41800000000E+01 0. -1.
         -5    1    3    3    0  502  0.13001437522E+03  0.38890690407E+02 -0.33449501546E+03  0.36099946168E+03  0.41800000000E+01 0. -1.
        -11    1    1    2    0    0 -0.12673696607E+03 -0.68580569998E+02 -0.22444981891E+03  0.26672696594E+03  0.00000000000E+00 0. -1.
         11    1    1    2    0    0 -0.15330887319E+02  0.25672509909E+02 -0.37617313129E+02  0.48053887648E+02  0.00000000000E+00 0.  1.
</event>
<event>
 7    1  0.2490079E-009  0.1290390E+03  0.7561462E-02  0.1228889E+00
          2   -1    0    0  501    0  0.00000000000E+00  0.00000000000E+00  0.15554559407E+03  0.15554559407E+03  0.00000000000E+00 0. -1.
         -2   -1    0    0    0  501 -0.00000000000E+00 -0.00000000000E+00 -0.15299563840E+03  0.15299563840E+03  0.00000000000E+00 0.  1.
         25    2    1    2    0    0 -0.54997550939E+02  0.65887907453E+02  0.68825221768E+02  0.16658460994E+03  0.12509026405E+03 0.  0.
          5    1    3    3  502    0 -0.39636629695E+02  0.98183693722E+02  0.75307936370E+02  0.12999945310E+03  0.41800000000E+01 0. -1.
         -5    1    3    3    0  502 -0.15360921244E+02 -0.32295786269E+02 -0.64827146022E+01  0.36585156838E+02  0.41800000000E+01 0. -1.
        -11    1    1    2    0    0  0.35312206522E+02  0.10804555762E+02 -0.48236734301E+02  0.60749262471E+02  0.00000000000E+00 0.  1.
         11    1    1    2    0    0  0.19685344417E+02 -0.76692463215E+02 -0.18038531791E+02  0.81207360061E+02  0.00000000000E+00 0. -1.
</event>
<event>
 7    1  0.2490079E-009  0.1417931E+03  0.7561462E-02  0.1210936E+00
         -2   -1    0    0    0  501 -0.00000000000E+00  0.00000000000E+00  0.11901602455E+03  0.11901602455E+03  0.00000000000E+00 0.  1.
          2   -1    0    0  501    0  0.00000000000E+00 -0.00000000000E+00 -0.22376047663E+03  0.22376047663E+03  0.00000000000E+00 0. -1.
         25    2    1    2    0    0  0.94028743197E+02 -0.70546862267E+02 -0.21957760978E+02  0.17305413993E+03  0.12508927915E+03 0.  0.
          5    1    3    3  502    0  0.97322884959E+02 -0.25454922612E+02  0.29025047897E+02  0.10478369543E+03  0.41800000000E+01 0.  1.
         -5    1    3    3    0  502 -0.32941417626E+01 -0.45091939656E+02 -0.50982808875E+02  0.68270444503E+02  0.41800000000E+01 0.  1.
        -11    1    1    2    0    0 -0.82325505218E+02  0.18801124018E+02 -0.80427691653E+02  0.11661725712E+03  0.00000000000E+00 0. -1.
         11    1    1    2    0    0 -0.11703237979E+02  0.51745738249E+02 -0.23589994550E+01  0.53105104129E+02  0.00000000000E+00 0.  1.
</event>
<event>
 7    1  0.2490079E-009  0.1233419E+03  0.7561462E-02  0.1237684E+00
         -1   -1    0    0    0  501 -0.00000000000E+00  0.00000000000E+00  0.50171536744E+03  0.50171536744E+03  0.00000000000E+00 0.  1.
          1   -1    0    0  501    0  0.00000000000E+00 -0.00000000000E+00 -0.37407064634E+02  0.37407064634E+02  0.00000000000E+00 0. -1.
         25    2    1    2    0    0  0.49019120828E+02 -0.53127253503E+02  0.17390744084E+03  0.22608756939E+03  0.12508561782E+03 0.  0.
          5    1    3    3  502    0 -0.38016853114E+02  0.51240174231E+01  0.35188331182E+02  0.52222865937E+02  0.41800000000E+01 0. -1.
         -5    1    3    3    0  502  0.87035973942E+02 -0.58251270926E+02  0.13871910966E+03  0.17386470346E+03  0.41800000000E+01 0. -1.
        -11    1    1    2    0    0  0.16871418341E+02  0.28145613711E+02  0.17319643464E+03  0.17627769372E+03  0.00000000000E+00 0.  1.
         11    1    1    2    0    0 -0.65890539170E+02  0.24981639792E+02  0.11720442732E+03  0.13675716896E+03  0.00000000000E+00 0. -1.
</event>
<event>
 7    1  0.2490079E-009  0.1394970E+03  0.7561462E-02  0.1214007E+00
          2   -1    0    0  501    0  0.00000000000E+00  0.00000000000E+00  0.19352358060E+03  0.19352358060E+03  0.00000000000E+00 0. -1.
         -2   -1    0    0    0  501 -0.00000000000E+00 -0.00000000000E+00 -0.12731671382E+03  0.12731671382E+03  0.00000000000E+00 0.  1.
         25    2    1    2    0    0  0.60792227686E+02  0.77261733495E+02  0.77658889731E+02  0.17704058494E+03  0.12508954853E+03 0.  0.
          5    1    3    3  502    0  0.72616880910E+02  0.96249448332E+02  0.90589239318E+02  0.15086765849E+03  0.41800000000E+01 0. -1.
         -5    1    3    3    0  502 -0.11824653224E+02 -0.18987714837E+02 -0.12930349587E+02  0.26172926452E+02  0.41800000000E+01 0. -1.
        -11    1    1    2    0    0 -0.65771903316E+02 -0.81161261331E+01 -0.28923091430E+02  0.72307399255E+02  0.00000000000E+00 0.  1.
         11    1    1    2    0    0  0.49796756296E+01 -0.69145607362E+02  0.17471068483E+02  0.71492310221E+02  0.00000000000E+00 0. -1.
</event>
<event>
 7    1  0.2490079E-009  0.1018753E+03  0.7561462E-02  0.1276401E+00
          1   -1    0    0  501    0  0.00000000000E+00  0.00000000000E+00  0.40255064336E+02  0.40255064336E+02  0.00000000000E+00 0. -1.
         -1   -1    0    0    0  501 -0.00000000000E+00 -0.00000000000E+00 -0.39990311487E+03  0.39990311487E+03  0.00000000000E+00 0.  1.
         25    2    1    2    0    0 -0.10708597757E+02 -0.56248367621E+02 -0.14472854187E+03  0.19968119304E+03  0.12509066750E+03 0.  0.
          5    1    3    3  502    0  0.10144717877E+01  0.25250277766E+02  0.73894379258E+01  0.26658617240E+02  0.41800000000E+01 0. -1.
         -5    1    3    3    0  502 -0.11723069544E+02 -0.81498645387E+02 -0.15211797980E+03  0.17302257580E+03  0.41800000000E+01 0. -1.
        -11    1    1    2    0    0  0.43692995837E+02  0.25446208203E+02 -0.56808682010E+02  0.76051388869E+02  0.00000000000E+00 0. -1.
         11    1    1    2    0    0 -0.32984398081E+02  0.30802159418E+02 -0.15811082665E+03  0.16442559730E+03  0.00000000000E+00 0.  1.
</event>
<event>
 7    1  0.2490079E-009  0.1577815E+03  0.7561462E-02  0.1191224E+00
         -1   -1    0    0    0  501 -0.00000000000E+00  0.00000000000E+00  0.13377220557E+03  0.13377220557E+03  0.00000000000E+00 0.  1.
          1   -1    0    0  501    0  0.00000000000E+00 -0.00000000000E+00 -0.30885931857E+03  0.30885931857E+03  0.00000000000E+00 0. -1.
         25    2    1    2    0    0  0.71482768429E+02  0.12487561273E+03  0.10531160354E+02  0.19095046723E+03  0.12508985076E+03 0.  0.
          5    1    3    3  502    0  0.37014087087E+02  0.87009259260E+02  0.65967793685E+02  0.11536843608E+03  0.41800000000E+01 0.  1.
         -5    1    3    3    0  502  0.34468681342E+02  0.37866353465E+02 -0.55436633330E+02  0.75582031153E+02  0.41800000000E+01 0.  1.
        -11    1    1    2    0    0  0.21582805725E+02 -0.24914086117E+02 -0.29299997977E+02  0.44102370361E+02  0.00000000000E+00 0. -1.
         11    1    1    2    0    0 -0.93065574155E+02 -0.99961526609E+02 -0.15631827538E+03  0.20757868655E+03  0.00000000000E+00 0.  1.
</event>
<event>
 7    1  0.2490079E-009  0.2354013E+03  0.7561462E-02  0.1122895E+00
          2   -1    0    0  501    0  0.00000000000E+00  0.00000000000E+00  0.16095435592E+03  0.16095435592E+03  0.00000000000E+00 0. -1.
         -2   -1    0    0    0  501 -0.00000000000E+00 -0.00000000000E+00 -0.41915938071E+03  0.41915938071E+03  0.00000000000E+00 0.  1.
         25    2    1    2    0    0  0.21626573997E+03  0.89820060264E+02 -0.16300140444E+03  0.31153736348E+03  0.12509019739E+03 0.  0.
          5    1    3    3  502    0  0.15044225004E+03  0.72525308073E+02 -0.41389471467E+02  0.17211435633E+03  0.41800000000E+01 0.  1.
         -5    1    3    3    0  502  0.65823489928E+02  0.17294752192E+02 -0.12161193297E+03  0.13942300714E+03  0.41800000000E+01 0.  1.
        -11    1    1    2    0    0 -0.15446802183E+03 -0.76338777112E+02 -0.10893761462E+03  0.20385137365E+03  0.00000000000E+00 0. -1.
         11    1    1    2    0    0 -0.61797718137E+02 -0.13481283153E+02  0.13733994278E+02  0.64724999507E+02  0.00000000000E+00 0.  1.
</event>
<event>
 7    1  0.3905982E-009  0.1081740E+03  0.7561462E-02  0.1263989E+00
          2   -1    0    0  501    0  0.00000000000E+00  0.00000000000E+00  0.15926421595E+04  0.15926421595E+04  0.00000000000E+00 0. -1.
         -2   -1    0    0    0  501 -0.00000000000E+00 -0.00000000000E+00 -0.14368739256E+02  0.14368739256E+02  0.00000000000E+00 0.  1.
         25    2    1    2    0    0 -0.37814044270E+02 -0.62031745576E+02  0.12561538915E+04  0.12644545710E+04  0.12507966856E+03 0.  0.
          5    1    3    3  502    0 -0.35893035676E+02  0.32632177358E+02  0.50605971899E+03  0.50839657807E+03  0.41800000000E+01 0.  1.
         -5    1    3    3    0  502 -0.19210085939E+01 -0.94663922934E+02  0.75009417251E+03  0.75605799289E+03  0.41800000000E+01 0.  1.
        -11    1    1    2    0    0  0.30305499151E+02  0.44811339709E+02  0.31894938654E+03  0.32350454497E+03  0.00000000000E+00 0. -1.
         11    1    1    2    0    0  0.75085451182E+01  0.17220405867E+02  0.31701422341E+01  0.19051782851E+02  0.00000000000E+00 0.  1.
</event>
<event>
 7    1  0.2490079E-009  0.9134255E+02  0.7561462E-02  0.1299633E+00
         -1   -1    0    0    0  501 -0.00000000000E+00  0.00000000000E+00  0.66738183309E+03  0.66738183309E+03  0.00000000000E+00 0.  1.
          1   -1    0    0  501    0  0.00000000000E+00 -0.00000000000E+00 -0.18192422306E+02  0.18192422306E+02  0.00000000000E+00 0. -1.
         25    2    1    2    0    0 -0.95699368894E+01  0.38572546963E+01  0.29704973587E+03  0.32247817838E+03  0.12508863995E+03 0.  0.
          5    1    3    3  502    0 -0.11172308963E+02  0.48180743788E+02  0.46551291524E+02  0.68049244684E+02  0.41800000000E+01 0.  1.
         -5    1    3    3    0  502  0.16023720738E+01 -0.44323489091E+02  0.25049844434E+03  0.25442893369E+03  0.41800000000E+01 0.  1.
        -11    1    1    2    0    0 -0.96246074057E+01  0.39727381115E+02  0.16676340343E+03  0.17170011824E+03  0.00000000000E+00 0.  1.
         11    1    1    2    0    0  0.19194544295E+02 -0.43584635811E+02  0.18537627149E+03  0.19139595879E+03  0.00000000000E+00 0. -1.
</event>
<event>
 7    1  0.2490079E-009  0.1163309E+03  0.7561462E-02  0.1249276E+00
         -1   -1    0    0    0  501 -0.00000000000E+00  0.00000000000E+00  0.13194326368E+03  0.13194326368E+03  0.00000000000E+00 0.  1.
          1   -1    0    0  501    0  0.00000000000E+00 -0.00000000000E+00 -0.14994898585E+03  0.14994898585E+03  0.00000000000E+00 0. -1.
         25    2    1    2    0    0 -0.48502682988E+02  0.23858397259E+02  0.60591262498E+02  0.14913288738E+03  0.12509030190E+03 0.  0.
          5    1    3    3  502    0 -0.82016992296E+02 -0.13820448351E+02  0.50934161582E+02  0.97619429593E+02  0.41800000000E+01 0. -1.
         -5    1    3    3    0  502  0.33514309309E+02  0.37678845610E+02  0.96571009160E+01  0.51513457786E+02  0.41800000000E+01 0. -1.
        -11    1    1    2    0    0  0.11240055789E+01 -0.46331430593E+02 -0.11773233833E+02  0.47817087785E+02  0.00000000000E+00 0. -1.
         11    1    1    2    0    0  0.47378677409E+02  0.22473033334E+02 -0.66823750832E+02  0.84942274372E+02  0.00000000000E+00 0.  1.
</event>
<event>
 7    1  0.2490079E-009  0.1184898E+03  0.7561462E-02  0.1245609E+00
         -1   -1    0    0    0  501 -0.00000000000E+00  0.00000000000E+00  0.76321094669E+02  0.76321094669E+02  0.00000000000E+00 0.  1.
          1   -1    0    0  501    0  0.00000000000E+00 -0.00000000000E+00 -0.24483404277E+03  0.24483404277E+03  0.00000000000E+00 0. -1.
         25    2    1    2    0    0 -0.28661187318E+02  0.77693540022E+02 -0.82934437867E+02  0.17141700006E+03  0.12509163484E+03 0.  0.
          5    1    3    3  502    0 -0.31686095531E+02  0.11065829084E+03 -0.73897540294E+02  0.13684876632E+03  0.41800000000E+01 0. -1.
         -5    1    3    3    0  502  0.30249082128E+01 -0.32964750820E+02 -0.90368975729E+01  0.34568233742E+02  0.41800000000E+01 0. -1.
        -11    1    1    2    0    0  0.29248815993E+02 -0.34479678439E+02  0.86837284620E+01  0.46040727647E+02  0.00000000000E+00 0.  1.
         11    1    1    2    0    0 -0.58762867520E+00 -0.43213861582E+02 -0.94262238692E+02  0.10369740972E+03  0.00000000000E+00 0. -1.
</event>
<event>
 7    1  0.2490079E-009  0.1489862E+03  0.7561462E-02  0.1201724E+00
          1   -1    0    0  501    0  0.00000000000E+00  0.00000000000E+00  0.22998233225E+03  0.22998233225E+03  0.00000000000E+00 0. -1.
         -1   -1    0    0    0  501 -0.00000000000E+00 -0.00000000000E+00 -0.24164724594E+03  0.24164724594E+03  0.00000000000E+00 0.  1.
         25    2    1    2    0    0 -0.20944862876E+02 -0.14267520144E+03  0.14507828540E+03  0.23976958336E+03  0.12508734477E+03 0.  0.
          5    1    3    3  502    0 -0.22399885482E+02 -0.98299312964E+02  0.14694750310E+02  0.10197018135E+03  0.41800000000E+01 0.  1.
         -5    1    3    3    0  502  0.14550226056E+01 -0.44375888477E+02  0.13038353509E+03  0.13779940200E+03  0.41800000000E+01 0.  1.
        -11    1    1    2    0    0 -0.16200485658E+02  0.52555360607E+02 -0.10314489466E+02  0.55954538306E+02  0.00000000000E+00 0. -1.
         11    1    1    2    0    0  0.37145348534E+02  0.90119840834E+02 -0.14642870963E+03  0.17590545652E+03  0.00000000000E+00 0.  1.
</event>
<event>
 7    1  0.2490079E-009  0.9100539E+02  0.7561462E-02  0.1300435E+00
          2   -1    0    0  501    0  0.00000000000E+00  0.00000000000E+00  0.86331814066E+03  0.86331814066E+03  0.00000000000E+00 0. -1.
         -2   -1    0    0    0  501 -0.00000000000E+00 -0.00000000000E+00 -0.26521394465E+02  0.26521394465E+02  0.00000000000E+00 0.  1.
         25    2    1    2    0    0 -0.53834298107E+02  0.65256612556E+02  0.60800887558E+03  0.62648118012E+03  0.12508924464E+03 0.  0.
          5    1    3    3  502    0 -0.49655691871E+02  0.70011303389E+02  0.61193524814E+03  0.61793971442E+03  0.41800000000E+01 0.  1.
         -5    1    3    3    0  502 -0.41786062361E+01 -0.47546908336E+01 -0.39263725546E+01  0.85414657078E+01  0.41800000000E+01 0.  1.
        -11    1    1    2    0    0  0.45959110226E+02 -0.36542399561E+02  0.22594356917E+03  0.23344824529E+03  0.00000000000E+00 0. -1.
         11    1    1    2    0    0  0.78751878807E+01 -0.28714212995E+02  0.28443014328E+01  0.29910109707E+02  0.00000000000E+00 0.  1.
</event>
<event>
 7    1  0.2490079E-009  0.6726719E+02  0.7561462E-02  0.1369641E+00
          1   -1    0    0  501    0  0.00000000000E+00  0.00000000000E+00  0.51193038849E+02  0.51193038849E+02  0.00000000000E+00 0. -1.
         -1   -1    0    0    0  501 -0.00000000000E+00 -0.00000000000E+00 -0.27778106553E+03  0.27778106553E+03  0.00000000000E+00 0.  1.
         25    2    1    2    0    0 -0.41154728810E+02  0.24405005147E+02 -0.15314067983E+03  0.20344277793E+03  0.12509028776E+03 0.  0.
          5    1    3    3  502    0 -0.20408363328E+02  0.40637195524E+01 -0.16883009005E+03  0.17015900451E+03  0.41800000000E+01 0.  1.
         -5    1    3    3    0  502 -0.20746365482E+02  0.20341285595E+02  0.15689410213E+02  0.33283773422E+02  0.41800000000E+01 0.  1.
        -11    1    1    2    0    0 -0.15819622035E+02  0.87078189855E+01 -0.53825903329E+02  0.56774240831E+02  0.00000000000E+00 0.  1.
         11    1    1    2    0    0  0.56974350845E+02 -0.33112824133E+02 -0.19621443515E+02  0.68757085612E+02  0.00000000000E+00 0. -1.
</event>
<event>
 7    1  0.2490079E-009  0.1376709E+03  0.7561462E-02  0.1216498E+00
         -2   -1    0    0    0  501 -0.00000000000E+00  0.00000000000E+00  0.17634749488E+02  0.17634749488E+02  0.00000000000E+00 0.  1.
          2   -1    0    0  501    0  0.00000000000E+00 -0.00000000000E+00 -0.12035009742E+04  0.12035009742E+04  0.00000000000E+00 0. -1.
         25    2    1    2    0    0 -0.37467180247E+02  0.77904119611E+02 -0.82922693583E+03  0.84305208426E+03  0.12508662688E+03 0.  0.
          5    1    3    3  502    0 -0.82568880143E+02  0.42324432452E+02 -0.45097393098E+03  0.46043885194E+03  0.41800000000E+01 0.  1.
         -5    1    3    3    0  502  0.45101699896E+02  0.35579687159E+02 -0.37825300485E+03  0.38261323232E+03  0.41800000000E+01 0.  1.
        -11    1    1    2    0    0  0.16564781684E+02 -0.95877347751E+02 -0.29291980527E+03  0.30865655691E+03  0.00000000000E+00 0. -1.
         11    1    1    2    0    0  0.20902398563E+02  0.17973228140E+02 -0.63719483663E+02  0.69427082566E+02  0.00000000000E+00 0.  1.
</event>
<event>
 7    1  0.2490079E-009  0.1025953E+03  0.7561462E-02  0.1274931E+00
          2   -1    0    0  501    0  0.00000000000E+00  0.00000000000E+00  0.11297319702E+03  0.11297319702E+03  0.00000000000E+00 0. -1.
         -2   -1    0    0    0  501 -0.00000000000E+00 -0.00000000000E+00 -0.13953656258E+03  0.13953656258E+03  0.00000000000E+00 0.  1.
         25    2    1    2    0    0 -0.42070368825E+01 -0.66985814095E+01 -0.73178923710E+02  0.14514302414E+03  0.12509505358E+03 0.  0.
          5    1    3    3  502    0 -0.21139299358E+02 -0.59765270268E+02 -0.60782957547E+02  0.87924955704E+02  0.41800000000E+01 0. -1.
         -5    1    3    3    0  502  0.16932262475E+02  0.53066688858E+02 -0.12395966163E+02  0.57218068440E+02  0.41800000000E+01 0. -1.
        -11    1    1    2    0    0 -0.72900515674E+01  0.45114998555E+02 -0.23191054997E+00  0.45700784774E+02  0.00000000000E+00 0.  1.
         11    1    1    2    0    0  0.11497088450E+02 -0.38416417146E+02  0.46847468698E+02  0.61665950674E+02  0.00000000000E+00 0. -1.
</event>
<event>
 7    1  0.2490079E-009  0.1533450E+03  0.7561462E-02  0.1196422E+00
          2   -1    0    0  501    0  0.00000000000E+00  0.00000000000E+00  0.13190276111E+04  0.13190276111E+04  0.00000000000E+00 0. -1.
         -2   -1    0    0    0  501 -0.00000000000E+00 -0.00000000000E+00 -0.20570650099E+02  0.20570650099E+02  0.00000000000E+00 0.  1.
         25    2    1    2    0    0  0.33420848130E+02 -0.12085614958E+03  0.71404872553E+03  0.73568782664E+03  0.12509130207E+03 0.  0.
          5    1    3    3  502    0  0.44070980600E+02 -0.13409695720E+03  0.46364749848E+03  0.48467589223E+03  0.41800000000E+01 0.  1.
         -5    1    3    3    0  502 -0.10650132471E+02  0.13240807624E+02  0.25040122705E+03  0.25101193441E+03  0.41800000000E+01 0.  1.
        -11    1    1    2    0    0  0.13109482915E+02  0.92630935079E+02  0.43374179602E+03  0.44371645709E+03  0.00000000000E+00 0. -1.
         11    1    1    2    0    0 -0.46530331045E+02  0.28225214499E+02  0.15066643943E+03  0.16019397745E+03  0.00000000000E+00 0.  1.
</event>
<event>
 7    1  0.2490079E-009  0.2372281E+03  0.7561462E-02  0.1121653E+00
         -1   -1    0    0    0  501 -0.00000000000E+00  0.00000000000E+00  0.15025285238E+03  0.15025285238E+03  0.00000000000E+00 0.  1.
          1   -1    0    0  501    0  0.00000000000E+00 -0.00000000000E+00 -0.47096342783E+03  0.47096342783E+03  0.00000000000E+00 0. -1.
         25    2    1    2    0    0  0.14868246312E+03 -0.17146572482E+03 -0.26259639703E+03  0.36893252173E+03  0.12508944091E+03 0.  0.
          5    1    3    3  502    0  0.99876162542E+02 -0.15582214683E+03 -0.12861495178E+03  0.22542197654E+03  0.41800000000E+01 0. -1.
         -5    1    3    3    0  502  0.48806300576E+02 -0.15643577995E+02 -0.13398144525E+03  0.14351054519E+03  0.41800000000E+01 0. -1.
        -11    1    1    2    0    0  0.12195426895E+01  0.35510985365E+02 -0.32761002298E+02  0.48330121432E+02  0.00000000000E+00 0.  1.
         11    1    1    2    0    0 -0.14990200581E+03  0.13595473946E+03 -0.25353176126E+02  0.20395363705E+03  0.00000000000E+00 0. -1.
</event>
<event>
 7    1  0.2490079E-009  0.8626069E+02  0.7561462E-02  0.1312168E+00
         -1   -1    0    0    0  501 -0.00000000000E+00  0.00000000000E+00  0.55464093142E+03  0.55464093142E+03  0.00000000000E+00 0.  1.
          1   -1    0    0  501    0  0.00000000000E+00 -0.00000000000E+00 -0.31209342466E+02  0.31209342466E+02  0.00000000000E+00 0. -1.
         25    2    1    2    0    0 -0.37720755856E+02  0.15171518198E+02  0.15130235083E+03  0.20048154143E+03  0.12508963467E+03 0.  0.
          5    1    3    3  502    0 -0.10001654469E+02  0.43640885692E+02  0.15400560244E+03  0.16043614923E+03  0.41800000000E+01 0. -1.
         -5    1    3    3    0  502 -0.27719101387E+02 -0.28469367494E+02 -0.27032516143E+01  0.40045392201E+02  0.41800000000E+01 0. -1.
        -11    1    1    2    0    0  0.50976224285E+02  0.16244787900E+02  0.30920411738E+03  0.31379874885E+03  0.00000000000E+00 0.  1.
         11    1    1    2    0    0 -0.13255468429E+02 -0.31416306099E+02  0.62925120747E+02  0.71569983605E+02  0.00000000000E+00 0. -1.
</event>
<event>
 7    1  0.2490079E-009  0.1184340E+03  0.7561462E-02  0.1245703E+00
         -2   -1    0    0    0  501 -0.00000000000E+00  0.00000000000E+00  0.34784256850E+02  0.34784256850E+02  0.00000000000E+00 0.  1.
          2   -1    0    0  501    0  0.00000000000E+00 -0.00000000000E+00 -0.48132557941E+03  0.48132557941E+03  0.00000000000E+00 0. -1.
         25    2    1    2    0    0  0.69413354167E+01  0.51476419287E+02 -0.15160814196E+03  0.20329839918E+03  0.12508879454E+03 0.  0.
          5    1    3    3  502    0  0.53319703232E+02 -0.12702771098E+02 -0.49137988149E+02  0.73731712483E+02  0.41800000000E+01 0. -1.
         -5    1    3    3    0  502 -0.46378367815E+02  0.64179190385E+02 -0.10247015381E+03  0.12956668670E+03  0.41800000000E+01 0. -1.
        -11    1    1    2    0    0 -0.11564544223E+01  0.25441903107E+02 -0.51562449874E+02  0.57509251930E+02  0.00000000000E+00 0.  1.
         11    1    1    2    0    0 -0.57848809944E+01 -0.76918322394E+02 -0.24337073072E+03  0.25530218514E+03  0.00000000000E+00 0. -1.
</event>
<event>
 7    1  0.2490079E-009  0.1089541E+03  0.7561462E-02  0.1262519E+00
          1   -1    0    0  501    0  0.00000000000E+00  0.00000000000E+00  0.43582530149E+03  0.43582530149E+03  0.00000000000E+00 0. -1.
         -1   -1    0    0    0  501 -0.00000000000E+00 -0.00000000000E+00 -0.45833900564E+02  0.45833900564E+02  0.00000000000E+00 0.  1.
         25    2    1    2    0    0  0.75711786131E+02  0.43611023066E+02  0.22182981118E+03  0.26923955480E+03  0.12508907565E+03 0.  0.
          5    1    3    3  502    0  0.53440221809E+02  0.43197061612E+02  0.28374105125E+02  0.74460766049E+02  0.41800000000E+01 0. -1.
         -5    1    3    3    0  502  0.22271564321E+02  0.41396145462E+00  0.19345570606E+03  0.19477878875E+03  0.41800000000E+01 0. -1.
        -11    1    1    2    0    0 -0.64459618661E+02 -0.71536654633E+02  0.10512121464E+03  0.14255877792E+03  0.00000000000E+00 0.  1.
         11    1    1    2    0    0 -0.11252167470E+02  0.27925631567E+02  0.63040375102E+02  0.69860869335E+02  0.00000000000E+00 0. -1.
</event>
<event>
 7    1  0.2490079E-009  0.1790193E+03  0.7561462E-02  0.1168756E+00
         -1   -1    0    0    0  501 -0.00000000000E+00  0.00000000000E+00  0.40712759071E+02  0.40712759071E+02  0.00000000000E+00 0.  1.
          1   -1    0    0  501    0  0.00000000000E+00 -0.00000000000E+00 -0.80491670567E+03  0.80491670567E+03  0.00000000000E+00 0. -1.
         25    2    1    2    0    0  0.40474059610E+02  0.13645823565E+03 -0.43125412759E+03  0.47104784862E+03  0.12508778335E+03 0.  0.
          5    1    3    3  502    0 -0.37407201488E+02  0.85573722017E+02 -0.25692510485E+03  0.27340472294E+03  0.41800000000E+01 0.  1.
         -5    1    3    3    0  502  0.77881261098E+02  0.50884513636E+02 -0.17432902274E+03  0.19764312567E+03  0.41800000000E+01 0.  1.
        -11    1    1    2    0    0 -0.71110076073E+02 -0.78841780636E+02 -0.21487619782E+03  0.23967571775E+03  0.00000000000E+00 0. -1.
         11    1    1    2    0    0  0.30636016463E+02 -0.57616455018E+02 -0.11807362119E+03  0.13490589837E+03  0.00000000000E+00 0.  1.
</event>
<event>
 7    1  0.2490079E-009  0.1466668E+03  0.7561462E-02  0.1204630E+00
          2   -1    0    0  501    0  0.00000000000E+00  0.00000000000E+00  0.12691741926E+04  0.12691741926E+04  0.00000000000E+00 0. -1.
         -2   -1    0    0    0  501 -0.00000000000E+00 -0.00000000000E+00 -0.21697030501E+02  0.21697030501E+02  0.00000000000E+00 0.  1.
         25    2    1    2    0    0  0.65878711411E+02  0.99872312531E+02  0.83458521719E+03  0.85234608235E+03  0.12508747301E+03 0.  0.
          5    1    3    3  502    0  0.98921600866E+01 -0.29795198694E+02  0.16558133259E+03  0.16858309167E+03  0.41800000000E+01 0.  1.
         -5    1    3    3    0  502  0.55986551325E+02  0.12966751122E+03  0.66900388461E+03  0.68376299068E+03  0.41800000000E+01 0.  1.
        -11    1    1    2    0    0 -0.11116125647E+02 -0.91703415772E+01  0.24360630801E+01  0.14614986054E+02  0.00000000000E+00 0.  1.
         11    1    1    2    0    0 -0.54762585764E+02 -0.90701970954E+02  0.41045588183E+03  0.42391015471E+03  0.00000000000E+00 0. -1.
</event>
<event>
 7    1  0.2490079E-009  0.1577863E+03  0.7561462E-02  0.1191219E+00
         -2   -1    0    0    0  501 -0.00000000000E+00  0.00000000000E+00  0.81490028635E+02  0.81490028635E+02  0.00000000000E+00 0.  1.
          2   -1    0    0  501    0  0.00000000000E+00 -0.00000000000E+00 -0.36357579986E+03  0.36357579986E+03  0.00000000000E+00 0. -1.
         25    2    1    2    0    0  0.12375189765E+03 -0.43663567027E+02 -0.11911830126E+03  0.21692638902E+03  0.12508736668E+03 0.  0.
          5    1    3    3  502    0  0.12458493351E+03 -0.79423330953E+01 -0.12905693611E+03  0.17960415215E+03  0.41800000000E+01 0. -1.
         -5    1    3    3    0  502 -0.83303586099E+00 -0.35721233932E+02  0.99386348478E+01  0.37322236871E+02  0.41800000000E+01 0. -1.
        -11    1    1    2    0    0 -0.47059003930E+02  0.60023498109E+02 -0.10864107674E+03  0.13274130379E+03  0.00000000000E+00 0. -1.
         11    1    1    2    0    0 -0.76692893716E+02 -0.16359931081E+02 -0.54326393223E+02  0.95398135685E+02  0.00000000000E+00 0.  1.
</event>
<event>
 7    1  0.2490079E-009  0.1028540E+03  0.7561462E-02  0.1274406E+00
         -1   -1    0    0    0  501 -0.00000000000E+00  0.00000000000E+00  0.20865823931E+03  0.20865823931E+03  0.00000000000E+00 0.  1.
          1   -1    0    0  501    0  0.00000000000E+00 -0.00000000000E+00 -0.68037877835E+02  0.68037877835E+02  0.00000000000E+00 0. -1.
         25    2    1    2    0    0  0.19210635938E+02 -0.31758041193E+02  0.12039431839E+03  0.17753943009E+03  0.12509130915E+03 0.  0.
          5    1    3    3  502    0  0.18370380105E+02  0.47503596805E+02  0.46647345933E+02  0.69191833746E+02  0.41800000000E+01 0. -1.
         -5    1    3    3    0  502  0.84025583343E+00 -0.79261637998E+02  0.73746972454E+02  0.10834759635E+03  0.41800000000E+01 0. -1.
        -11    1    1    2    0    0 -0.54998170410E+01  0.51168977921E+02  0.42379627988E+02  0.66667422009E+02  0.00000000000E+00 0.  1.
         11    1    1    2    0    0 -0.13710818898E+02 -0.19410936727E+02 -0.22153584896E+02  0.32489265046E+02  0.00000000000E+00 0. -1.
</event>
<event>
 7    1  0.2490079E-009  0.6494262E+02  0.7561462E-02  0.1378187E+00
          1   -1    0    0  501    0  0.00000000000E+00  0.00000000000E+00  0.70308327017E+02  0.70308327017E+02  0.00000000000E+00 0. -1.
         -1   -1    0    0    0  501 -0.00000000000E+00 -0.00000000000E+00 -0.18768649864E+03  0.18768649864E+03  0.00000000000E+00 0.  1.
         25    2    1    2    0    0  0.62866392883E+00  0.37420136572E+02 -0.79453122685E+02  0.15284445098E+03  0.12509182887E+03 0.  0.
          5    1    3    3  502    0 -0.23127664474E+02  0.21255675269E+02  0.27538582931E+02  0.41982598121E+02  0.41800000000E+01 0. -1.
         -5    1    3    3    0  502  0.23756328403E+02  0.16164461303E+02 -0.10699170562E+03  0.11086185286E+03  0.41800000000E+01 0. -1.
        -11    1    1    2    0    0 -0.29230649497E+02 -0.22587180301E+02 -0.56839800507E+02  0.67789191658E+02  0.00000000000E+00 0.  1.
         11    1    1    2    0    0  0.28601985569E+02 -0.14832956270E+02  0.18914751566E+02  0.37361183024E+02  0.00000000000E+00 0. -1.
</event>
<event>
 7    1  0.2490079E-009  0.8663517E+02  0.7561462E-02  0.1311211E+00
         -1   -1    0    0    0  501 -0.00000000000E+00  0.00000000000E+00  0.15595832169E+03  0.15595832169E+03  0.00000000000E+00 0.  1.
          1   -1    0    0  501    0  0.00000000000E+00 -0.00000000000E+00 -0.97163653898E+02  0.97163653898E+02  0.00000000000E+00 0. -1.
         25    2    1    2    0    0  0.50283792180E+02 -0.15315806349E+02  0.98246637333E+01  0.13604028533E+03  0.12508957405E+03 0.  0.
          5    1    3    3  502    0  0.90431493180E+01  0.14308872478E+02  0.61229712001E+02  0.63663744886E+02  0.41800000000E+01 0.  1.
         -5    1    3    3    0  502  0.41240642862E+02 -0.29624678827E+02 -0.51405048267E+02  0.72376540444E+02  0.41800000000E+01 0.  1.
        -11    1    1    2    0    0 -0.10579771565E+02 -0.37412642864E+02  0.27684701322E+02  0.47729237368E+02  0.00000000000E+00 0.  1.
         11    1    1    2    0    0 -0.39704020615E+02  0.52728449213E+02  0.21285302737E+02  0.69352452891E+02  0.00000000000E+00 0. -1.
</event>
<event>
 7    1  0.2490079E-009  0.8846554E+02  0.7561462E-02  0.1306611E+00
         -2   -1    0    0    0  501 -0.00000000000E+00  0.00000000000E+00  0.32696425890E+02  0.32696425890E+02  0.00000000000E+00 0.  1.
          2   -1    0    0  501    0  0.00000000000E+00 -0.00000000000E+00 -0.43184567863E+03  0.43184567863E+03  0.00000000000E+00 0. -1.
         25    2    1    2    0    0 -0.16802923183E+02  0.30531590592E+02 -0.25518704013E+03  0.28632591019E+03  0.12509030797E+03 0.  0.
          5    1    3    3  502    0  0.60133274039E+01 -0.30457297597E+02 -0.19517899585E+03  0.19767680669E+03  0.41800000000E+01 0. -1.
         -5    1    3    3    0  502 -0.22816250587E+02  0.60988888188E+02 -0.60008044275E+02  0.88649103498E+02  0.41800000000E+01 0. -1.
        -11    1    1    2    0    0  0.45555695068E+02 -0.19619749375E+02 -0.25392063626E+02  0.55722641842E+02  0.00000000000E+00 0.  1.
         11    1    1    2    0    0 -0.28752771885E+02 -0.10911841216E+02 -0.11857014899E+03  0.12249355248E+03  0.00000000000E+00 0. -1.
</event>
<event>
 7    1  0.2490079E-009  0.1572624E+03  0.7561462E-02  0.1191823E+00
         -2   -1    0    0    0  501 -0.00000000000E+00  0.00000000000E+00  0.25133938686E+03  0.25133938686E+03  0.00000000000E+00 0.  1.
          2   -1    0    0  501    0  0.00000000000E+00 -0.00000000000E+00 -0.10147784246E+03  0.10147784246E+03  0.00000000000E+00 0. -1.
         25    2    1    2    0    0 -0.94635974476E+02 -0.66889086077E+02  0.90171294400E+02  0.19289560924E+03  0.12509091186E+03 0.  0.
          5    1    3    3  502    0  0.29466821094E+02 -0.11590168784E+02  0.45867171868E+01  0.32266638071E+02  0.41800000000E+01 0.  1.
         -5    1    3    3    0  502 -0.12410279557E+03 -0.55298917293E+02  0.85584577213E+02  0.16062897117E+03  0.41800000000E+01 0.  1.
        -11    1    1    2    0    0  0.33982526594E+02  0.77919646186E+02  0.22540829177E+02  0.87945280462E+02  0.00000000000E+00 0. -1.
         11    1    1    2    0    0  0.60653447882E+02 -0.11030560109E+02  0.37149420823E+02  0.71976339611E+02  0.00000000000E+00 0.  1.
</event>
<event>
 7    1  0.2490079E-009  0.1156874E+03  0.7561462E-02  0.1250386E+00
         -1   -1    0    0    0  501 -0.00000000000E+00  0.00000000000E+00  0.18681405844E+03  0.18681405844E+03  0.00000000000E+00 0.  1.
          1   -1    0    0  501    0  0.00000000000E+00 -0.00000000000E+00 -0.80193398378E+02  0.80193398378E+02  0.00000000000E+00 0. -1.
         25    2    1    2    0    0 -0.45288800973E+02 -0.23088523228E+01  0.95364940343E+02  0.16370418536E+03  0.12509269429E+03 0.  0.
          5    1    3    3  502    0 -0.47352837538E+02 -0.59138461981E+02  0.58433082787E+02  0.95768191339E+02  0.41800000000E+01 0.  1.
         -5    1    3    3    0  502  0.20640365653E+01  0.56829609658E+02  0.36931857556E+02  0.67935994020E+02  0.41800000000E+01 0.  1.
        -11    1    1    2    0    0  0.67418650298E+02 -0.16530634946E+02  0.21208545833E+02  0.72583322576E+02  0.00000000000E+00 0.  1.
         11    1    1    2    0    0 -0.22129849326E+02  0.18839487269E+02 -0.99528261140E+01  0.30719948884E+02  0.00000000000E+00 0. -1.
</event>
<event>
 7    1  0.2651414E-009  0.1066807E+03  0.7561462E-02  0.1266843E+00
         -1   -1    0    0    0  501 -0.00000000000E+00  0.00000000000E+00  0.15531676233E+02  0.15531676233E+02  0.00000000000E+00 0.  1.
          1   -1    0    0  501    0  0.00000000000E+00 -0.00000000000E+00 -0.94223783382E+03  0.94223783382E+03  0.00000000000E+00 0. -1.
         25    2    1    2    0    0  0.16025577615E+02  0.48609170641E+02 -0.57284748963E+03  0.58857555205E+03  0.12508902222E+03 0.  0.
          5    1    3    3  502    0 -0.42630959160E+02  0.23366329188E+02 -0.42066414032E+03  0.42348456332E+03  0.41800000000E+01 0.  1.
         -5    1    3    3    0  502  0.58656536775E+02  0.25242841453E+02 -0.15218334931E+03  0.16509098873E+03  0.41800000000E+01 0.  1.
        -11    1    1    2    0    0 -0.52002753690E+02 -0.30640638364E+02 -0.15557556247E+03  0.16687387677E+03  0.00000000000E+00 0.  1.
         11    1    1    2    0    0  0.35977176075E+02 -0.17968532277E+02 -0.19828310548E+03  0.20232008123E+03  0.00000000000E+00 0. -1.
</event>
<event>
 7    1  0.2490079E-009  0.1646142E+03  0.7561462E-02  0.1183584E+00
          1   -1    0    0  501    0  0.00000000000E+00  0.00000000000E+00  0.39685978173E+04  0.39685978173E+04  0.00000000000E+00 0. -1.
         -1   -1    0    0    0  501 -0.00000000000E+00 -0.00000000000E+00 -0.14239601723E+02  0.14239601723E+02  0.00000000000E+00 0.  1.
         25    2    1    2    0    0  0.12026870816E+03  0.74690150424E+02  0.33597470698E+04  0.33650543311E+04  0.12508836091E+03 0.  0.
          5    1    3    3  502    0  0.91868254662E+02  0.98156888115E+01  0.26841337992E+04  0.26857266890E+04  0.41800000000E+01 0.  1.
         -5    1    3    3    0  502  0.28400453502E+02  0.64874461613E+02  0.67561327060E+03  0.67932764212E+03  0.41800000000E+01 0.  1.
        -11    1    1    2    0    0 -0.61307010439E+02  0.10496869812E+02  0.26853411603E+03  0.27564343866E+03  0.00000000000E+00 0. -1.
         11    1    1    2    0    0 -0.58961697725E+02 -0.85187020236E+02  0.32607702983E+03  0.34213964927E+03  0.00000000000E+00 0.  1.
</event>
<event>
 7    1  0.2490079E-009  0.3139591E+03  0.7561462E-02  0.1078464E+00
          4   -1    0    0  501    0  0.00000000000E+00  0.00000000000E+00  0.73468647963E+03  0.73468647963E+03  0.00000000000E+00 0. -1.
         -4   -1    0    0    0  501 -0.00000000000E+00 -0.00000000000E+00 -0.15490829999E+03  0.15490829999E+03  0.00000000000E+00 0.  1.
         25    2    1    2    0    0 -0.90946431614E+02 -0.29182205653E+03  0.17371310007E+03  0.37316774542E+03  0.12508620623E+03 0.  0.
          5    1    3    3  502    0 -0.97819301833E+02 -0.28436949808E+03  0.18836173608E+03  0.35486933267E+03  0.41800000000E+01 0. -1.
         -5    1    3    3    0  502  0.68728702187E+01 -0.74525584512E+01 -0.14648636010E+02  0.18298412758E+02  0.41800000000E+01 0. -1.
        -11    1    1    2    0    0 -0.12997790909E+02  0.70449590283E+02  0.64929582668E+02  0.96684735325E+02  0.00000000000E+00 0. -1.
         11    1    1    2    0    0  0.10394422252E+03  0.22137246625E+03  0.34113549691E+03  0.41974229887E+03  0.00000000000E+00 0.  1.
</event>
<event>
 7    1  0.2490079E-009  0.8778249E+02  0.7561462E-02  0.1308312E+00
          4   -1    0    0  501    0  0.00000000000E+00  0.00000000000E+00  0.16429569874E+03  0.16429569874E+03  0.00000000000E+00 0. -1.
         -4   -1    0    0    0  501 -0.00000000000E+00 -0.00000000000E+00 -0.11402802620E+03  0.11402802620E+03  0.00000000000E+00 0.  1.
         25    2    1    2    0    0 -0.64910816754E+02  0.13072024593E+02 -0.24167862047E+02  0.14358487969E+03  0.12509292611E+03 0.  0.
          5    1    3    3  502    0 -0.35889945595E-01  0.10350598128E+02 -0.65536944814E+02  0.66480822086E+02  0.41800000000E+01 0. -1.
         -5    1    3    3    0  502 -0.64874926809E+02  0.27214264646E+01  0.41369082767E+02  0.77104057607E+02  0.41800000000E+01 0. -1.
        -11    1    1    2    0    0  0.10149587018E+02  0.28712575070E+02  0.55492240415E+02  0.63299406238E+02  0.00000000000E+00 0. -1.
         11    1    1    2    0    0  0.54761229737E+02 -0.41784599663E+02  0.18943294179E+02  0.71439439007E+02  0.00000000000E+00 0.  1.
</event>
<event>
 7    1  0.2490079E-009  0.1855898E+03  0.7561462E-02  0.1162500E+00
          1   -1    0    0  501    0  0.00000000000E+00  0.00000000000E+00  0.12662970972E+03  0.12662970972E+03  0.00000000000E+00 0.  1.
         -1   -1    0    0    0  501 -0.00000000000E+00 -0.00000000000E+00 -0.48954454935E+03  0.48954454935E+03  0.00000000000E+00 0. -1.
         25    2    1    2    0    0 -0.95364071389E+02  0.13095348302E+03 -0.38253733625E+03  0.43384779872E+03  0.12508388387E+03 0.  0.
          5    1    3    3  502    0 -0.12065957326E+03  0.12149871878E+03 -0.28458073700E+03  0.33215107942E+03  0.41800000000E+01 0. -1.
         -5    1    3    3    0  502  0.25295501866E+02  0.94547642374E+01 -0.97956599248E+02  0.10169671931E+03  0.41800000000E+01 0. -1.
        -11    1    1    2    0    0  0.64656176237E+02 -0.38731764928E+02  0.36383753439E+02  0.83691984410E+02  0.00000000000E+00 0.  1.
         11    1    1    2    0    0  0.30707895152E+02 -0.92221718094E+02 -0.16761256818E+02  0.98634475935E+02  0.00000000000E+00 0. -1.
</event>
<event>
 7    1  0.2490079E-009  0.1049326E+03  0.7561462E-02  0.1270252E+00
         -3   -1    0    0    0  501 -0.00000000000E+00  0.00000000000E+00  0.14606951459E+03  0.14606951459E+03  0.00000000000E+00 0.  1.
          3   -1    0    0  501    0  0.00000000000E+00 -0.00000000000E+00 -0.10949466855E+03  0.10949466855E+03  0.00000000000E+00 0. -1.
         25    2    1    2    0    0  0.35649814031E+02 -0.32219324494E+02  0.64068774211E+02  0.14853034798E+03  0.12508981706E+03 0.  0.
          5    1    3    3  502    0 -0.81457624028E+01  0.38613823015E+02  0.50215623970E+02  0.64003609770E+02  0.41800000000E+01 0. -1.
         -5    1    3    3    0  502  0.43795576433E+02 -0.70833147508E+02  0.13853150241E+02  0.84526738211E+02  0.41800000000E+01 0. -1.
        -11    1    1    2    0    0 -0.17742264552E+02  0.55017044208E+02  0.11000242647E+02  0.58844442755E+02  0.00000000000E+00 0.  1.
         11    1    1    2    0    0 -0.17907549478E+02 -0.22797719715E+02 -0.38494170817E+02  0.48189392395E+02  0.00000000000E+00 0. -1.
</event>
<event>
 7    1  0.2490079E-009  0.1491063E+03  0.7561462E-02  0.1201575E+00
          2   -1    0    0  501    0  0.00000000000E+00  0.00000000000E+00  0.13756032980E+04  0.13756032980E+04  0.00000000000E+00 0. -1.
         -2   -1    0    0    0  501 -0.00000000000E+00 -0.00000000000E+00 -0.16504304533E+02  0.16504304533E+02  0.00000000000E+00 0.  1.
         25    2    1    2    0    0  0.57220219210E+02  0.84631150185E+02  0.69513855329E+03  0.71365385077E+03  0.12509046880E+03 0.  0.
          5    1    3    3  502    0  0.74991020119E+02  0.30503364144E+01  0.26439756805E+03  0.27487543368E+03  0.41800000000E+01 0. -1.
         -5    1    3    3    0  502 -0.17770800908E+02  0.81580813771E+02  0.43074098524E+03  0.43877841709E+03  0.41800000000E+01 0. -1.
        -11    1    1    2    0    0  0.13777260566E+02 -0.64063531142E+02  0.30391267436E+03  0.31089686805E+03  0.00000000000E+00 0.  1.
         11    1    1    2    0    0 -0.70997479777E+02 -0.20567619043E+02  0.36004776582E+03  0.36755688371E+03  0.00000000000E+00 0. -1.
</event>
<event>
 7    1  0.2490079E-009  0.8407791E+02  0.7561462E-02  0.1317862E+00
          2   -1    0    0  501    0  0.00000000000E+00  0.00000000000E+00  0.42431949278E+02  0.42431949278E+02  0.00000000000E+00 0.  1.
         -2   -1    0    0    0  501 -0.00000000000E+00 -0.00000000000E+00 -0.28555899521E+03  0.28555899521E+03  0.00000000000E+00 0. -1.
         25    2    1    2    0    0  0.27494700833E+02  0.11281588971E+02 -0.16352030938E+03  0.20801180286E+03  0.12508711255E+03 0.  0.
          5    1    3    3  502    0  0.45786454657E+01 -0.30240297535E+02 -0.15694283261E+03  0.15994988183E+03  0.41800000000E+01 0. -1.
         -5    1    3    3    0  502  0.22916055367E+02  0.41521886506E+02 -0.65774767672E+01  0.48061921031E+02  0.41800000000E+01 0. -1.
        -11    1    1    2    0    0 -0.51703476311E+02 -0.29364258032E+02 -0.55271463576E+02  0.81181548385E+02  0.00000000000E+00 0.  1.
         11    1    1    2    0    0  0.24208775478E+02  0.18082669061E+02 -0.24335272979E+02  0.38797593243E+02  0.00000000000E+00 0. -1.
</event>
<event>
 7    1  0.2490079E-009  0.1618810E+03  0.7561462E-02  0.1186589E+00
          1   -1    0    0  501    0  0.00000000000E+00  0.00000000000E+00  0.30086337418E+02  0.30086337418E+02  0.00000000000E+00 0. -1.
         -1   -1    0    0    0  501 -0.00000000000E+00 -0.00000000000E+00 -0.92054684143E+03  0.92054684143E+03  0.00000000000E+00 0.  1.
         25    2    1    2    0    0  0.12057418081E+03  0.30518019412E+02 -0.53462483353E+03  0.56297423528E+03  0.12508714713E+03 0.  0.
          5    1    3    3  502    0  0.14061938496E+03  0.48493559133E+02 -0.46392989656E+03  0.48721028112E+03  0.41800000000E+01 0.  1.
         -5    1    3    3    0  502 -0.20045204147E+02 -0.17975539721E+02 -0.70694936967E+02  0.75763954162E+02  0.41800000000E+01 0.  1.
        -11    1    1    2    0    0 -0.39076140269E+02 -0.50446597952E+02 -0.10198299600E+03  0.12030102018E+03  0.00000000000E+00 0. -1.
         11    1    1    2    0    0 -0.81498040543E+02  0.19928578540E+02 -0.25385267448E+03  0.26735792339E+03  0.00000000000E+00 0.  1.
</event>
<event>
 7    1  0.2490079E-009  0.1409169E+03  0.7561462E-02  0.1212101E+00
          1   -1    0    0  501    0  0.00000000000E+00  0.00000000000E+00  0.40483982823E+03  0.40483982823E+03  0.00000000000E+00 0. -1.
         -1   -1    0    0    0  501 -0.00000000000E+00 -0.00000000000E+00 -0.67933296146E+02  0.67933296146E+02  0.00000000000E+00 0.  1.
         25    2    1    2    0    0  0.12404806016E+03 -0.64042029630E+00  0.20400159346E+03  0.26954172019E+03  0.12509099656E+03 0.  0.
          5    1    3    3  502    0  0.12432169927E+03  0.23831510004E+01  0.85577780728E+02  0.15100527565E+03  0.41800000000E+01 0.  1.
         -5    1    3    3    0  502 -0.27363911600E+00 -0.30235712967E+01  0.11842381274E+03  0.11853644454E+03  0.41800000000E+01 0.  1.
        -11    1    1    2    0    0 -0.10633637438E+03 -0.35417608923E+02  0.10973536574E+03  0.15685560887E+03  0.00000000000E+00 0. -1.
         11    1    1    2    0    0 -0.17711685774E+02  0.36058029220E+02  0.23169572883E+02  0.46375795322E+02  0.00000000000E+00 0.  1.
</event>
<event>
 7    1  0.2490079E-009  0.8845650E+02  0.7561462E-02  0.1306633E+00
          2   -1    0    0  501    0  0.00000000000E+00  0.00000000000E+00  0.94634683744E+03  0.94634683744E+03  0.00000000000E+00 0. -1.
         -2   -1    0    0    0  501 -0.00000000000E+00 -0.00000000000E+00 -0.13619749322E+02  0.13619749322E+02  0.00000000000E+00 0.  1.
         25    2    1    2    0    0 -0.16081637338E+02  0.85432856901E+01  0.62890106692E+03  0.64147919596E+03  0.12508956827E+03 0.  0.
          5    1    3    3  502    0  0.28482220178E+02  0.30575223870E+02  0.80333266883E+02  0.90647599798E+02  0.41800000000E+01 0. -1.
         -5    1    3    3    0  502 -0.44563857517E+02 -0.22031938180E+02  0.54856780003E+03  0.55083159616E+03  0.41800000000E+01 0. -1.
        -11    1    1    2    0    0 -0.26631704452E+01  0.36315283378E+02  0.62678605490E+02  0.72487929132E+02  0.00000000000E+00 0.  1.
         11    1    1    2    0    0  0.18744807783E+02 -0.44858569068E+02  0.24114741571E+03  0.24599946167E+03  0.00000000000E+00 0. -1.
</event>
<event>
 7    1  0.2490079E-009  0.1669769E+03  0.7561462E-02  0.1181038E+00
         -2   -1    0    0    0  501 -0.00000000000E+00  0.00000000000E+00  0.54846348760E+02  0.54846348760E+02  0.00000000000E+00 0.  1.
          2   -1    0    0  501    0  0.00000000000E+00 -0.00000000000E+00 -0.60384818735E+03  0.60384818735E+03  0.00000000000E+00 0. -1.
         25    2    1    2    0    0 -0.77073124793E+02 -0.12149568474E+03 -0.23672066278E+03  0.30394985485E+03  0.12508946438E+03 0.  0.
          5    1    3    3  502    0  0.12936484018E+02 -0.94129215484E+02 -0.13716953698E+03  0.16691499664E+03  0.41800000000E+01 0. -1.
         -5    1    3    3    0  502 -0.90009608811E+02 -0.27366469259E+02 -0.99551125800E+02  0.13703485822E+03  0.41800000000E+01 0. -1.
        -11    1    1    2    0    0  0.61402016461E+02  0.10680475778E+03 -0.30945852333E+03  0.33307963248E+03  0.00000000000E+00 0. -1.
         11    1    1    2    0    0  0.15671108333E+02  0.14690926961E+02 -0.28226524715E+01  0.21665048773E+02  0.00000000000E+00 0.  1.
</event>
<event>
 7    1  0.2490079E-009  0.1289607E+03  0.7561462E-02  0.1229006E+00
          1   -1    0    0  501    0  0.00000000000E+00  0.00000000000E+00  0.24459009033E+03  0.24459009033E+03  0.00000000000E+00 0. -1.
         -1   -1    0    0    0  501 -0.00000000000E+00 -0.00000000000E+00 -0.10438322717E+03  0.10438322717E+03  0.00000000000E+00 0.  1.
         25    2    1    2    0    0  0.21434699397E+02  0.11149559224E+03  0.43024707138E+02  0.17432073408E+03  0.12508349003E+03 0.  0.
          5    1    3    3  502    0  0.50102974342E+00 -0.47221153022E+00 -0.35598832857E+02  0.35850011371E+02  0.41800000000E+01 0.  1.
         -5    1    3    3    0  502  0.20933669653E+02  0.11196780377E+03  0.78623539995E+02  0.13847072271E+03  0.41800000000E+01 0.  1.
        -11    1    1    2    0    0  0.28992720985E+02 -0.19977741180E+02  0.47028053185E+02  0.58747985490E+02  0.00000000000E+00 0. -1.
         11    1    1    2    0    0 -0.50427420382E+02 -0.91517851063E+02  0.50154102831E+02  0.11590459793E+03  0.00000000000E+00 0.  1.
</event>
<event>
 7    1  0.2490079E-009  0.1092111E+03  0.7561462E-02  0.1262038E+00
         -1   -1    0    0    0  501 -0.00000000000E+00  0.00000000000E+00  0.13655609094E+03  0.13655609094E+03  0.00000000000E+00 0.  1.
          1   -1    0    0  501    0  0.00000000000E+00 -0.00000000000E+00 -0.14822429348E+03  0.14822429348E+03  0.00000000000E+00 0. -1.
         25    2    1    2    0    0  0.29507569110E+02 -0.48836724803E+02  0.66011684880E+02  0.15251595107E+03  0.12509136847E+03 0.  0.
          5    1    3    3  502    0 -0.26747022675E+02  0.29781405650E+02  0.25299565534E+02  0.47538150581E+02  0.41800000000E+01 0. -1.
         -5    1    3    3    0  502  0.56254591785E+02 -0.78618130453E+02  0.40712119346E+02  0.10497780048E+03  0.41800000000E+01 0. -1.
        -11    1    1    2    0    0 -0.85783109253E-01  0.51838904185E+02 -0.29816566224E+01  0.51924653317E+02  0.00000000000E+00 0.  1.
         11    1    1    2    0    0 -0.29421786000E+02 -0.30021793819E+01 -0.74698230801E+02  0.80339780043E+02  0.00000000000E+00 0. -1.
</event>
<event>
 7    1  0.2490079E-009  0.1065663E+03  0.7561462E-02  0.1267064E+00
          2   -1    0    0  501    0  0.00000000000E+00  0.00000000000E+00  0.54031909031E+03  0.54031909031E+03  0.00000000000E+00 0. -1.
         -2   -1    0    0    0  501 -0.00000000000E+00 -0.00000000000E+00 -0.25587730474E+02  0.25587730474E+02  0.00000000000E+00 0.  1.
         25    2    1    2    0    0 -0.11891021257E+02  0.11714443821E+02  0.21361667907E+03  0.24811308903E+03  0.12509754110E+03 0.  0.
          5    1    3    3  502    0  0.60053060961E+01 -0.50808790401E+02  0.48580722923E+02  0.70676417022E+02  0.41800000000E+01 0. -1.
         -5    1    3    3    0  502 -0.17896327353E+02  0.62523234222E+02  0.16503595615E+03  0.17743667201E+03  0.41800000000E+01 0. -1.
        -11    1    1    2    0    0  0.95230535696E+00  0.41900771032E+02  0.18120275828E+03  0.18598661540E+03  0.00000000000E+00 0. -1.
         11    1    1    2    0    0  0.10938715900E+02 -0.53615214853E+02  0.11991192248E+03  0.13180711636E+03  0.00000000000E+00 0.  1.
</event>
<event>
 7    1  0.2490079E-009  0.1077791E+03  0.7561462E-02  0.1264739E+00
          3   -1    0    0  501    0  0.00000000000E+00  0.00000000000E+00  0.16619065219E+03  0.16619065219E+03  0.00000000000E+00 0. -1.
         -3   -1    0    0    0  501 -0.00000000000E+00 -0.00000000000E+00 -0.13322810872E+03  0.13322810872E+03  0.00000000000E+00 0.  1.
         25    2    1    2    0    0 -0.22973958812E+02 -0.66262274129E+02  0.79342380648E+02  0.16388327376E+03  0.12507606604E+03 0.  0.
          5    1    3    3  502    0  0.39295990023E+02 -0.42687556809E+02  0.77810900676E+02  0.97151484817E+02  0.41800000000E+01 0. -1.
         -5    1    3    3    0  502 -0.62269948835E+02 -0.23574717320E+02  0.15314799726E+01  0.66731788943E+02  0.41800000000E+01 0. -1.
        -11    1    1    2    0    0  0.42415291310E+02  0.43953643342E+02 -0.73381207102E+02  0.95476600566E+02  0.00000000000E+00 0.  1.
         11    1    1    2    0    0 -0.19441332498E+02  0.22308630787E+02  0.27001369926E+02  0.40058886589E+02  0.00000000000E+00 0. -1.
</event>
<event>
 7    1  0.2490079E-009  0.8492203E+02  0.7561462E-02  0.1315637E+00
          2   -1    0    0  501    0  0.00000000000E+00  0.00000000000E+00  0.66494833602E+02  0.66494833602E+02  0.00000000000E+00 0. -1.
         -2   -1    0    0    0  501 -0.00000000000E+00 -0.00000000000E+00 -0.24742670933E+03  0.24742670933E+03  0.00000000000E+00 0.  1.
         25    2    1    2    0    0  0.56266203289E+01 -0.45373698930E+02 -0.16282357300E+03  0.21035570277E+03  0.12509026481E+03 0.  0.
          5    1    3    3  502    0  0.14136583677E+02 -0.83188684903E+02 -0.70136612237E+02  0.10980353851E+03  0.41800000000E+01 0. -1.
         -5    1    3    3    0  502 -0.85099633477E+01  0.37814985973E+02 -0.92686960764E+02  0.10055216425E+03  0.41800000000E+01 0. -1.
        -11    1    1    2    0    0 -0.58759625364E+01  0.16779969056E+02 -0.54475381849E+02  0.57303241836E+02  0.00000000000E+00 0.  1.
         11    1    1    2    0    0  0.24934220754E+00  0.28593729874E+02  0.36367079126E+02  0.46262598325E+02  0.00000000000E+00 0. -1.
</event>
<event>
 7    1  0.2490079E-009  0.2191945E+03  0.7561462E-02  0.1134485E+00
          1   -1    0    0  501    0  0.00000000000E+00  0.00000000000E+00  0.11840942172E+04  0.11840942172E+04  0.00000000000E+00 0. -1.
         -1   -1    0    0    0  501 -0.00000000000E+00 -0.00000000000E+00 -0.48106557037E+02  0.48106557037E+02  0.00000000000E+00 0.  1.
         25    2    1    2    0    0  0.55917041751E+02  0.19976755107E+03  0.70249744482E+03  0.74309010209E+03  0.12508576989E+03 0.  0.
          5    1    3    3  502    0  0.31106028839E+02  0.76059839014E+01  0.23206934259E+03  0.23430554451E+03  0.41800000000E+01 0.  1.
         -5    1    3    3    0  502  0.24811012913E+02  0.19216156717E+03  0.47042810224E+03  0.50878455758E+03  0.41800000000E+01 0.  1.
        -11    1    1    2    0    0 -0.33881143199E+02 -0.46969727520E+02  0.20745289547E+03  0.21538521538E+03  0.00000000000E+00 0.  1.
         11    1    1    2    0    0 -0.22035898553E+02 -0.15279782355E+03  0.22603731991E+03  0.27372545680E+03  0.00000000000E+00 0. -1.
</event>
<event>
 7    1  0.2490079E-009  0.9910863E+02  0.7561462E-02  0.1282182E+00
          2   -1    0    0  501    0  0.00000000000E+00  0.00000000000E+00  0.48055092199E+02  0.48055092199E+02  0.00000000000E+00 0. -1.
         -2   -1    0    0    0  501 -0.00000000000E+00 -0.00000000000E+00 -0.29953863468E+03  0.29953863468E+03  0.00000000000E+00 0.  1.
         25    2    1    2    0    0 -0.31655091134E+02  0.20514852691E+02 -0.89565572895E+02  0.15839976862E+03  0.12508233639E+03 0.  0.
          5    1    3    3  502    0  0.34709834579E+02  0.20942011228E+02 -0.81877593148E+02  0.91459024216E+02  0.41800000000E+01 0.  1.
         -5    1    3    3    0  502 -0.66364925713E+02 -0.42715853688E+00 -0.76879797465E+01  0.66940744408E+02  0.41800000000E+01 0.  1.
        -11    1    1    2    0    0 -0.13266038936E+02  0.24191401919E+02 -0.20975529424E+02  0.34658109447E+02  0.00000000000E+00 0.  1.
         11    1    1    2    0    0  0.44921130070E+02 -0.44706254610E+02 -0.14094244016E+03  0.15453584881E+03  0.00000000000E+00 0. -1.
</event>
<event>
 7    1  0.2490079E-009  0.1269882E+03  0.7561462E-02  0.1231994E+00
          1   -1    0    0  501    0  0.00000000000E+00  0.00000000000E+00  0.26517418159E+03  0.26517418159E+03  0.00000000000E+00 0. -1.
         -1   -1    0    0    0  501 -0.00000000000E+00 -0.00000000000E+00 -0.10920183840E+03  0.10920183840E+03  0.00000000000E+00 0.  1.
         25    2    1    2    0    0  0.73192111694E+02 -0.67062808533E+02 -0.11405431814E+02  0.16010271568E+03  0.12509312608E+03 0.  0.
          5    1    3    3  502    0  0.83538374362E+02 -0.91331944111E+01  0.28549144630E+02  0.88851568868E+02  0.41800000000E+01 0. -1.
         -5    1    3    3    0  502 -0.10346262668E+02 -0.57929614122E+02 -0.39954576444E+02  0.71251146814E+02  0.41800000000E+01 0. -1.
        -11    1    1    2    0    0 -0.72933212038E+02  0.38863798855E+02  0.16670502915E+03  0.18606508276E+03  0.00000000000E+00 0. -1.
         11    1    1    2    0    0 -0.25889965624E+00  0.28199009677E+02  0.67274585158E+00  0.28208221546E+02  0.00000000000E+00 0.  1.
</event>
<event>
 7    1  0.2490079E-009  0.1061307E+03  0.7561462E-02  0.1267908E+00
          2   -1    0    0  501    0  0.00000000000E+00  0.00000000000E+00  0.12765609005E+03  0.12765609005E+03  0.00000000000E+00 0. -1.
         -2   -1    0    0    0  501 -0.00000000000E+00 -0.00000000000E+00 -0.12516124876E+03  0.12516124876E+03  0.00000000000E+00 0.  1.
         25    2    1    2    0    0 -0.47370674270E+02  0.42952283595E+02 -0.52462706411E+01  0.14058898031E+03  0.12509539792E+03 0.  0.
          5    1    3    3  502    0  0.36452558297E+02  0.13603543156E+01  0.22295450443E+02  0.42955780528E+02  0.41800000000E+01 0.  1.
         -5    1    3    3    0  502 -0.83823232566E+02  0.41591929279E+02 -0.27541721085E+02  0.97633199780E+02  0.41800000000E+01 0.  1.
        -11    1    1    2    0    0 -0.82177093374E+01 -0.20208575879E+02  0.38874613967E+02  0.44577493165E+02  0.00000000000E+00 0. -1.
         11    1    1    2    0    0  0.55588383607E+02 -0.22743707716E+02 -0.31133502037E+02  0.67650865344E+02  0.00000000000E+00 0.  1.
</event>
<event>
 7    1  0.2490079E-009  0.2203694E+03  0.7561462E-02  0.1133608E+00
          4   -1    0    0  501    0  0.00000000000E+00  0.00000000000E+00  0.33470395069E+03  0.33470395069E+03  0.00000000000E+00 0. -1.
         -4   -1    0    0    0  501 -0.00000000000E+00 -0.00000000000E+00 -0.36018229302E+03  0.36018229302E+03  0.00000000000E+00 0.  1.
         25    2    1    2    0    0 -0.20716181344E+03  0.53659746835E+02  0.23766134976E+03  0.34340439221E+03  0.12509306152E+03 0.  0.
          5    1    3    3  502    0 -0.17851906195E+03  0.20416862260E+02  0.11577504673E+03  0.21379251061E+03  0.41800000000E+01 0. -1.
         -5    1    3    3    0  502 -0.28642751489E+02  0.33242884575E+02  0.12188630302E+03  0.12961188160E+03  0.41800000000E+01 0. -1.
        -11    1    1    2    0    0  0.14401776674E+03 -0.20080412829E+02 -0.23126921827E+03  0.27318453733E+03  0.00000000000E+00 0.  1.
         11    1    1    2    0    0  0.63144046704E+02 -0.33579334006E+02 -0.31870473814E+02  0.78297314179E+02  0.00000000000E+00 0. -1.
</event>
<event>
 7    1  0.2490079E-009  0.8757809E+02  0.7561462E-02  0.1308825E+00
          1   -1    0    0  501    0  0.00000000000E+00  0.00000000000E+00  0.18367002141E+03  0.18367002141E+03  0.00000000000E+00 0. -1.
         -1   -1    0    0    0  501 -0.00000000000E+00 -0.00000000000E+00 -0.94791434451E+02  0.94791434451E+02  0.00000000000E+00 0.  1.
         25    2    1    2    0    0 -0.28376812101E+02  0.21387262959E+02  0.11351324929E+03  0.17261249402E+03  0.12508859598E+03 0.  0.
          5    1    3    3  502    0 -0.23616221463E+02  0.43832556039E+02 -0.64713692348E+01  0.50382237990E+02  0.41800000000E+01 0. -1.
         -5    1    3    3    0  502 -0.47605906373E+01 -0.22445293080E+02  0.11998461853E+03  0.12223025603E+03  0.41800000000E+01 0. -1.
        -11    1    1    2    0    0  0.59377877708E+02 -0.33973962603E+02 -0.23625654027E+02  0.72374954399E+02  0.00000000000E+00 0.  1.
         11    1    1    2    0    0 -0.31001065608E+02  0.12586699644E+02 -0.10090083071E+01  0.33474007446E+02  0.00000000000E+00 0. -1.
</event>
<event>
 7    1  0.2490079E-009  0.1056511E+03  0.7561462E-02  0.1268842E+00
         -1   -1    0    0    0  501 -0.00000000000E+00  0.00000000000E+00  0.20221311877E+02  0.20221311877E+02  0.00000000000E+00 0.  1.
          1   -1    0    0  501    0  0.00000000000E+00 -0.00000000000E+00 -0.60512096148E+03  0.60512096148E+03  0.00000000000E+00 0. -1.
         25    2    1    2    0    0  0.39554034919E+02  0.23719376305E+02 -0.38090033513E+03  0.40355892324E+03  0.12509040225E+03 0.  0.
          5    1    3    3  502    0 -0.30587579397E+02 -0.29921420895E+02 -0.15867744327E+03  0.16439858528E+03  0.41800000000E+01 0. -1.
         -5    1    3    3    0  502  0.70141614316E+02  0.53640797200E+02 -0.22222289186E+03  0.23916033795E+03  0.41800000000E+01 0. -1.
        -11    1    1    2    0    0  0.15292124005E+02 -0.19668060449E+02 -0.11081159149E+03  0.11357768473E+03  0.00000000000E+00 0. -1.
         11    1    1    2    0    0 -0.54846158924E+02 -0.40513158564E+01 -0.93187722986E+02  0.10820566540E+03  0.00000000000E+00 0.  1.
</event>
<event>
 7    1  0.2490079E-009  0.1528197E+03  0.7561462E-02  0.1197050E+00
          2   -1    0    0  501    0  0.00000000000E+00  0.00000000000E+00  0.78850276729E+03  0.78850276729E+03  0.00000000000E+00 0.  1.
         -2   -1    0    0    0  501 -0.00000000000E+00 -0.00000000000E+00 -0.38230341687E+02  0.38230341687E+02  0.00000000000E+00 0. -1.
         25    2    1    2    0    0 -0.56626189718E+02 -0.11461411242E+03  0.48659399041E+03  0.51842349202E+03  0.12508511281E+03 0.  0.
          5    1    3    3  502    0 -0.34396742802E+02  0.41537790643E+00  0.26485679265E+02  0.43615043968E+02  0.41800000000E+01 0.  1.
         -5    1    3    3    0  502 -0.22229446915E+02 -0.11502949033E+03  0.46010831115E+03  0.47480844805E+03  0.41800000000E+01 0.  1.
        -11    1    1    2    0    0 -0.19157555737E+02  0.38404042489E+01  0.11588881123E+02  0.22717015919E+02  0.00000000000E+00 0. -1.
         11    1    1    2    0    0  0.75783745454E+02  0.11077370817E+03  0.25208955406E+03  0.28559260103E+03  0.00000000000E+00 0.  1.
</event>
<event>
 7    1  0.2490079E-009  0.1137951E+03  0.7561462E-02  0.1253699E+00
         -2   -1    0    0    0  501 -0.00000000000E+00  0.00000000000E+00  0.24880235308E+03  0.24880235308E+03  0.00000000000E+00 0.  1.
          2   -1    0    0  501    0  0.00000000000E+00 -0.00000000000E+00 -0.74487377919E+02  0.74487377919E+02  0.00000000000E+00 0. -1.
         25    2    1    2    0    0  0.27159905720E+02  0.75389773879E+02  0.74476253990E+02  0.16617941037E+03  0.12509038947E+03 0.  0.
          5    1    3    3  502    0  0.33574021278E+02  0.10730884395E+03  0.71292553928E+02  0.13320098926E+03  0.41800000000E+01 0. -1.
         -5    1    3    3    0  502 -0.64141155585E+01 -0.31919070072E+02  0.31837000611E+01  0.32978421108E+02  0.41800000000E+01 0. -1.
        -11    1    1    2    0    0 -0.15018840460E+02 -0.17322184424E+02  0.94845693177E+02  0.97577298365E+02  0.00000000000E+00 0.  1.
         11    1    1    2    0    0 -0.12141065260E+02 -0.58067589455E+02  0.49930279902E+01  0.59533022259E+02  0.00000000000E+00 0. -1.
</event>
<event>
 7    1  0.2490079E-009  0.1161119E+03  0.7561462E-02  0.1249653E+00
         -1   -1    0    0    0  501 -0.00000000000E+00  0.00000000000E+00  0.12216134268E+02  0.12216134268E+02  0.00000000000E+00 0.  1.
          1   -1    0    0  501    0  0.00000000000E+00 -0.00000000000E+00 -0.21451415134E+04  0.21451415134E+04  0.00000000000E+00 0. -1.
         25    2    1    2    0    0 -0.21181699443E+01 -0.81680049435E+02 -0.17260045210E+04  0.17324595332E+04  0.12509320755E+03 0.  0.
          5    1    3    3  502    0  0.10241690044E+02 -0.92495407635E+02 -0.68367246699E+03  0.68998971526E+03  0.41800000000E+01 0.  1.
         -5    1    3    3    0  502 -0.12359859989E+02  0.10815358200E+02 -0.10423320540E+04  0.10424698179E+04  0.41800000000E+01 0.  1.
        -11    1    1    2    0    0  0.45858864416E+02  0.31942563160E+02 -0.19722095925E+03  0.20498651067E+03  0.00000000000E+00 0.  1.
         11    1    1    2    0    0 -0.43740694472E+02  0.49737486275E+02 -0.20969989895E+03  0.21991160386E+03  0.00000000000E+00 0. -1.
</event>
<event>
 7    1  0.2490079E-009  0.1158064E+03  0.7561462E-02  0.1250180E+00
          2   -1    0    0  501    0  0.00000000000E+00  0.00000000000E+00  0.74593158074E+02  0.74593158074E+02  0.00000000000E+00 0.  1.
         -2   -1    0    0    0  501 -0.00000000000E+00 -0.00000000000E+00 -0.19425402212E+03  0.19425402212E+03  0.00000000000E+00 0. -1.
         25    2    1    2    0    0  0.46906993194E+01 -0.44640563294E+02 -0.49684021288E+02  0.14188253200E+03  0.12508944145E+03 0.  0.
          5    1    3    3  502    0 -0.35299266316E+01  0.40094544660E+02  0.47565268336E+01  0.40744690955E+02  0.41800000000E+01 0. -1.
         -5    1    3    3    0  502  0.82206259510E+01 -0.84735107954E+02 -0.54440548121E+02  0.10113784104E+03  0.41800000000E+01 0. -1.
        -11    1    1    2    0    0 -0.49345224787E+02  0.12532979326E+02 -0.32163735671E+02  0.60220699700E+02  0.00000000000E+00 0.  1.
         11    1    1    2    0    0  0.44654525468E+02  0.32107583969E+02 -0.37813107086E+02  0.66743948494E+02  0.00000000000E+00 0. -1.
</event>
<event>
 7    1  0.2490079E-009  0.1598647E+03  0.7561462E-02  0.1188850E+00
          2   -1    0    0  501    0  0.00000000000E+00  0.00000000000E+00  0.40205616207E+03  0.40205616207E+03  0.00000000000E+00 0. -1.
         -2   -1    0    0    0  501 -0.00000000000E+00 -0.00000000000E+00 -0.80929679331E+02  0.80929679331E+02  0.00000000000E+00 0.  1.
         25    2    1    2    0    0  0.11093648063E+03 -0.49076028056E+02  0.66910954444E+02  0.18665420134E+03  0.12508939119E+03 0.  0.
          5    1    3    3  502    0  0.93832785591E+02 -0.89548716985E+02  0.44795771958E+02  0.13728691835E+03  0.41800000000E+01 0. -1.
         -5    1    3    3    0  502  0.17103695038E+02  0.40472688929E+02  0.22115182486E+02  0.49367282986E+02  0.41800000000E+01 0. -1.
        -11    1    1    2    0    0 -0.82185495538E+02  0.71832222478E+02  0.22258032685E+03  0.24790386396E+03  0.00000000000E+00 0.  1.
         11    1    1    2    0    0 -0.28750985091E+02 -0.22756194421E+02  0.31635201444E+02  0.48427776107E+02  0.00000000000E+00 0. -1.
</event>
<event>
 7    1  0.2490079E-009  0.7993817E+02  0.7561462E-02  0.1329227E+00
          2   -1    0    0  501    0  0.00000000000E+00  0.00000000000E+00  0.29364639069E+02  0.29364639069E+02  0.00000000000E+00 0. -1.
         -2   -1    0    0    0  501 -0.00000000000E+00 -0.00000000000E+00 -0.58974112619E+03  0.58974112619E+03  0.00000000000E+00 0.  1.
         25    2    1    2    0    0 -0.56505357446E+02 -0.15738793696E+02 -0.20075684938E+03  0.24370338289E+03  0.12508981258E+03 0.  0.
          5    1    3    3  502    0 -0.14120852878E+02 -0.13027150492E+02  0.14389884075E+02  0.24364857882E+02  0.41800000000E+01 0. -1.
         -5    1    3    3    0  502 -0.42384504569E+02 -0.27116432042E+01 -0.21514673346E+03  0.21933852501E+03  0.41800000000E+01 0. -1.
        -11    1    1    2    0    0 -0.17027544742E+02 -0.98609390093E+01 -0.24847962007E+02  0.31695372122E+02  0.00000000000E+00 0. -1.
         11    1    1    2    0    0  0.73532902188E+02  0.25599732706E+02 -0.33477167573E+03  0.34370701024E+03  0.00000000000E+00 0.  1.
</event>
<event>
 7    1  0.2490079E-009  0.1136934E+03  0.7561462E-02  0.1253879E+00
          1   -1    0    0  501    0  0.00000000000E+00  0.00000000000E+00  0.44382622515E+02  0.44382622515E+02  0.00000000000E+00 0. -1.
         -1   -1    0    0    0  501 -0.00000000000E+00 -0.00000000000E+00 -0.34670408287E+03  0.34670408287E+03  0.00000000000E+00 0.  1.
         25    2    1    2    0    0  0.55429119658E+02  0.14751046912E+02 -0.19510899025E+03  0.23875367153E+03  0.12508323990E+03 0.  0.
          5    1    3    3  502    0  0.53774104514E+02  0.65979595766E+02 -0.10768522420E+03  0.13732640418E+03  0.41800000000E+01 0.  1.
         -5    1    3    3    0  502  0.16550151445E+01 -0.51228548854E+02 -0.87423766046E+02  0.10142726735E+03  0.41800000000E+01 0.  1.
        -11    1    1    2    0    0 -0.64442539118E+02  0.92506861686E+01 -0.10864180130E+03  0.12665487370E+03  0.00000000000E+00 0.  1.
         11    1    1    2    0    0  0.90134194600E+01 -0.24001733080E+02  0.14293311905E+01  0.25678160153E+02  0.00000000000E+00 0. -1.
</event>
<event>
 7    1  0.2490079E-009  0.7668687E+02  0.7561462E-02  0.1338726E+00
          1   -1    0    0  501    0  0.00000000000E+00  0.00000000000E+00  0.11003102955E+03  0.11003102955E+03  0.00000000000E+00 0. -1.
         -1   -1    0    0    0  501 -0.00000000000E+00 -0.00000000000E+00 -0.95230778690E+02  0.95230778690E+02  0.00000000000E+00 0.  1.
         25    2    1    2    0    0  0.18947011854E+02 -0.13381179179E+02  0.44202068189E+02  0.13468293527E+03  0.12509046729E+03 0.  0.
          5    1    3    3  502    0  0.49856450724E+02  0.24787886157E+02 -0.14835671401E+02  0.57772610508E+02  0.41800000000E+01 0. -1.
         -5    1    3    3    0  502 -0.30909438870E+02 -0.38169065337E+02  0.59037739589E+02  0.76910324767E+02  0.41800000000E+01 0. -1.
        -11    1    1    2    0    0  0.84456930875E+01  0.18538854115E+02 -0.36513303956E+02  0.41811962516E+02  0.00000000000E+00 0.  1.
         11    1    1    2    0    0 -0.27392704942E+02 -0.51576749362E+01  0.71114866269E+01  0.28766910450E+02  0.00000000000E+00 0. -1.
</event>
<event>
 7    1  0.2490079E-009  0.8614481E+02  0.7561462E-02  0.1312466E+00
          2   -1    0    0  501    0  0.00000000000E+00  0.00000000000E+00  0.34484235637E+02  0.34484235637E+02  0.00000000000E+00 0. -1.
         -2   -1    0    0    0  501 -0.00000000000E+00 -0.00000000000E+00 -0.34820673361E+03  0.34820673361E+03  0.00000000000E+00 0.  1.
         25    2    1    2    0    0 -0.19240669353E+02 -0.47433343059E+02 -0.21414789625E+03  0.25323153622E+03  0.12508702601E+03 0.  0.
          5    1    3    3  502    0 -0.43602758715E+02  0.54397931086E+01 -0.16461136321E+02  0.47108739376E+02  0.41800000000E+01 0.  1.
         -5    1    3    3    0  502  0.24362089361E+02 -0.52873136168E+02 -0.19768675993E+03  0.20612279685E+03  0.41800000000E+01 0.  1.
        -11    1    1    2    0    0  0.26739539942E+02  0.56449465904E+01 -0.79266615212E+01  0.28455234688E+02  0.00000000000E+00 0. -1.
         11    1    1    2    0    0 -0.74988705881E+01  0.41788396469E+02 -0.91647940192E+02  0.10100419833E+03  0.00000000000E+00 0.  1.
</event>
<event>
 7    1  0.2490079E-009  0.1266395E+03  0.7561462E-02  0.1232529E+00
          1   -1    0    0  501    0  0.00000000000E+00  0.00000000000E+00  0.74736521580E+02  0.74736521580E+02  0.00000000000E+00 0. -1.
         -1   -1    0    0    0  501 -0.00000000000E+00 -0.00000000000E+00 -0.29900321752E+03  0.29900321752E+03  0.00000000000E+00 0.  1.
         25    2    1    2    0    0 -0.81562360538E+02  0.43765221563E+02 -0.65429369374E+02  0.16880837107E+03  0.12508976973E+03 0.  0.
          5    1    3    3  502    0 -0.59412412230E+02  0.71358905682E+02 -0.86871042187E+02  0.12722412711E+03  0.41800000000E+01 0. -1.
         -5    1    3    3    0  502 -0.22149948308E+02 -0.27593684119E+02  0.21441672813E+02  0.41584243967E+02  0.41800000000E+01 0. -1.
        -11    1    1    2    0    0  0.94881056570E+02 -0.19269204699E+02 -0.14350572632E+03  0.17311155546E+03  0.00000000000E+00 0.  1.
         11    1    1    2    0    0 -0.13318696032E+02 -0.24496016864E+02 -0.15331600250E+02  0.31819812577E+02  0.00000000000E+00 0. -1.
</event>
<event>
 7    1  0.2490079E-009  0.7673408E+02  0.7561462E-02  0.1338584E+00
          1   -1    0    0  501    0  0.00000000000E+00  0.00000000000E+00  0.18295946174E+02  0.18295946174E+02  0.00000000000E+00 0. -1.
         -1   -1    0    0    0  501 -0.00000000000E+00 -0.00000000000E+00 -0.88762596242E+03  0.88762596242E+03  0.00000000000E+00 0.  1.
         25    2    1    2    0    0  0.19813444415E+02  0.15004541632E+02 -0.70448035688E+03  0.71593180510E+03  0.12509223583E+03 0.  0.
          5    1    3    3  502    0  0.16934211850E+02  0.50955210629E+02 -0.63726923368E+03  0.63954104608E+03  0.41800000000E+01 0. -1.
         -5    1    3    3    0  502  0.28792325647E+01 -0.35950668997E+02 -0.67211123202E+02  0.76390759019E+02  0.41800000000E+01 0. -1.
        -11    1    1    2    0    0  0.13422807011E+02 -0.25188321435E+02 -0.84387661847E+01  0.29762998160E+02  0.00000000000E+00 0. -1.
         11    1    1    2    0    0 -0.33236251426E+02  0.10183779803E+02 -0.15641089317E+03  0.16022710533E+03  0.00000000000E+00 0.  1.
</event>
<event>
 7    1  0.2490079E-009  0.1666106E+03  0.7561462E-02  0.1181429E+00
         -4   -1    0    0    0  501 -0.00000000000E+00  0.00000000000E+00  0.50483560254E+03  0.50483560254E+03  0.00000000000E+00 0.  1.
          4   -1    0    0  501    0  0.00000000000E+00 -0.00000000000E+00 -0.58471056197E+02  0.58471056197E+02  0.00000000000E+00 0. -1.
         25    2    1    2    0    0 -0.84530369877E+02  0.10108193813E+03  0.20906649633E+03  0.27698203144E+03  0.12508918501E+03 0.  0.
          5    1    3    3  502    0 -0.26578900811E+02 -0.28793220698E+02  0.45552908884E+02  0.60233109120E+02  0.41800000000E+01 0. -1.
         -5    1    3    3    0  502 -0.57951469066E+02  0.12987515883E+03  0.16351358745E+03  0.21674892232E+03  0.41800000000E+01 0. -1.
        -11    1    1    2    0    0  0.34468140173E+02  0.44265954241E+01  0.10114355803E+03  0.10694702784E+03  0.00000000000E+00 0.  1.
         11    1    1    2    0    0  0.50062229704E+02 -0.10550853356E+03  0.13615449199E+03  0.17937759945E+03  0.00000000000E+00 0. -1.
</event>
<event>
 7    1  0.2490079E-009  0.1063009E+03  0.7561462E-02  0.1267578E+00
         -2   -1    0    0    0  501 -0.00000000000E+00  0.00000000000E+00  0.69270893672E+02  0.69270893672E+02  0.00000000000E+00 0.  1.
          2   -1    0    0  501    0  0.00000000000E+00 -0.00000000000E+00 -0.31666605239E+03  0.31666605239E+03  0.00000000000E+00 0. -1.
         25    2    1    2    0    0  0.49870209966E+02 -0.42920704538E+02 -0.26925658576E+02  0.14388137649E+03  0.12509050599E+03 0.  0.
          5    1    3    3  502    0  0.59247273953E+02 -0.72676462032E+02  0.11104971615E+02  0.94514022235E+02  0.41800000000E+01 0. -1.
         -5    1    3    3    0  502 -0.93770639869E+01  0.29755757494E+02 -0.38030630191E+02  0.49367354251E+02  0.41800000000E+01 0. -1.
        -11    1    1    2    0    0 -0.27743668626E+02  0.55330319747E+02 -0.90556767744E+02  0.10968903143E+03  0.00000000000E+00 0.  1.
         11    1    1    2    0    0 -0.22126541341E+02 -0.12409615209E+02 -0.12991273240E+03  0.13236653815E+03  0.00000000000E+00 0. -1.
</event>
<event>
 7    1  0.2490079E-009  0.3148580E+03  0.7561462E-02  0.1078040E+00
          1   -1    0    0  501    0  0.00000000000E+00  0.00000000000E+00  0.36220240832E+03  0.36220240832E+03  0.00000000000E+00 0. -1.
         -1   -1    0    0    0  501 -0.00000000000E+00 -0.00000000000E+00 -0.29597070866E+03  0.29597070866E+03  0.00000000000E+00 0.  1.
         25    2    1    2    0    0 -0.30129065524E+03 -0.12098898117E+02  0.10495824650E+03  0.34291148708E+03  0.12509841005E+03 0.  0.
          5    1    3    3  502    0 -0.17562437478E+03 -0.63968215294E+02  0.85247988695E+02  0.20547638687E+03  0.41800000000E+01 0. -1.
         -5    1    3    3    0  502 -0.12566628045E+03  0.51869317177E+02  0.19710257801E+02  0.13743510021E+03  0.41800000000E+01 0. -1.
        -11    1    1    2    0    0  0.17253603914E+03  0.34779606053E+02  0.86145201119E+01  0.17621724023E+03  0.00000000000E+00 0. -1.
         11    1    1    2    0    0  0.12875461610E+03 -0.22680707936E+02 -0.47341066951E+02  0.13904438967E+03  0.00000000000E+00 0.  1.
</event>
<event>
 7    1  0.2490079E-009  0.9751349E+02  0.7561462E-02  0.1285613E+00
          1   -1    0    0  501    0  0.00000000000E+00  0.00000000000E+00  0.14798425794E+03  0.14798425794E+03  0.00000000000E+00 0. -1.
         -1   -1    0    0    0  501 -0.00000000000E+00 -0.00000000000E+00 -0.89781061640E+02  0.89781061640E+02  0.00000000000E+00 0.  1.
         25    2    1    2    0    0 -0.34263270786E+02  0.69773492179E+01  0.47998281432E+02  0.13847009235E+03  0.12508987300E+03 0.  0.
          5    1    3    3  502    0 -0.19854706903E+02  0.48602971965E+02 -0.20837329491E+02  0.56640312238E+02  0.41800000000E+01 0. -1.
         -5    1    3    3    0  502 -0.14408563883E+02 -0.41625622747E+02  0.68835610923E+02  0.81829780113E+02  0.41800000000E+01 0. -1.
        -11    1    1    2    0    0 -0.27579258684E+02 -0.21042798085E+02 -0.18428073297E+01  0.34739182484E+02  0.00000000000E+00 0.  1.
         11    1    1    2    0    0  0.61842529470E+02  0.14065448867E+02  0.12047722201E+02  0.64556044747E+02  0.00000000000E+00 0. -1.
</event>
<event>
 7    1  0.2490079E-009  0.1071470E+03  0.7561462E-02  0.1265946E+00
         -2   -1    0    0    0  501 -0.00000000000E+00  0.00000000000E+00  0.30395722807E+02  0.30395722807E+02  0.00000000000E+00 0.  1.
          2   -1    0    0  501    0  0.00000000000E+00 -0.00000000000E+00 -0.51330113193E+03  0.51330113193E+03  0.00000000000E+00 0. -1.
         25    2    1    2    0    0  0.18690059123E+01  0.50661415492E+02 -0.41268774799E+03  0.43419851822E+03  0.12508838347E+03 0.  0.
          5    1    3    3  502    0 -0.59126044822E+02  0.28807191322E+02 -0.26115497394E+03  0.26934204325E+03  0.41800000000E+01 0.  1.
         -5    1    3    3    0  502  0.60995050734E+02  0.21854224169E+02 -0.15153277405E+03  0.16485647497E+03  0.41800000000E+01 0.  1.
        -11    1    1    2    0    0  0.17568320517E+02  0.96875885224E+01 -0.11732769562E+02  0.23241194865E+02  0.00000000000E+00 0.  1.
         11    1    1    2    0    0 -0.19437326429E+02 -0.60349004014E+02 -0.58484891574E+02  0.86257141656E+02  0.00000000000E+00 0. -1.
</event>
<event>
 7    1  0.2490079E-009  0.7040980E+02  0.7561462E-02  0.1358705E+00
         -1   -1    0    0    0  501 -0.00000000000E+00  0.00000000000E+00  0.52019743985E+02  0.52019743985E+02  0.00000000000E+00 0.  1.
          1   -1    0    0  501    0  0.00000000000E+00 -0.00000000000E+00 -0.24361795040E+03  0.24361795040E+03  0.00000000000E+00 0. -1.
         25    2    1    2    0    0 -0.16377448898E+00 -0.30406579537E+01 -0.13419562421E+03  0.18347160307E+03  0.12507634130E+03 0.  0.
          5    1    3    3  502    0 -0.40403317657E+02  0.82811474257E+01  0.14394646710E+01  0.41479512279E+02  0.41800000000E+01 0.  1.
         -5    1    3    3    0  502  0.40239543168E+02 -0.11321805379E+02 -0.13563508888E+03  0.14199209079E+03  0.41800000000E+01 0.  1.
        -11    1    1    2    0    0  0.64171333995E+01 -0.26445360668E+02  0.16864923208E+02  0.32015032981E+02  0.00000000000E+00 0.  1.
         11    1    1    2    0    0 -0.62533589105E+01  0.29486018622E+02 -0.74267505412E+02  0.80151058333E+02  0.00000000000E+00 0. -1.
</event>
<event>
 7    1  0.2490079E-009  0.1152958E+03  0.7561462E-02  0.1251066E+00
         -2   -1    0    0    0  501 -0.00000000000E+00  0.00000000000E+00  0.24878869644E+03  0.24878869644E+03  0.00000000000E+00 0.  1.
          2   -1    0    0  501    0  0.00000000000E+00 -0.00000000000E+00 -0.85815462653E+02  0.85815462653E+02  0.00000000000E+00 0. -1.
         25    2    1    2    0    0  0.15066650762E+02 -0.61502907267E+02  0.17006940374E+03  0.22041073172E+03  0.12509067512E+03 0.  0.
          5    1    3    3  502    0  0.61233087753E+02  0.68532431050E+00  0.89955376025E+02  0.10890088512E+03  0.41800000000E+01 0.  1.
         -5    1    3    3    0  502 -0.46166436992E+02 -0.62188231578E+02  0.80114027712E+02  0.11150984659E+03  0.41800000000E+01 0.  1.
        -11    1    1    2    0    0  0.23831006446E+02  0.72838315966E+01 -0.34077063835E+02  0.42216316165E+02  0.00000000000E+00 0. -1.
         11    1    1    2    0    0 -0.38897657208E+02  0.54219075671E+02  0.26980893882E+02  0.71977111206E+02  0.00000000000E+00 0.  1.
</event>
<event>
 7    1  0.2490079E-009  0.1279243E+03  0.7561462E-02  0.1230569E+00
         -1   -1    0    0    0  501 -0.00000000000E+00  0.00000000000E+00  0.14541610828E+03  0.14541610828E+03  0.00000000000E+00 0.  1.
          1   -1    0    0  501    0  0.00000000000E+00 -0.00000000000E+00 -0.12017035678E+03  0.12017035678E+03  0.00000000000E+00 0. -1.
         25    2    1    2    0    0  0.57719658838E+02  0.41609314713E+02  0.40061281344E+02  0.14938150509E+03  0.12508810380E+03 0.  0.
          5    1    3    3  502    0 -0.12388143338E+02 -0.34715989326E+02  0.24605646751E+02  0.44514899329E+02  0.41800000000E+01 0.  1.
         -5    1    3    3    0  502  0.70107802176E+02  0.76325304039E+02  0.15455634593E+02  0.10486660576E+03  0.41800000000E+01 0.  1.
        -11    1    1    2    0    0 -0.79790291103E+02 -0.46601947903E+02 -0.89901306800E+01  0.92838863372E+02  0.00000000000E+00 0.  1.
         11    1    1    2    0    0  0.22070632265E+02  0.49926331900E+01 -0.58253991623E+01  0.23366096596E+02  0.00000000000E+00 0. -1.
</event>
<event>
 7    1  0.2490079E-009  0.1436732E+03  0.7561462E-02  0.1208470E+00
          1   -1    0    0  501    0  0.00000000000E+00  0.00000000000E+00  0.10223778880E+03  0.10223778880E+03  0.00000000000E+00 0. -1.
         -1   -1    0    0    0  501 -0.00000000000E+00 -0.00000000000E+00 -0.35522470480E+03  0.35522470480E+03  0.00000000000E+00 0.  1.
         25    2    1    2    0    0 -0.13277446667E+03  0.48405125287E+02 -0.21402510758E+03  0.28535267353E+03  0.12508911408E+03 0.  0.
          5    1    3    3  502    0 -0.78142176405E+02  0.17177986327E+02 -0.21776127741E+02  0.83023822406E+02  0.41800000000E+01 0.  1.
         -5    1    3    3    0  502 -0.54632290265E+02  0.31227138960E+02 -0.19224897984E+03  0.20232885112E+03  0.41800000000E+01 0.  1.
        -11    1    1    2    0    0  0.11016248716E+03 -0.51014991197E+02 -0.64851109496E+02  0.13763709278E+03  0.00000000000E+00 0.  1.
         11    1    1    2    0    0  0.22611979506E+02  0.26098659106E+01  0.25889301074E+02  0.34472727298E+02  0.00000000000E+00 0. -1.
</event>
<event>
 7    1  0.2490079E-009  0.7096689E+02  0.7561462E-02  0.1356836E+00
         -2   -1    0    0    0  501 -0.00000000000E+00  0.00000000000E+00  0.10308673901E+03  0.10308673901E+03  0.00000000000E+00 0.  1.
          2   -1    0    0  501    0  0.00000000000E+00 -0.00000000000E+00 -0.14259962577E+03  0.14259962577E+03  0.00000000000E+00 0. -1.
         25    2    1    2    0    0  0.28932756557E+02  0.39353689688E+02  0.15230264209E+02  0.13514991066E+03  0.12509084743E+03 0.  0.
          5    1    3    3  502    0  0.36286668680E+02  0.22424649277E+02 -0.50797340140E+02  0.66463744887E+02  0.41800000000E+01 0. -1.
         -5    1    3    3    0  502 -0.73539121228E+01  0.16929040411E+02  0.66027604349E+02  0.68686165775E+02  0.41800000000E+01 0. -1.
        -11    1    1    2    0    0  0.77347545551E+01  0.13654875830E+02  0.10454552701E+02  0.18856821952E+02  0.00000000000E+00 0.  1.
         11    1    1    2    0    0 -0.36667511112E+02 -0.53008565518E+02 -0.65197703670E+02  0.91679632161E+02  0.00000000000E+00 0. -1.
</event>
<event>
 7    1  0.2490079E-009  0.1198653E+03  0.7561462E-02  0.1243319E+00
          2   -1    0    0  501    0  0.00000000000E+00  0.00000000000E+00  0.35212284158E+03  0.35212284158E+03  0.00000000000E+00 0. -1.
         -2   -1    0    0    0  501 -0.00000000000E+00 -0.00000000000E+00 -0.44837396282E+02  0.44837396282E+02  0.00000000000E+00 0.  1.
         25    2    1    2    0    0 -0.37137467859E+02 -0.51228150292E+02  0.15860537320E+03  0.21167544733E+03  0.12508923093E+03 0.  0.
          5    1    3    3  502    0  0.38047273352E+02  0.14369978906E+01  0.87402443894E+02  0.95427037946E+02  0.41800000000E+01 0.  1.
         -5    1    3    3    0  502 -0.75184741211E+02 -0.52665148182E+02  0.71202929304E+02  0.11624840939E+03  0.41800000000E+01 0.  1.
        -11    1    1    2    0    0  0.50986735847E+02 -0.53704437370E+01  0.82256973237E+02  0.96926253122E+02  0.00000000000E+00 0. -1.
         11    1    1    2    0    0 -0.13849267988E+02  0.56598594029E+02  0.66423098866E+02  0.88358537408E+02  0.00000000000E+00 0.  1.
</event>
<event>
 7    1  0.2490079E-009  0.1046427E+03  0.7561462E-02  0.1270825E+00
          1   -1    0    0  501    0  0.00000000000E+00  0.00000000000E+00  0.96212150956E+03  0.96212150956E+03  0.00000000000E+00 0. -1.
         -1   -1    0    0    0  501 -0.00000000000E+00 -0.00000000000E+00 -0.24211527198E+02  0.24211527198E+02  0.00000000000E+00 0.  1.
         25    2    1    2    0    0 -0.14514119247E+02  0.92606985568E+02  0.68437084476E+03  0.70199278468E+03  0.12507479024E+03 0.  0.
          5    1    3    3  502    0 -0.80734083929E+01  0.89398399003E+02  0.22131267747E+03  0.23885984861E+03  0.41800000000E+01 0.  1.
         -5    1    3    3    0  502 -0.64407108541E+01  0.32085865654E+01  0.46305816729E+03  0.46313293607E+03  0.41800000000E+01 0.  1.
        -11    1    1    2    0    0  0.37550863298E+02 -0.48437728758E+02  0.65029468305E+02  0.89359457528E+02  0.00000000000E+00 0.  1.
         11    1    1    2    0    0 -0.23036744051E+02 -0.44169256810E+02  0.18850966930E+03  0.19498079455E+03  0.00000000000E+00 0. -1.
</event>
<event>
 7    1  0.2490079E-009  0.9672198E+02  0.7561462E-02  0.1287344E+00
          1   -1    0    0  501    0  0.00000000000E+00  0.00000000000E+00  0.54020096601E+03  0.54020096601E+03  0.00000000000E+00 0. -1.
         -1   -1    0    0    0  501 -0.00000000000E+00 -0.00000000000E+00 -0.22928488168E+02  0.22928488168E+02  0.00000000000E+00 0.  1.
         25    2    1    2    0    0  0.14997831902E+02  0.97796292695E+01  0.23699592959E+03  0.26858085320E+03  0.12509207791E+03 0.  0.
          5    1    3    3  502    0  0.45814434727E+02 -0.30060489208E+02  0.19583494200E+03  0.20339958788E+03  0.41800000000E+01 0.  1.
         -5    1    3    3    0  502 -0.30816602825E+02  0.39840118478E+02  0.41160987586E+02  0.65181265322E+02  0.41800000000E+01 0.  1.
        -11    1    1    2    0    0  0.33621207144E+02 -0.18768395080E+02  0.15866424379E+03  0.16326965573E+03  0.00000000000E+00 0. -1.
         11    1    1    2    0    0 -0.48619039046E+02  0.89887658102E+01  0.12161230447E+03  0.13127894525E+03  0.00000000000E+00 0.  1.
</event>
<event>
 7    1  0.2490079E-009  0.1714726E+03  0.7561462E-02  0.1176321E+00
         -2   -1    0    0    0  501 -0.00000000000E+00  0.00000000000E+00  0.24770285487E+02  0.24770285487E+02  0.00000000000E+00 0. -1.
          2   -1    0    0  501    0  0.00000000000E+00 -0.00000000000E+00 -0.13641616937E+04  0.13641616937E+04  0.00000000000E+00 0.  1.
         25    2    1    2    0    0 -0.15819271421E+02  0.14668093298E+03 -0.70677578015E+03  0.73276539104E+03  0.12509024526E+03 0.  0.
          5    1    3    3  502    0  0.32999368444E+02  0.84267683385E+02 -0.54611310096E+03  0.55357654595E+03  0.41800000000E+01 0.  1.
         -5    1    3    3    0  502 -0.48818639865E+02  0.62413249596E+02 -0.16066267919E+03  0.17918884509E+03  0.41800000000E+01 0.  1.
        -11    1    1    2    0    0  0.33890864047E+02 -0.10289529736E+02 -0.16346515463E+03  0.16725824902E+03  0.00000000000E+00 0.  1.
         11    1    1    2    0    0 -0.18071592626E+02 -0.13639140324E+03 -0.46915047346E+03  0.48890833914E+03  0.00000000000E+00 0. -1.
</event>
<event>
 7    1  0.2490079E-009  0.8326629E+02  0.7561462E-02  0.1320030E+00
          1   -1    0    0  501    0  0.00000000000E+00  0.00000000000E+00  0.52190400428E+03  0.52190400428E+03  0.00000000000E+00 0. -1.
         -1   -1    0    0    0  501 -0.00000000000E+00 -0.00000000000E+00 -0.32178706069E+02  0.32178706069E+02  0.00000000000E+00 0.  1.
         25    2    1    2    0    0 -0.33292117354E+02 -0.54772705993E+02  0.44432326238E+03  0.46602362446E+03  0.12508574123E+03 0.  0.
          5    1    3    3  502    0 -0.40209464038E+02 -0.67787607195E+02  0.44372700287E+03  0.45069178622E+03  0.41800000000E+01 0. -1.
         -5    1    3    3    0  502  0.69173466834E+01  0.13014901202E+02  0.59625951171E+00  0.15331838241E+02  0.41800000000E+01 0. -1.
        -11    1    1    2    0    0  0.23103775061E+02  0.80516929598E+01  0.39677689851E+01  0.24786233524E+02  0.00000000000E+00 0.  1.
         11    1    1    2    0    0  0.10188342293E+02  0.46721013034E+02  0.41434266838E+02  0.63272852361E+02  0.00000000000E+00 0. -1.
</event>
<event>
 7    1  0.2490079E-009  0.9327276E+02  0.7561462E-02  0.1295114E+00
          2   -1    0    0  501    0  0.00000000000E+00  0.00000000000E+00  0.28457890449E+03  0.28457890449E+03  0.00000000000E+00 0. -1.
         -2   -1    0    0    0  501 -0.00000000000E+00 -0.00000000000E+00 -0.80034268178E+02  0.80034268178E+02  0.00000000000E+00 0.  1.
         25    2    1    2    0    0  0.68612681523E+02  0.49847431132E+02  0.19684486078E+03  0.24816882163E+03  0.12508956135E+03 0.  0.
          5    1    3    3  502    0  0.27825164967E+02 -0.34684912226E+01 -0.10465978722E+02  0.30220512031E+02  0.41800000000E+01 0.  1.
         -5    1    3    3    0  502  0.40787516556E+02  0.53315922354E+02  0.20731083950E+03  0.21794830960E+03  0.41800000000E+01 0.  1.
        -11    1    1    2    0    0 -0.52626679499E+02 -0.18562818165E+02  0.40048160441E+02  0.68687704635E+02  0.00000000000E+00 0. -1.
         11    1    1    2    0    0 -0.15986002024E+02 -0.31284612967E+02 -0.32348384909E+02  0.47756646400E+02  0.00000000000E+00 0.  1.
</event>
<event>
 7    1  0.2490079E-009  0.1078598E+03  0.7561462E-02  0.1264585E+00
          1   -1    0    0  501    0  0.00000000000E+00  0.00000000000E+00  0.85026693448E+03  0.85026693448E+03  0.00000000000E+00 0. -1.
         -1   -1    0    0    0  501 -0.00000000000E+00 -0.00000000000E+00 -0.15202920399E+02  0.15202920399E+02  0.00000000000E+00 0.  1.
         25    2    1    2    0    0  0.28565619900E+02 -0.16788183574E+02  0.53757936099E+03  0.55293467971E+03  0.12508937968E+03 0.  0.
          5    1    3    3  502    0  0.61857114270E+02  0.30688721098E+02  0.24205968940E+03  0.25175080103E+03  0.41800000000E+01 0.  1.
         -5    1    3    3    0  502 -0.33291494370E+02 -0.47476904672E+02  0.29551967159E+03  0.30118387868E+03  0.41800000000E+01 0.  1.
        -11    1    1    2    0    0 -0.64062999807E+01  0.48939641450E+02  0.22342580059E+03  0.22881262542E+03  0.00000000000E+00 0. -1.
         11    1    1    2    0    0 -0.22159319919E+02 -0.32151457876E+02  0.74058852494E+02  0.83722549744E+02  0.00000000000E+00 0.  1.
</event>
<event>
 7    1  0.2490079E-009  0.1026703E+03  0.7561462E-02  0.1274779E+00
         -1   -1    0    0    0  501 -0.00000000000E+00  0.00000000000E+00  0.45983261906E+03  0.45983261906E+03  0.00000000000E+00 0.  1.
          1   -1    0    0  501    0  0.00000000000E+00 -0.00000000000E+00 -0.29082376252E+02  0.29082376252E+02  0.00000000000E+00 0. -1.
         25    2    1    2    0    0 -0.36685370903E+02  0.13508442369E+02  0.21570755208E+03  0.25239842329E+03  0.12508765566E+03 0.  0.
          5    1    3    3  502    0  0.28032350115E+01 -0.48436832714E+02  0.13332735144E+03  0.14194238244E+03  0.41800000000E+01 0. -1.
         -5    1    3    3    0  502 -0.39488605914E+02  0.61945275083E+02  0.82380200644E+02  0.11045604085E+03  0.41800000000E+01 0. -1.
        -11    1    1    2    0    0  0.22832599208E+02  0.29829367115E+02  0.36904392793E+02  0.52659784813E+02  0.00000000000E+00 0.  1.
         11    1    1    2    0    0  0.13852771695E+02 -0.43337809484E+02  0.17813829793E+03  0.18385678721E+03  0.00000000000E+00 0. -1.
</event>
<event>
 7    1  0.2490079E-009  0.9811456E+02  0.7561462E-02  0.1284311E+00
          2   -1    0    0  501    0  0.00000000000E+00  0.00000000000E+00  0.12819515286E+03  0.12819515286E+03  0.00000000000E+00 0. -1.
         -2   -1    0    0    0  501 -0.00000000000E+00 -0.00000000000E+00 -0.99338658960E+02  0.99338658960E+02  0.00000000000E+00 0.  1.
         25    2    1    2    0    0 -0.14651836143E+01 -0.24797349860E+02 -0.28334568077E+01  0.12756374121E+03  0.12508966492E+03 0.  0.
          5    1    3    3  502    0  0.33580382332E+02  0.26702764014E+02  0.34153777288E+02  0.54996659776E+02  0.41800000000E+01 0.  1.
         -5    1    3    3    0  502 -0.35045565946E+02 -0.51500113873E+02 -0.36987234095E+02  0.72567081431E+02  0.41800000000E+01 0.  1.
        -11    1    1    2    0    0 -0.16841260065E+02 -0.29180563374E+02 -0.20160083052E+01  0.33752001554E+02  0.00000000000E+00 0.  1.
         11    1    1    2    0    0  0.18306443679E+02  0.53977913233E+02  0.33705959017E+02  0.66218069063E+02  0.00000000000E+00 0. -1.
</event>
<event>
 7    1  0.2490079E-009  0.9692817E+02  0.7561462E-02  0.1286891E+00
          1   -1    0    0  501    0  0.00000000000E+00  0.00000000000E+00  0.25710407695E+03  0.25710407695E+03  0.00000000000E+00 0. -1.
         -1   -1    0    0    0  501 -0.00000000000E+00 -0.00000000000E+00 -0.48733793627E+02  0.48733793627E+02  0.00000000000E+00 0.  1.
         25    2    1    2    0    0 -0.21856804225E+01 -0.17049812928E+02  0.83129653692E+02  0.15117779509E+03  0.12509481638E+03 0.  0.
          5    1    3    3  502    0 -0.15052238920E+02  0.52830693682E+02  0.36443585245E+02  0.66054972537E+02  0.41800000000E+01 0. -1.
         -5    1    3    3    0  502  0.12866558498E+02 -0.69880506610E+02  0.46686068447E+02  0.85122822548E+02  0.41800000000E+01 0. -1.
        -11    1    1    2    0    0  0.18581433455E+02  0.37215530618E+02  0.12147402854E+03  0.12839861759E+03  0.00000000000E+00 0. -1.
         11    1    1    2    0    0 -0.16395753033E+02 -0.20165717690E+02  0.37666010894E+01  0.26261457904E+02  0.00000000000E+00 0.  1.
</event>
<event>
 7    1  0.2490079E-009  0.1340894E+03  0.7561462E-02  0.1221511E+00
          2   -1    0    0  501    0  0.00000000000E+00  0.00000000000E+00  0.48199127175E+03  0.48199127175E+03  0.00000000000E+00 0.  1.
         -2   -1    0    0    0  501 -0.00000000000E+00 -0.00000000000E+00 -0.57987277674E+02  0.57987277674E+02  0.00000000000E+00 0. -1.
         25    2    1    2    0    0 -0.13056646899E+02 -0.11731924546E+03  0.14652708325E+03  0.22594692571E+03  0.12509015041E+03 0.  0.
          5    1    3    3  502    0 -0.10901243942E+02 -0.11620641305E+03  0.46348750218E+02  0.12565208553E+03  0.41800000000E+01 0. -1.
         -5    1    3    3    0  502 -0.21554029573E+01 -0.11128324191E+01  0.10017833303E+03  0.10029484018E+03  0.41800000000E+01 0. -1.
        -11    1    1    2    0    0  0.50298902266E+02  0.61459550347E+02  0.13751115760E+03  0.15879727442E+03  0.00000000000E+00 0.  1.
         11    1    1    2    0    0 -0.37242255367E+02  0.55859695118E+02  0.13996575323E+03  0.15523434929E+03  0.00000000000E+00 0. -1.
</event>
<event>
 7    1  0.2490079E-009  0.1166466E+03  0.7561462E-02  0.1248734E+00
         -2   -1    0    0    0  501 -0.00000000000E+00  0.00000000000E+00  0.36001924782E+03  0.36001924782E+03  0.00000000000E+00 0.  1.
          2   -1    0    0  501    0  0.00000000000E+00 -0.00000000000E+00 -0.48714478337E+02  0.48714478337E+02  0.00000000000E+00 0. -1.
         25    2    1    2    0    0 -0.59813905912E+02 -0.24392446883E+02  0.11008070278E+03  0.17871409456E+03  0.12509305202E+03 0.  0.
          5    1    3    3  502    0 -0.33288065147E+02 -0.72719065301E+02  0.88524272276E+02  0.11937410490E+03  0.41800000000E+01 0. -1.
         -5    1    3    3    0  502 -0.26525840765E+02  0.48326618418E+02  0.21556430501E+02  0.59339989653E+02  0.41800000000E+01 0. -1.
        -11    1    1    2    0    0  0.28958162608E+02  0.50029181239E+02  0.16884651221E+03  0.17846747279E+03  0.00000000000E+00 0.  1.
         11    1    1    2    0    0  0.30855743304E+02 -0.25636734357E+02  0.32377554493E+02  0.51552158813E+02  0.00000000000E+00 0. -1.
</event>
<event>
 7    1  0.2490079E-009  0.1151902E+03  0.7561462E-02  0.1251249E+00
          1   -1    0    0  501    0  0.00000000000E+00  0.00000000000E+00  0.83854834801E+02  0.83854834801E+02  0.00000000000E+00 0. -1.
         -1   -1    0    0    0  501 -0.00000000000E+00 -0.00000000000E+00 -0.24890518888E+03  0.24890518888E+03  0.00000000000E+00 0.  1.
         25    2    1    2    0    0  0.83435731575E+02  0.33293525671E+02 -0.12675948805E+03  0.19946272762E+03  0.12508969480E+03 0.  0.
          5    1    3    3  502    0  0.10414804471E+03  0.23952411957E+02 -0.13732573881E+03  0.17405850797E+03  0.41800000000E+01 0.  1.
         -5    1    3    3    0  502 -0.20712313136E+02  0.93411137137E+01  0.10566250765E+02  0.25404219651E+02  0.41800000000E+01 0.  1.
        -11    1    1    2    0    0 -0.46206813921E+02  0.55343705461E+01 -0.59445582416E+02  0.75494875182E+02  0.00000000000E+00 0.  1.
         11    1    1    2    0    0 -0.37228917654E+02 -0.38827896217E+02  0.21154716383E+02  0.57802420880E+02  0.00000000000E+00 0. -1.
</event>
<event>
 7    1  0.2490079E-009  0.1359975E+03  0.7561462E-02  0.1218818E+00
         -2   -1    0    0    0  501 -0.00000000000E+00  0.00000000000E+00  0.24095694737E+02  0.24095694737E+02  0.00000000000E+00 0.  1.
          2   -1    0    0  501    0  0.00000000000E+00 -0.00000000000E+00 -0.90975036516E+03  0.90975036516E+03  0.00000000000E+00 0. -1.
         25    2    1    2    0    0 -0.83605793194E+02  0.33543087072E+02 -0.62444759561E+03  0.64319333156E+03  0.12509114580E+03 0.  0.
          5    1    3    3  502    0 -0.27465633215E+02  0.72922836953E+02 -0.23186200861E+03  0.24464170658E+03  0.41800000000E+01 0.  1.
         -5    1    3    3    0  502 -0.56140159979E+02 -0.39379749881E+02 -0.39258558700E+03  0.39855162499E+03  0.41800000000E+01 0.  1.
        -11    1    1    2    0    0  0.99979872407E+02 -0.15985997281E+02 -0.18689444367E+03  0.21255836862E+03  0.00000000000E+00 0.  1.
         11    1    1    2    0    0 -0.16374079213E+02 -0.17557089791E+02 -0.74312631137E+02  0.78094359710E+02  0.00000000000E+00 0. -1.
</event>
<event>
 7    1  0.2490079E-009  0.1370891E+03  0.7561462E-02  0.1217300E+00
          2   -1    0    0  501    0  0.00000000000E+00  0.00000000000E+00  0.52391371367E+03  0.52391371367E+03  0.00000000000E+00 0. -1.
         -2   -1    0    0    0  501 -0.00000000000E+00 -0.00000000000E+00 -0.55833193104E+02  0.55833193104E+02  0.00000000000E+00 0.  1.
         25    2    1    2    0    0 -0.23673720711E+02  0.11004836363E+03  0.13273925263E+03  0.21433880415E+03  0.12510126452E+03 0.  0.
          5    1    3    3  502    0  0.25847068457E+02  0.27883925674E+02 -0.12487367669E+02  0.40236687365E+02  0.41800000000E+01 0.  1.
         -5    1    3    3    0  502 -0.49520789168E+02  0.82164437959E+02  0.14522662030E+03  0.17410211678E+03  0.41800000000E+01 0.  1.
        -11    1    1    2    0    0 -0.28196551544E+02 -0.15793361189E+02  0.12550492840E+03  0.12959923931E+03  0.00000000000E+00 0. -1.
         11    1    1    2    0    0  0.51870272255E+02 -0.94255002444E+02  0.20983633954E+03  0.23580886332E+03  0.00000000000E+00 0.  1.
</event>
<event>
 7    1  0.3027277E-009  0.1555856E+03  0.7561462E-02  0.1193773E+00
          1   -1    0    0  501    0  0.00000000000E+00  0.00000000000E+00  0.50729585810E+03  0.50729585810E+03  0.00000000000E+00 0. -1.
         -1   -1    0    0    0  501 -0.00000000000E+00 -0.00000000000E+00 -0.61816279461E+02  0.61816279461E+02  0.00000000000E+00 0.  1.
         25    2    1    2    0    0 -0.10380011333E+03 -0.93043334902E+02  0.25355029360E+03  0.31522517266E+03  0.12509049682E+03 0.  0.
          5    1    3    3  502    0 -0.85285290718E+02 -0.93798409196E+01  0.18982618997E+03  0.20835790608E+03  0.41800000000E+01 0. -1.
         -5    1    3    3    0  502 -0.18514822607E+02 -0.83663493982E+02  0.63724103629E+02  0.10686726657E+03  0.41800000000E+01 0. -1.
        -11    1    1    2    0    0  0.20333760247E+02  0.20855380165E+02  0.11682516686E+03  0.12040152947E+03  0.00000000000E+00 0. -1.
         11    1    1    2    0    0  0.83466353078E+02  0.72187954737E+02  0.75104118185E+02  0.13348543544E+03  0.00000000000E+00 0.  1.
</event>
<event>
 7    1  0.2490079E-009  0.1588726E+03  0.7561462E-02  0.1189975E+00
         -1   -1    0    0    0  501 -0.00000000000E+00  0.00000000000E+00  0.12209499604E+03  0.12209499604E+03  0.00000000000E+00 0.  1.
          1   -1    0    0  501    0  0.00000000000E+00 -0.00000000000E+00 -0.52377151342E+03  0.52377151342E+03  0.00000000000E+00 0. -1.
         25    2    1    2    0    0 -0.60640777938E+02  0.13116834082E+03 -0.42042663469E+03  0.46183187052E+03  0.12509070266E+03 0.  0.
          5    1    3    3  502    0 -0.35361147371E+02  0.13367736108E+03 -0.22083801692E+03  0.26058961937E+03  0.41800000000E+01 0.  1.
         -5    1    3    3    0  502 -0.25279630567E+02 -0.25090202585E+01 -0.19958861777E+03  0.20124225115E+03  0.41800000000E+01 0.  1.
        -11    1    1    2    0    0  0.19602581633E+02 -0.10059349908E+03 -0.36437964955E+02  0.10877057761E+03  0.00000000000E+00 0. -1.
         11    1    1    2    0    0  0.41038196305E+02 -0.30574841736E+02  0.55188082263E+02  0.75264061324E+02  0.00000000000E+00 0.  1.
</event>
<event>
 7    1  0.2490079E-009  0.1270635E+03  0.7561462E-02  0.1231879E+00
         -1   -1    0    0    0  501 -0.00000000000E+00  0.00000000000E+00  0.46689299202E+02  0.46689299202E+02  0.00000000000E+00 0.  1.
          1   -1    0    0  501    0  0.00000000000E+00 -0.00000000000E+00 -0.44330179785E+03  0.44330179785E+03  0.00000000000E+00 0. -1.
         25    2    1    2    0    0  0.93653894583E+02  0.27259587431E+01 -0.23826375472E+03  0.28494995749E+03  0.12509347959E+03 0.  0.
          5    1    3    3  502    0  0.74060923015E+02 -0.37221585768E+02 -0.22264358001E+03  0.23760913889E+03  0.41800000000E+01 0. -1.
         -5    1    3    3    0  502  0.19592971568E+02  0.39947544511E+02 -0.15620174711E+02  0.47340818596E+02  0.41800000000E+01 0. -1.
        -11    1    1    2    0    0 -0.10156624879E+03  0.18994369801E+02 -0.14590833758E+03  0.17878963044E+03  0.00000000000E+00 0.  1.
         11    1    1    2    0    0  0.79123542079E+01 -0.21720328544E+02 -0.12440406342E+02  0.26251509121E+02  0.00000000000E+00 0. -1.
</event>
<event>
 7    1  0.2490079E-009  0.1778433E+03  0.7561462E-02  0.1169907E+00
          4   -1    0    0  501    0  0.00000000000E+00  0.00000000000E+00  0.11521550064E+03  0.11521550064E+03  0.00000000000E+00 0. -1.
         -4   -1    0    0    0  501 -0.00000000000E+00 -0.00000000000E+00 -0.33973211848E+03  0.33973211848E+03  0.00000000000E+00 0.  1.
         25    2    1    2    0    0  0.97951491461E+01 -0.15577014415E+03 -0.57750813317E+02  0.20818759898E+03  0.12508651876E+03 0.  0.
          5    1    3    3  502    0 -0.25035045815E+02 -0.15370317103E+03 -0.70247691359E+02  0.17089069268E+03  0.41800000000E+01 0. -1.
         -5    1    3    3    0  502  0.34830194962E+02 -0.20669731195E+01  0.12496878042E+02  0.37296906303E+02  0.41800000000E+01 0. -1.
        -11    1    1    2    0    0 -0.29485167732E+02  0.58416331762E+02 -0.17969344395E+02  0.67858236573E+02  0.00000000000E+00 0. -1.
         11    1    1    2    0    0  0.19690018586E+02  0.97353812384E+02 -0.14879646012E+03  0.17890178357E+03  0.00000000000E+00 0.  1.
</event>
<event>
 7    1  0.2490079E-009  0.1223699E+03  0.7561462E-02  0.1239238E+00
         -2   -1    0    0    0  501 -0.00000000000E+00  0.00000000000E+00  0.20795542277E+02  0.20795542277E+02  0.00000000000E+00 0.  1.
          2   -1    0    0  501    0  0.00000000000E+00 -0.00000000000E+00 -0.73101205516E+03  0.73101205516E+03  0.00000000000E+00 0. -1.
         25    2    1    2    0    0 -0.43454765954E+02 -0.37671360006E+02 -0.43952544995E+03  0.46058411329E+03  0.12509059202E+03 0.  0.
          5    1    3    3  502    0 -0.63017792398E+02 -0.73123246965E+02 -0.32377323315E+03  0.33788286478E+03  0.41800000000E+01 0.  1.
         -5    1    3    3    0  502  0.19563026444E+02  0.35451886959E+02 -0.11575221680E+03  0.12270124851E+03  0.41800000000E+01 0.  1.
        -11    1    1    2    0    0  0.13756473217E+02  0.65369727824E+02 -0.16892221577E+03  0.18165119557E+03  0.00000000000E+00 0. -1.
         11    1    1    2    0    0  0.29698292736E+02 -0.27698367819E+02 -0.10176884717E+03  0.10957228858E+03  0.00000000000E+00 0.  1.
</event>
<event>
 7    1  0.2490079E-009  0.9419503E+02  0.7561462E-02  0.1292999E+00
         -2   -1    0    0    0  501 -0.00000000000E+00  0.00000000000E+00  0.54056213014E+02  0.54056213014E+02  0.00000000000E+00 0.  1.
          2   -1    0    0  501    0  0.00000000000E+00 -0.00000000000E+00 -0.24129051252E+03  0.24129051252E+03  0.00000000000E+00 0. -1.
         25    2    1    2    0    0 -0.13446241894E+02 -0.30088373989E+02 -0.82990903615E+02  0.15368921253E+03  0.12508705886E+03 0.  0.
          5    1    3    3  502    0  0.29840380812E+02  0.21927692352E+02 -0.77099601215E+02  0.85633480173E+02  0.41800000000E+01 0.  1.
         -5    1    3    3    0  502 -0.43286622706E+02 -0.52016066342E+02 -0.58913023995E+01  0.68055732359E+02  0.41800000000E+01 0.  1.
        -11    1    1    2    0    0 -0.85235987767E+01  0.51764099377E+02 -0.28134669813E+02  0.59529264785E+02  0.00000000000E+00 0.  1.
         11    1    1    2    0    0  0.21969840670E+02 -0.21675725387E+02 -0.76108726080E+02  0.82128248220E+02  0.00000000000E+00 0. -1.
</event>
<event>
 7    1  0.2490079E-009  0.8992756E+02  0.7561462E-02  0.1303027E+00
         -2   -1    0    0    0  501 -0.00000000000E+00  0.00000000000E+00  0.22378365430E+02  0.22378365430E+02  0.00000000000E+00 0.  1.
          2   -1    0    0  501    0  0.00000000000E+00 -0.00000000000E+00 -0.52973522938E+03  0.52973522938E+03  0.00000000000E+00 0. -1.
         25    2    1    2    0    0  0.11316358968E+02 -0.11577763347E+01 -0.30105762526E+03  0.32621084133E+03  0.12509364031E+03 0.  0.
          5    1    3    3  502    0  0.38254405491E+02  0.29627774178E+02 -0.42904711306E+02  0.64803481346E+02  0.41800000000E+01 0.  1.
         -5    1    3    3    0  502 -0.26938046523E+02 -0.30785550513E+02 -0.25815291395E+03  0.26140735998E+03  0.41800000000E+01 0.  1.
        -11    1    1    2    0    0  0.38580954202E+02 -0.80938932856E+01 -0.68184822438E+02  0.78760212967E+02  0.00000000000E+00 0.  1.
         11    1    1    2    0    0 -0.49897313170E+02  0.92516696203E+01 -0.13811441625E+03  0.14714254052E+03  0.00000000000E+00 0. -1.
</event>
<event>
 7    1  0.3528549E-009  0.1127857E+03  0.7561462E-02  0.1255497E+00
          1   -1    0    0  501    0  0.00000000000E+00  0.00000000000E+00  0.87618768444E+03  0.87618768444E+03  0.00000000000E+00 0. -1.
         -1   -1    0    0    0  501 -0.00000000000E+00 -0.00000000000E+00 -0.22605537873E+02  0.22605537873E+02  0.00000000000E+00 0.  1.
         25    2    1    2    0    0 -0.70838331246E+02 -0.23722673434E+01  0.63936008867E+03  0.65532386427E+03  0.12507736515E+03 0.  0.
          5    1    3    3  502    0 -0.92809689895E+02 -0.44305511282E+01  0.27560445869E+03  0.29087550322E+03  0.41800000000E+01 0.  1.
         -5    1    3    3    0  502  0.21971358649E+02  0.20582837848E+01  0.36375562998E+03  0.36444836105E+03  0.41800000000E+01 0.  1.
        -11    1    1    2    0    0  0.19613991118E+02  0.41329002365E+02  0.53800354240E+02  0.70620628717E+02  0.00000000000E+00 0.  1.
         11    1    1    2    0    0  0.51224340128E+02 -0.38956735021E+02  0.16042170366E+03  0.17284872933E+03  0.00000000000E+00 0. -1.
</event>
<event>
 7    1  0.2490079E-009  0.1595973E+03  0.7561462E-02  0.1189152E+00
          2   -1    0    0  501    0  0.00000000000E+00  0.00000000000E+00  0.16914543988E+03  0.16914543988E+03  0.00000000000E+00 0. -1.
         -2   -1    0    0    0  501 -0.00000000000E+00 -0.00000000000E+00 -0.18314530428E+03  0.18314530428E+03  0.00000000000E+00 0.  1.
         25    2    1    2    0    0  0.12373169872E+03 -0.24602568386E+02  0.50481811527E+02  0.18469163085E+03  0.12509102915E+03 0.  0.
          5    1    3    3  502    0  0.78764821759E+01 -0.50942845487E+02  0.39931360514E+02  0.65339103378E+02  0.41800000000E+01 0. -1.
         -5    1    3    3    0  502  0.11585521655E+03  0.26340277101E+02  0.10550451013E+02  0.11935252748E+03  0.41800000000E+01 0. -1.
        -11    1    1    2    0    0 -0.83859105692E+02 -0.22552759723E+02 -0.14259193054E+02  0.88001711149E+02  0.00000000000E+00 0. -1.
         11    1    1    2    0    0 -0.39872593029E+02  0.47155328109E+02 -0.50222482872E+02  0.79597402155E+02  0.00000000000E+00 0.  1.
</event>
<event>
 7    1  0.2490079E-009  0.9442870E+02  0.7561462E-02  0.1292468E+00
         -2   -1    0    0    0  501 -0.00000000000E+00  0.00000000000E+00  0.15171036694E+03  0.15171036694E+03  0.00000000000E+00 0.  1.
          2   -1    0    0  501    0  0.00000000000E+00 -0.00000000000E+00 -0.88278524189E+02  0.88278524189E+02  0.00000000000E+00 0. -1.
         25    2    1    2    0    0 -0.15322890143E+02  0.31458993342E+02  0.15311265490E+02  0.13079256597E+03  0.12509117170E+03 0.  0.
          5    1    3    3  502    0 -0.47252900007E+02  0.54977291870E+02  0.40969676304E+02  0.83374612184E+02  0.41800000000E+01 0.  1.
         -5    1    3    3    0  502  0.31930009864E+02 -0.23518298529E+02 -0.25658410814E+02  0.47417953784E+02  0.41800000000E+01 0.  1.
        -11    1    1    2    0    0 -0.75566905073E+01  0.19280072375E+02 -0.14602329950E+02  0.25338760865E+02  0.00000000000E+00 0. -1.
         11    1    1    2    0    0  0.22879580650E+02 -0.50739065717E+02  0.62722907216E+02  0.83857564299E+02  0.00000000000E+00 0.  1.
</event>
<event>
 7    1  0.2490079E-009  0.2225339E+03  0.7561462E-02  0.1132008E+00
         -1   -1    0    0    0  501 -0.00000000000E+00  0.00000000000E+00  0.11486184616E+03  0.11486184616E+03  0.00000000000E+00 0.  1.
          1   -1    0    0  501    0  0.00000000000E+00 -0.00000000000E+00 -0.57536192069E+03  0.57536192069E+03  0.00000000000E+00 0. -1.
         25    2    1    2    0    0  0.18576930609E+03  0.12062035810E+03 -0.13712448567E+03  0.28898633007E+03  0.12510183261E+03 0.  0.
          5    1    3    3  502    0  0.49292196540E+02  0.19911337052E+02 -0.10291211735E+03  0.11590754195E+03  0.41800000000E+01 0.  1.
         -5    1    3    3    0  502  0.13647710955E+03  0.10070902104E+03 -0.34212368319E+02  0.17307878812E+03  0.41800000000E+01 0.  1.
        -11    1    1    2    0    0 -0.77211274456E+02 -0.59659663033E+02 -0.73835363151E+02  0.12236223743E+03  0.00000000000E+00 0.  1.
         11    1    1    2    0    0 -0.10855803163E+03 -0.60960695062E+02 -0.24954022570E+03  0.27887519936E+03  0.00000000000E+00 0. -1.
</event>
<event>
 7    1  0.2490079E-009  0.9495827E+02  0.7561462E-02  0.1291270E+00
         -1   -1    0    0    0  501 -0.00000000000E+00  0.00000000000E+00  0.29589119632E+02  0.29589119632E+02  0.00000000000E+00 0.  1.
          1   -1    0    0  501    0  0.00000000000E+00 -0.00000000000E+00 -0.50903696848E+03  0.50903696848E+03  0.00000000000E+00 0. -1.
         25    2    1    2    0    0 -0.14728691382E+02 -0.49293722788E+02 -0.33314597740E+03  0.35955545659E+03  0.12508828341E+03 0.  0.
          5    1    3    3  502    0 -0.34261909949E+02  0.15990459898E+02 -0.24563715484E+03  0.24856519772E+03  0.41800000000E+01 0. -1.
         -5    1    3    3    0  502  0.19533218567E+02 -0.65284182686E+02 -0.87508822563E+02  0.11099025887E+03  0.41800000000E+01 0. -1.
        -11    1    1    2    0    0 -0.23541217075E+02  0.36152154264E+02 -0.12721580126E+03  0.13433178049E+03  0.00000000000E+00 0. -1.
         11    1    1    2    0    0  0.38269908457E+02  0.13141568523E+02 -0.19086070180E+02  0.44738851030E+02  0.00000000000E+00 0.  1.
</event>
<event>
 7    1  0.2490079E-009  0.3109193E+03  0.7561462E-02  0.1079906E+00
          2   -1    0    0  501    0  0.00000000000E+00  0.00000000000E+00  0.45836936335E+03  0.45836936335E+03  0.00000000000E+00 0. -1.
         -2   -1    0    0    0  501 -0.00000000000E+00 -0.00000000000E+00 -0.32246911198E+03  0.32246911198E+03  0.00000000000E+00 0.  1.
         25    2    1    2    0    0  0.12093720794E+03 -0.27505612987E+03  0.28559812223E+03  0.43300897791E+03  0.12509518251E+03 0.  0.
          5    1    3    3  502    0  0.12852622641E+03 -0.23071362258E+03  0.28393959171E+03  0.38779753823E+03  0.41800000000E+01 0. -1.
         -5    1    3    3    0  502 -0.75890184716E+01 -0.44342507295E+02  0.16585305194E+01  0.45211439681E+02  0.41800000000E+01 0. -1.
        -11    1    1    2    0    0 -0.12128038614E+03  0.17754266921E+03 -0.11816839457E+03  0.24534486122E+03  0.00000000000E+00 0.  1.
         11    1    1    2    0    0  0.34317819818E+00  0.97513460659E+02 -0.31529476282E+02  0.10248463619E+03  0.00000000000E+00 0. -1.
</event>
<event>
 7    1  0.2490079E-009  0.1261928E+03  0.7561462E-02  0.1233217E+00
          1   -1    0    0  501    0  0.00000000000E+00  0.00000000000E+00  0.10327997684E+03  0.10327997684E+03  0.00000000000E+00 0. -1.
         -1   -1    0    0    0  501 -0.00000000000E+00 -0.00000000000E+00 -0.16955575088E+03  0.16955575088E+03  0.00000000000E+00 0.  1.
         25    2    1    2    0    0  0.24321021623E+02 -0.67045549880E+02 -0.65180094937E+02  0.15805693754E+03  0.12508770075E+03 0.  0.
          5    1    3    3  502    0 -0.45629119164E+02 -0.22510663368E+01 -0.35818541176E+02  0.58202440734E+02  0.41800000000E+01 0.  1.
         -5    1    3    3    0  502  0.69950140787E+02 -0.64794483543E+02 -0.29361553760E+02  0.99854496809E+02  0.41800000000E+01 0.  1.
        -11    1    1    2    0    0 -0.55464092868E+02  0.31397925332E+02  0.13689180594E+02  0.65188104575E+02  0.00000000000E+00 0.  1.
         11    1    1    2    0    0  0.31143071244E+02  0.35647624548E+02 -0.14784859701E+02  0.49590685605E+02  0.00000000000E+00 0. -1.
</event>
<event>
 7    1  0.2490079E-009  0.1101299E+03  0.7561462E-02  0.1260329E+00
         -2   -1    0    0    0  501 -0.00000000000E+00  0.00000000000E+00  0.36672747878E+03  0.36672747878E+03  0.00000000000E+00 0. -1.
          2   -1    0    0  501    0  0.00000000000E+00 -0.00000000000E+00 -0.37674193392E+02  0.37674193392E+02  0.00000000000E+00 0.  1.
         25    2    1    2    0    0  0.15916068804E+02  0.16258242563E+02  0.11869879515E+03  0.17393631153E+03  0.12508710886E+03 0.  0.
          5    1    3    3  502    0  0.29746259289E+02 -0.50243578377E+02  0.46883868981E+02  0.74998844527E+02  0.41800000000E+01 0. -1.
         -5    1    3    3    0  502 -0.13830190484E+02  0.66501820940E+02  0.71814926168E+02  0.98937467007E+02  0.41800000000E+01 0. -1.
        -11    1    1    2    0    0 -0.17837298068E+02  0.36631604278E+02  0.10324968339E+03  0.11099793131E+03  0.00000000000E+00 0. -1.
         11    1    1    2    0    0  0.19212292635E+01 -0.52889846841E+02  0.10710480685E+03  0.11946742933E+03  0.00000000000E+00 0.  1.
</event>
<event>
 7    1  0.2490079E-009  0.2011582E+03  0.7561462E-02  0.1148766E+00
         -3   -1    0    0    0  501 -0.00000000000E+00  0.00000000000E+00  0.62597224450E+03  0.62597224450E+03  0.00000000000E+00 0.  1.
          3   -1    0    0  501    0  0.00000000000E+00 -0.00000000000E+00 -0.75492098834E+02  0.75492098834E+02  0.00000000000E+00 0. -1.
         25    2    1    2    0    0 -0.86975335275E+02  0.15986222391E+03  0.20968372966E+03  0.30452884004E+03  0.12509959373E+03 0.  0.
          5    1    3    3  502    0 -0.10820128341E+03  0.15853433874E+03  0.20758410682E+03  0.28275305143E+03  0.41800000000E+01 0. -1.
         -5    1    3    3    0  502  0.21225948137E+02  0.13278851649E+01  0.20996228448E+01  0.21775788606E+02  0.41800000000E+01 0. -1.
        -11    1    1    2    0    0  0.28055560732E+02 -0.10307981010E+03  0.26366586534E+03  0.28448594039E+03  0.00000000000E+00 0.  1.
         11    1    1    2    0    0  0.58919774543E+02 -0.56782413806E+02  0.77130550662E+02  0.11244956289E+03  0.00000000000E+00 0. -1.
</event>
<event>
 7    1  0.2490079E-009  0.1237745E+03  0.7561462E-02  0.1236997E+00
          1   -1    0    0  501    0  0.00000000000E+00  0.00000000000E+00  0.21941567039E+03  0.21941567039E+03  0.00000000000E+00 0. -1.
         -1   -1    0    0    0  501 -0.00000000000E+00 -0.00000000000E+00 -0.74727115594E+02  0.74727115594E+02  0.00000000000E+00 0.  1.
         25    2    1    2    0    0 -0.51319136451E+02 -0.44059859033E+02  0.94428376210E+02  0.17069725087E+03  0.12508360515E+03 0.  0.
          5    1    3    3  502    0  0.10207770057E+02  0.33820413357E+02  0.51233780168E+02  0.62373003451E+02  0.41800000000E+01 0. -1.
         -5    1    3    3    0  502 -0.61526906508E+02 -0.77880272391E+02  0.43194596042E+02  0.10832424742E+03  0.41800000000E+01 0. -1.
        -11    1    1    2    0    0  0.36632952410E+02 -0.23483651560E+02  0.22144007096E+02  0.48824298696E+02  0.00000000000E+00 0. -1.
         11    1    1    2    0    0  0.14686184041E+02  0.67543510594E+02  0.28116171488E+02  0.74621236415E+02  0.00000000000E+00 0.  1.
</event>
<event>
 7    1  0.2490079E-009  0.8762271E+02  0.7561462E-02  0.1308713E+00
          3   -1    0    0  501    0  0.00000000000E+00  0.00000000000E+00  0.38313665421E+03  0.38313665421E+03  0.00000000000E+00 0. -1.
         -3   -1    0    0    0  501 -0.00000000000E+00 -0.00000000000E+00 -0.33299924716E+02  0.33299924716E+02  0.00000000000E+00 0.  1.
         25    2    1    2    0    0  0.90625129912E+01 -0.19166746714E+02  0.13270425792E+03  0.18359157542E+03  0.12508378462E+03 0.  0.
          5    1    3    3  502    0  0.17446767865E+02 -0.55160632702E+02  0.13437617091E+03  0.14636089921E+03  0.41800000000E+01 0.  1.
         -5    1    3    3    0  502 -0.83842548735E+01  0.35993885989E+02 -0.16719129904E+01  0.37230676215E+02  0.41800000000E+01 0.  1.
        -11    1    1    2    0    0 -0.21269273196E+02 -0.25809517674E+02  0.57188062575E+02  0.66249435363E+02  0.00000000000E+00 0.  1.
         11    1    1    2    0    0  0.12206760205E+02  0.44976264388E+02  0.15994440900E+03  0.16659556814E+03  0.00000000000E+00 0. -1.
</event>
<event>
 7    1  0.2490079E-009  0.1004060E+03  0.7561462E-02  0.1279444E+00
          1   -1    0    0  501    0  0.00000000000E+00  0.00000000000E+00  0.36245485448E+03  0.36245485448E+03  0.00000000000E+00 0. -1.
         -1   -1    0    0    0  501 -0.00000000000E+00 -0.00000000000E+00 -0.43726246891E+02  0.43726246891E+02  0.00000000000E+00 0.  1.
         25    2    1    2    0    0  0.20653878090E+02 -0.35021225386E+02  0.26029334433E+03  0.29163916644E+03  0.12509080458E+03 0.  0.
          5    1    3    3  502    0 -0.49745569930E+02 -0.33863386917E+02  0.13482522806E+03  0.14770465538E+03  0.41800000000E+01 0. -1.
         -5    1    3    3    0  502  0.70399448020E+02 -0.11578384693E+01  0.12546811628E+03  0.14393451106E+03  0.41800000000E+01 0. -1.
        -11    1    1    2    0    0 -0.27892247131E+02 -0.58080517173E+01 -0.13487666948E+02  0.31521866608E+02  0.00000000000E+00 0.  1.
         11    1    1    2    0    0  0.72383690412E+01  0.40829277104E+02  0.71922930201E+02  0.83020068320E+02  0.00000000000E+00 0. -1.
</event>
<event>
 7    1  0.2490079E-009  0.1115664E+03  0.7561462E-02  0.1257696E+00
         -2   -1    0    0    0  501 -0.00000000000E+00  0.00000000000E+00  0.97606278279E+02  0.97606278279E+02  0.00000000000E+00 0. -1.
          2   -1    0    0  501    0  0.00000000000E+00 -0.00000000000E+00 -0.20043920265E+03  0.20043920265E+03  0.00000000000E+00 0.  1.
         25    2    1    2    0    0 -0.38049892184E+02  0.11803434100E+02 -0.14032774401E+03  0.19216315086E+03  0.12509070892E+03 0.  0.
          5    1    3    3  502    0 -0.46524562281E+02 -0.49138992319E+02 -0.89285444419E+02  0.11210949312E+03  0.41800000000E+01 0.  1.
         -5    1    3    3    0  502  0.84746700977E+01  0.60942426419E+02 -0.51042299593E+02  0.80053657749E+02  0.41800000000E+01 0.  1.
        -11    1    1    2    0    0  0.50720007549E+02 -0.38788559550E+02  0.40974805718E+02  0.75868347954E+02  0.00000000000E+00 0.  1.
         11    1    1    2    0    0 -0.12670115365E+02  0.26985125449E+02 -0.34799860748E+01  0.30013982108E+02  0.00000000000E+00 0. -1.
</event>
<event>
 7    1  0.2490079E-009  0.1058438E+03  0.7561462E-02  0.1268466E+00
         -3   -1    0    0    0  501 -0.00000000000E+00  0.00000000000E+00  0.19738522978E+03  0.19738522978E+03  0.00000000000E+00 0.  1.
          3   -1    0    0  501    0  0.00000000000E+00 -0.00000000000E+00 -0.93152486935E+02  0.93152486935E+02  0.00000000000E+00 0. -1.
         25    2    1    2    0    0 -0.64825239861E+02  0.21073970595E+02  0.10493264027E+03  0.17692994900E+03  0.12508766486E+03 0.  0.
          5    1    3    3  502    0 -0.15307720016E+02 -0.30198939792E+02  0.99655009359E+02  0.10533231008E+03  0.41800000000E+01 0.  1.
         -5    1    3    3    0  502 -0.49517519844E+02  0.51272910387E+02  0.52776309112E+01  0.71597638921E+02  0.41800000000E+01 0.  1.
        -11    1    1    2    0    0 -0.15107692566E+02 -0.21450617431E+02 -0.18007017873E+02  0.31821754439E+02  0.00000000000E+00 0.  1.
         11    1    1    2    0    0  0.79932932427E+02  0.37664683687E+00  0.17307120449E+02  0.81786013275E+02  0.00000000000E+00 0. -1.
</event>
<event>
 7    1  0.2490079E-009  0.1050658E+03  0.7561462E-02  0.1269990E+00
         -1   -1    0    0    0  501 -0.00000000000E+00  0.00000000000E+00  0.63804618058E+03  0.63804618058E+03  0.00000000000E+00 0.  1.
          1   -1    0    0  501    0  0.00000000000E+00 -0.00000000000E+00 -0.19700566502E+02  0.19700566502E+02  0.00000000000E+00 0. -1.
         25    2    1    2    0    0  0.89773648683E+01 -0.28722022298E+02  0.32404239691E+03  0.34865489245E+03  0.12510480165E+03 0.  0.
          5    1    3    3  502    0 -0.17980908224E+01  0.47920326822E+02  0.89300822631E+02  0.10144801711E+03  0.41800000000E+01 0. -1.
         -5    1    3    3    0  502  0.10775455691E+02 -0.76642349120E+02  0.23474157427E+03  0.24720687534E+03  0.41800000000E+01 0. -1.
        -11    1    1    2    0    0 -0.28728357770E+02 -0.17903530274E+02  0.19179298039E+03  0.19475729066E+03  0.00000000000E+00 0.  1.
         11    1    1    2    0    0  0.19750992902E+02  0.46625552573E+02  0.10251023678E+03  0.11433456397E+03  0.00000000000E+00 0. -1.
</event>
<event>
 7    1  0.2490079E-009  0.1310443E+03  0.7561462E-02  0.1225914E+00
          1   -1    0    0  501    0  0.00000000000E+00  0.00000000000E+00  0.22883866641E+03  0.22883866641E+03  0.00000000000E+00 0. -1.
         -1   -1    0    0    0  501 -0.00000000000E+00 -0.00000000000E+00 -0.78161546671E+02  0.78161546671E+02  0.00000000000E+00 0.  1.
         25    2    1    2    0    0 -0.68292846856E+02  0.26140332870E+02  0.11235062142E+03  0.18334709884E+03  0.12508503742E+03 0.  0.
          5    1    3    3  502    0 -0.13021063244E+02 -0.49158108383E+02  0.45976186834E+02  0.68682966328E+02  0.41800000000E+01 0. -1.
         -5    1    3    3    0  502 -0.55271783612E+02  0.75298441252E+02  0.66374434587E+02  0.11466413251E+03  0.41800000000E+01 0. -1.
        -11    1    1    2    0    0 -0.21644156305E+02  0.53100536212E+01  0.72994558584E+01  0.23450974979E+02  0.00000000000E+00 0.  1.
         11    1    1    2    0    0  0.89937003161E+02 -0.31450386491E+02  0.31027042456E+02  0.10020213926E+03  0.00000000000E+00 0. -1.
</event>
<event>
 7    1  0.2490079E-009  0.1032923E+03  0.7561462E-02  0.1273521E+00
          3   -1    0    0  501    0  0.00000000000E+00  0.00000000000E+00  0.30739737875E+02  0.30739737875E+02  0.00000000000E+00 0. -1.
         -3   -1    0    0    0  501 -0.00000000000E+00 -0.00000000000E+00 -0.56868941870E+03  0.56868941870E+03  0.00000000000E+00 0.  1.
         25    2    1    2    0    0 -0.26173759856E+02  0.18674786032E+01 -0.22898395401E+03  0.26223941130E+03  0.12508918602E+03 0.  0.
          5    1    3    3  502    0 -0.11865150488E+02  0.54657602895E+02 -0.50344405447E+02  0.75367545470E+02  0.41800000000E+01 0.  1.
         -5    1    3    3    0  502 -0.14308609368E+02 -0.52790124291E+02 -0.17863954857E+03  0.18687186583E+03  0.41800000000E+01 0.  1.
        -11    1    1    2    0    0 -0.75199406877E+00 -0.44886541445E+02 -0.26864885085E+03  0.27237395647E+03  0.00000000000E+00 0.  1.
         11    1    1    2    0    0  0.26925753925E+02  0.43019062842E+02 -0.40316875957E+02  0.64815788811E+02  0.00000000000E+00 0. -1.
</event>
<event>
 7    1  0.2490079E-009  0.7913440E+02  0.7561462E-02  0.1331526E+00
          2   -1    0    0  501    0  0.00000000000E+00  0.00000000000E+00  0.89671871086E+03  0.89671871086E+03  0.00000000000E+00 0. -1.
         -2   -1    0    0    0  501 -0.00000000000E+00 -0.00000000000E+00 -0.16313080652E+02  0.16313080652E+02  0.00000000000E+00 0.  1.
         25    2    1    2    0    0 -0.58106205144E+02 -0.28291949619E+01  0.48869772185E+03  0.50779727539E+03  0.12509306190E+03 0.  0.
          5    1    3    3  502    0 -0.47555431188E+02 -0.10509656432E+02  0.53825511915E+02  0.72709215693E+02  0.41800000000E+01 0. -1.
         -5    1    3    3    0  502 -0.10550773956E+02  0.76804614696E+01  0.43487220993E+03  0.43508805970E+03  0.41800000000E+01 0. -1.
        -11    1    1    2    0    0  0.11632876285E+02  0.36490682735E+02  0.85361576346E+02  0.93560100755E+02  0.00000000000E+00 0.  1.
         11    1    1    2    0    0  0.46473328859E+02 -0.33661487773E+02  0.30634633201E+03  0.31167441537E+03  0.00000000000E+00 0. -1.
</event>
<event>
 7    1  0.2490079E-009  0.9903962E+02  0.7561462E-02  0.1282329E+00
         -2   -1    0    0    0  501 -0.00000000000E+00  0.00000000000E+00  0.12972733292E+03  0.12972733292E+03  0.00000000000E+00 0.  1.
          2   -1    0    0  501    0  0.00000000000E+00 -0.00000000000E+00 -0.94397916114E+02  0.94397916114E+02  0.00000000000E+00 0. -1.
         25    2    1    2    0    0  0.27287940759E+02  0.22569706070E+02  0.29560231967E+02  0.13332405855E+03  0.12508986343E+03 0.  0.
          5    1    3    3  502    0 -0.31495948376E+02 -0.34779337994E+02  0.43103777708E+01  0.47303793420E+02  0.41800000000E+01 0. -1.
         -5    1    3    3    0  502  0.58783889135E+02  0.57349044065E+02  0.25249854196E+02  0.86020265135E+02  0.41800000000E+01 0. -1.
        -11    1    1    2    0    0  0.10623582829E+02 -0.28457022033E+02 -0.26774960546E+02  0.40491494506E+02  0.00000000000E+00 0. -1.
         11    1    1    2    0    0 -0.37911523588E+02  0.58873159628E+01  0.32544145383E+02  0.50309695971E+02  0.00000000000E+00 0.  1.
</event>
<event>
 7    1  0.2490079E-009  0.8410412E+02  0.7561462E-02  0.1317792E+00
         -2   -1    0    0    0  501 -0.00000000000E+00  0.00000000000E+00  0.25692324529E+02  0.25692324529E+02  0.00000000000E+00 0. -1.
          2   -1    0    0  501    0  0.00000000000E+00 -0.00000000000E+00 -0.55977246985E+03  0.55977246985E+03  0.00000000000E+00 0.  1.
         25    2    1    2    0    0 -0.41416277487E+02  0.15359794328E+02 -0.36474928521E+03  0.38812481189E+03  0.12509035622E+03 0.  0.
          5    1    3    3  502    0 -0.38986733295E+02 -0.30618011733E+02 -0.31979211064E+03  0.32363852435E+03  0.41800000000E+01 0.  1.
         -5    1    3    3    0  502 -0.24295441918E+01  0.45977806061E+02 -0.44957174564E+02  0.64486287534E+02  0.41800000000E+01 0.  1.
        -11    1    1    2    0    0  0.17677532504E+02  0.21841255550E+02 -0.14345992154E+03  0.14618578825E+03  0.00000000000E+00 0.  1.
         11    1    1    2    0    0  0.23738744983E+02 -0.37201049878E+02 -0.25870938571E+02  0.51154194236E+02  0.00000000000E+00 0. -1.
</event>
<event>
 7    1  0.2490079E-009  0.7822958E+02  0.7561462E-02  0.1334152E+00
         -1   -1    0    0    0  501 -0.00000000000E+00  0.00000000000E+00  0.34612334316E+03  0.34612334316E+03  0.00000000000E+00 0.  1.
          1   -1    0    0  501    0  0.00000000000E+00 -0.00000000000E+00 -0.35328623016E+02  0.35328623016E+02  0.00000000000E+00 0. -1.
         25    2    1    2    0    0  0.88387893455E-01 -0.14708179020E+02  0.20752212347E+03  0.24275290325E+03  0.12508877633E+03 0.  0.
          5    1    3    3  502    0 -0.40171922038E+02  0.21298004315E+01  0.19205137363E+03  0.19626390876E+03  0.41800000000E+01 0. -1.
         -5    1    3    3    0  502  0.40260309931E+02 -0.16837979451E+02  0.15470749847E+02  0.46488994489E+02  0.41800000000E+01 0. -1.
        -11    1    1    2    0    0 -0.33754783672E+02 -0.34382621715E+01  0.93149563660E+02  0.99136513341E+02  0.00000000000E+00 0.  1.
         11    1    1    2    0    0  0.33666395779E+02  0.18146441191E+02  0.10123033015E+02  0.39562549590E+02  0.00000000000E+00 0. -1.
</event>
<event>
 7    1  0.2490079E-009  0.1054820E+03  0.7561462E-02  0.1269173E+00
         -1   -1    0    0    0  501 -0.00000000000E+00  0.00000000000E+00  0.27972904805E+02  0.27972904805E+02  0.00000000000E+00 0.  1.
          1   -1    0    0  501    0  0.00000000000E+00 -0.00000000000E+00 -0.84585352705E+03  0.84585352705E+03  0.00000000000E+00 0. -1.
         25    2    1    2    0    0 -0.79315909409E+02  0.33655699927E+02 -0.62240873285E+03  0.64067452350E+03  0.12508994649E+03 0.  0.
          5    1    3    3  502    0 -0.16575180004E+02  0.10905930660E+02 -0.50615745217E+03  0.50656343601E+03  0.41800000000E+01 0. -1.
         -5    1    3    3    0  502 -0.62740729405E+02  0.22749769268E+02 -0.11625128068E+03  0.13411108749E+03  0.41800000000E+01 0. -1.
        -11    1    1    2    0    0  0.58972555944E+02  0.23246638936E+02 -0.73700613335E+02  0.97210848069E+02  0.00000000000E+00 0. -1.
         11    1    1    2    0    0  0.20343353465E+02 -0.56902338863E+02 -0.12177127606E+03  0.13594106029E+03  0.00000000000E+00 0.  1.
</event>
<event>
 7    1  0.2490079E-009  0.1433501E+03  0.7561462E-02  0.1208891E+00
         -2   -1    0    0    0  501 -0.00000000000E+00  0.00000000000E+00  0.26164538607E+03  0.26164538607E+03  0.00000000000E+00 0.  1.
          2   -1    0    0  501    0  0.00000000000E+00 -0.00000000000E+00 -0.94222123163E+02  0.94222123163E+02  0.00000000000E+00 0. -1.
         25    2    1    2    0    0 -0.54306696785E+02 -0.83754294410E+02  0.14873265213E+03  0.21847870831E+03  0.12509014760E+03 0.  0.
          5    1    3    3  502    0 -0.87724198415E+02 -0.85030391506E+02  0.94012249210E+02  0.15421244395E+03  0.41800000000E+01 0. -1.
         -5    1    3    3    0  502  0.33417501630E+02  0.12760970958E+01  0.54720402923E+02  0.64266264362E+02  0.41800000000E+01 0. -1.
        -11    1    1    2    0    0  0.76152025095E+02  0.51997827312E+02 -0.46493550198E+01  0.92328335160E+02  0.00000000000E+00 0. -1.
         11    1    1    2    0    0 -0.21845328309E+02  0.31756467098E+02  0.23339965796E+02  0.45060465764E+02  0.00000000000E+00 0.  1.
</event>
<event>
 7    1  0.2490079E-009  0.9362075E+02  0.7561462E-02  0.1294313E+00
          1   -1    0    0  501    0  0.00000000000E+00  0.00000000000E+00  0.14970064924E+03  0.14970064924E+03  0.00000000000E+00 0. -1.
         -1   -1    0    0    0  501 -0.00000000000E+00 -0.00000000000E+00 -0.10386472287E+03  0.10386472287E+03  0.00000000000E+00 0.  1.
         25    2    1    2    0    0 -0.40201549830E+02  0.53082320644E+01 -0.21387332845E+02  0.13322830831E+03  0.12509205487E+03 0.  0.
          5    1    3    3  502    0  0.23285488523E+02  0.12403733937E+02  0.37636408895E+02  0.46152337600E+02  0.41800000000E+01 0. -1.
         -5    1    3    3    0  502 -0.63487038353E+02 -0.70955018731E+01 -0.59023741740E+02  0.87075970708E+02  0.41800000000E+01 0. -1.
        -11    1    1    2    0    0  0.24835813840E+02  0.40880208090E+02  0.17994337730E+02  0.51105824061E+02  0.00000000000E+00 0.  1.
         11    1    1    2    0    0  0.15365735990E+02 -0.46188440154E+02  0.49228921478E+02  0.69231239742E+02  0.00000000000E+00 0. -1.
</event>
<event>
 7    1  0.3077267E-009  0.9343935E+02  0.7561462E-02  0.1294730E+00
         -2   -1    0    0    0  501 -0.00000000000E+00  0.00000000000E+00  0.13843042448E+03  0.13843042448E+03  0.00000000000E+00 0.  1.
          2   -1    0    0  501    0  0.00000000000E+00 -0.00000000000E+00 -0.10468988873E+03  0.10468988873E+03  0.00000000000E+00 0. -1.
         25    2    1    2    0    0  0.30323448450E+02 -0.16036355741E+02  0.59917184229E+02  0.14287625197E+03  0.12508748211E+03 0.  0.
          5    1    3    3  502    0  0.56867879094E+02 -0.45342595053E+02  0.23210106758E+01  0.72888724021E+02  0.41800000000E+01 0.  1.
         -5    1    3    3    0  502 -0.26544430643E+02  0.29306239312E+02  0.57596173554E+02  0.69987527952E+02  0.41800000000E+01 0.  1.
        -11    1    1    2    0    0 -0.31910919292E+02  0.39482652843E+02  0.14911175171E+02  0.52910582973E+02  0.00000000000E+00 0.  1.
         11    1    1    2    0    0  0.15874708418E+01 -0.23446297102E+02 -0.41087823657E+02  0.47333478261E+02  0.00000000000E+00 0. -1.
</event>
<event>
 7    1  0.2490079E-009  0.5820625E+02  0.7561462E-02  0.1405517E+00
         -1   -1    0    0    0  501 -0.00000000000E+00  0.00000000000E+00  0.78384500434E+03  0.78384500434E+03  0.00000000000E+00 0.  1.
          1   -1    0    0  501    0  0.00000000000E+00 -0.00000000000E+00 -0.19052782572E+02  0.19052782572E+02  0.00000000000E+00 0. -1.
         25    2    1    2    0    0  0.25539481807E+02 -0.20239995278E+02  0.56303348080E+03  0.57768176562E+03  0.12509036452E+03 0.  0.
          5    1    3    3  502    0  0.10683507525E+02  0.75108936359E+01 -0.41438148677E-01  0.13712219856E+02  0.41800000000E+01 0.  1.
         -5    1    3    3    0  502  0.14855974281E+02 -0.27750888914E+02  0.56307491895E+03  0.56396954577E+03  0.41800000000E+01 0.  1.
        -11    1    1    2    0    0 -0.27371781995E+02  0.41442224092E+02  0.19732304443E+03  0.20347740968E+03  0.00000000000E+00 0.  1.
         11    1    1    2    0    0  0.18323001883E+01 -0.21202228814E+02  0.44356965346E+01  0.21738611602E+02  0.00000000000E+00 0. -1.
</event>
<event>
 7    1  0.2490079E-009  0.2203714E+03  0.7561462E-02  0.1133606E+00
         -1   -1    0    0    0  501 -0.00000000000E+00  0.00000000000E+00  0.80531219228E+02  0.80531219228E+02  0.00000000000E+00 0.  1.
          1   -1    0    0  501    0  0.00000000000E+00 -0.00000000000E+00 -0.76033254363E+03  0.76033254363E+03  0.00000000000E+00 0. -1.
         25    2    1    2    0    0  0.97678158165E+02  0.18062120217E+03 -0.20701723932E+03  0.31727915054E+03  0.12507949766E+03 0.  0.
          5    1    3    3  502    0  0.10972945933E+03  0.89115518031E+02 -0.87823796813E+02  0.16647108303E+03  0.41800000000E+01 0. -1.
         -5    1    3    3    0  502 -0.12051301165E+02  0.91505684141E+02 -0.11919344250E+03  0.15080806751E+03  0.41800000000E+01 0. -1.
        -11    1    1    2    0    0 -0.63269403858E+01 -0.30913590431E+02 -0.18393877636E+02  0.36524169840E+02  0.00000000000E+00 0.  1.
         11    1    1    2    0    0 -0.91351217779E+02 -0.14970761174E+03 -0.45439020745E+03  0.48706044248E+03  0.00000000000E+00 0. -1.
</event>
<event>
 7    1  0.2490079E-009  0.1478494E+03  0.7561462E-02  0.1203141E+00
         -2   -1    0    0    0  501 -0.00000000000E+00  0.00000000000E+00  0.29542093506E+03  0.29542093506E+03  0.00000000000E+00 0.  1.
          2   -1    0    0  501    0  0.00000000000E+00 -0.00000000000E+00 -0.92539666854E+02  0.92539666854E+02  0.00000000000E+00 0. -1.
         25    2    1    2    0    0 -0.60068874535E+02  0.97361803131E+02  0.59919391257E+02  0.17979466644E+03  0.12509275852E+03 0.  0.
          5    1    3    3  502    0 -0.84788322815E+02  0.85565127390E+02  0.78191702760E+01  0.12078519170E+03  0.41800000000E+01 0.  1.
         -5    1    3    3    0  502  0.24719448280E+02  0.11796675741E+02  0.52100220981E+02  0.59009474732E+02  0.41800000000E+01 0.  1.
        -11    1    1    2    0    0 -0.21658544456E+02 -0.46239028807E+02  0.28346809976E+02  0.58401044244E+02  0.00000000000E+00 0. -1.
         11    1    1    2    0    0  0.81727418991E+02 -0.51122774325E+02  0.11461506697E+03  0.14976489124E+03  0.00000000000E+00 0.  1.
</event>
<event>
 7    1  0.2490079E-009  0.1372958E+03  0.7561462E-02  0.1217015E+00
          1   -1    0    0  501    0  0.00000000000E+00  0.00000000000E+00  0.29855921141E+02  0.29855921141E+02  0.00000000000E+00 0. -1.
         -1   -1    0    0    0  501 -0.00000000000E+00 -0.00000000000E+00 -0.85328421036E+03  0.85328421036E+03  0.00000000000E+00 0.  1.
         25    2    1    2    0    0 -0.10392034294E+03 -0.51532033873E+02 -0.52510544926E+03  0.55212155514E+03  0.12508993010E+03 0.  0.
          5    1    3    3  502    0 -0.10410423618E+03 -0.78930799278E+02 -0.32813650457E+03  0.35321211913E+03  0.41800000000E+01 0. -1.
         -5    1    3    3    0  502  0.18389323795E+00  0.27398765405E+02 -0.19696894469E+03  0.19890943601E+03  0.41800000000E+01 0. -1.
        -11    1    1    2    0    0  0.58386692283E+02  0.25472908162E+02 -0.61821309385E+02  0.88767951312E+02  0.00000000000E+00 0. -1.
         11    1    1    2    0    0  0.45533650657E+02  0.26059125710E+02 -0.23650153057E+03  0.24225062505E+03  0.00000000000E+00 0.  1.
</event>
<event>
 7    1  0.2490079E-009  0.9771796E+02  0.7561462E-02  0.1285169E+00
          3   -1    0    0  501    0  0.00000000000E+00  0.00000000000E+00  0.45918379232E+02  0.45918379232E+02  0.00000000000E+00 0. -1.
         -3   -1    0    0    0  501 -0.00000000000E+00 -0.00000000000E+00 -0.26265952198E+03  0.26265952198E+03  0.00000000000E+00 0.  1.
         25    2    1    2    0    0 -0.48131641213E+01  0.27603628753E+02 -0.13290787163E+03  0.18465252944E+03  0.12508767892E+03 0.  0.
          5    1    3    3  502    0 -0.61680255028E+02 -0.58156599684E+01 -0.64673203135E+02  0.89656964955E+02  0.41800000000E+01 0.  1.
         -5    1    3    3    0  502  0.56867090907E+02  0.33419288722E+02 -0.68234668492E+02  0.94995564481E+02  0.41800000000E+01 0.  1.
        -11    1    1    2    0    0  0.18434244419E+02  0.14208256992E+02 -0.75710074840E+02  0.79206763387E+02  0.00000000000E+00 0.  1.
         11    1    1    2    0    0 -0.13621080297E+02 -0.41811885746E+02 -0.81231962760E+01  0.44718608384E+02  0.00000000000E+00 0. -1.
</event>
<event>
 7    1  0.2490079E-009  0.1786900E+03  0.7561462E-02  0.1169077E+00
         -2   -1    0    0    0  501 -0.00000000000E+00  0.00000000000E+00  0.73417753496E+02  0.73417753496E+02  0.00000000000E+00 0.  1.
          2   -1    0    0  501    0  0.00000000000E+00 -0.00000000000E+00 -0.86291796582E+03  0.86291796582E+03  0.00000000000E+00 0. -1.
         25    2    1    2    0    0  0.96153539681E+02 -0.13708158240E+03 -0.69033184338E+03  0.72127957443E+03  0.12509719053E+03 0.  0.
          5    1    3    3  502    0  0.53671073013E+02 -0.58728148839E+02 -0.12018197650E+03  0.14419001151E+03  0.41800000000E+01 0. -1.
         -5    1    3    3    0  502  0.42482466668E+02 -0.78353433557E+02 -0.57014986688E+03  0.57708956292E+03  0.41800000000E+01 0. -1.
        -11    1    1    2    0    0 -0.10272032486E+03  0.77844567891E+02 -0.51717158953E+02  0.13887370672E+03  0.00000000000E+00 0. -1.
         11    1    1    2    0    0  0.65667851767E+01  0.59237014504E+02 -0.47451209990E+02  0.76182438163E+02  0.00000000000E+00 0.  1.
</event>
<event>
 7    1  0.2490079E-009  0.8388518E+02  0.7561462E-02  0.1318374E+00
         -2   -1    0    0    0  501 -0.00000000000E+00  0.00000000000E+00  0.96526418446E+02  0.96526418446E+02  0.00000000000E+00 0.  1.
          2   -1    0    0  501    0  0.00000000000E+00 -0.00000000000E+00 -0.19397725345E+03  0.19397725345E+03  0.00000000000E+00 0. -1.
         25    2    1    2    0    0  0.36117501864E+02  0.55857248064E+02  0.21392630003E+01  0.14169260274E+03  0.12509081150E+03 0.  0.
          5    1    3    3  502    0  0.31876371237E+02  0.24336986422E+02  0.61895423747E+02  0.73870886229E+02  0.41800000000E+01 0.  1.
         -5    1    3    3    0  502  0.42411306270E+01  0.31520261642E+02 -0.59756160747E+02  0.67821716509E+02  0.41800000000E+01 0.  1.
        -11    1    1    2    0    0 -0.49061690675E+02 -0.13219804912E+02 -0.89816033600E+02  0.10319269657E+03  0.00000000000E+00 0. -1.
         11    1    1    2    0    0  0.12944188810E+02 -0.42637443153E+02 -0.97740644038E+01  0.45618372587E+02  0.00000000000E+00 0.  1.
</event>
<event>
 7    1  0.2490079E-009  0.1253245E+03  0.7561462E-02  0.1234563E+00
          1   -1    0    0  501    0  0.00000000000E+00  0.00000000000E+00  0.79030744648E+03  0.79030744648E+03  0.00000000000E+00 0. -1.
         -1   -1    0    0    0  501 -0.00000000000E+00 -0.00000000000E+00 -0.28876434055E+02  0.28876434055E+02  0.00000000000E+00 0.  1.
         25    2    1    2    0    0  0.87202047052E+01  0.10053138687E+03  0.34127551859E+03  0.37722487812E+03  0.12508807842E+03 0.  0.
          5    1    3    3  502    0 -0.43790070321E+02  0.15844415245E+02  0.46118945568E+02  0.65673779345E+02  0.41800000000E+01 0.  1.
         -5    1    3    3    0  502  0.52510275026E+02  0.84686971630E+02  0.29515657302E+03  0.31155109877E+03  0.41800000000E+01 0.  1.
        -11    1    1    2    0    0 -0.17660829970E+02 -0.76700919379E+02  0.40447998881E+03  0.41206673889E+03  0.00000000000E+00 0. -1.
         11    1    1    2    0    0  0.89406252651E+01 -0.23830467496E+02  0.15675505021E+02  0.29892263528E+02  0.00000000000E+00 0.  1.
</event>
<event>
 7    1  0.2490079E-009  0.7966768E+02  0.7561462E-02  0.1329997E+00
         -1   -1    0    0    0  501 -0.00000000000E+00  0.00000000000E+00  0.11062836085E+02  0.11062836085E+02  0.00000000000E+00 0.  1.
          1   -1    0    0  501    0  0.00000000000E+00 -0.00000000000E+00 -0.18518708756E+04  0.18518708756E+04  0.00000000000E+00 0. -1.
         25    2    1    2    0    0 -0.20615655969E+01 -0.29672084714E+02 -0.15838572118E+04  0.15890676664E+04  0.12509075959E+03 0.  0.
          5    1    3    3  502    0  0.18034337990E+02 -0.38210370855E+02 -0.15327100980E+04  0.15332980749E+04  0.41800000000E+01 0.  1.
         -5    1    3    3    0  502 -0.20095903587E+02  0.85382861413E+01 -0.51147113878E+02  0.55769591439E+02  0.41800000000E+01 0.  1.
        -11    1    1    2    0    0 -0.23078978004E+02  0.54577981872E+02 -0.15437609714E+03  0.16535832214E+03  0.00000000000E+00 0.  1.
         11    1    1    2    0    0  0.25140543601E+02 -0.24905897158E+02 -0.10257473054E+03  0.10850772319E+03  0.00000000000E+00 0. -1.
</event>
<event>
 7    1  0.2490079E-009  0.1428652E+03  0.7561462E-02  0.1209525E+00
          4   -1    0    0  501    0  0.00000000000E+00  0.00000000000E+00  0.14456547069E+03  0.14456547069E+03  0.00000000000E+00 0. -1.
         -4   -1    0    0    0  501 -0.00000000000E+00 -0.00000000000E+00 -0.23317596250E+03  0.23317596250E+03  0.00000000000E+00 0.  1.
         25    2    1    2    0    0 -0.51453064353E+02  0.78890237930E+02  0.70173812329E+02  0.17158067672E+03  0.12507788460E+03 0.  0.
          5    1    3    3  502    0  0.34381775963E+02  0.55710965859E+02  0.43311754795E+02  0.78607879623E+02  0.41800000000E+01 0. -1.
         -5    1    3    3    0  502 -0.85834840317E+02  0.23179272071E+02  0.26862057534E+02  0.92972797101E+02  0.41800000000E+01 0. -1.
        -11    1    1    2    0    0  0.29383399284E+00 -0.79952353996E+02 -0.89207050085E+02  0.11979300077E+03  0.00000000000E+00 0. -1.
         11    1    1    2    0    0  0.51159230360E+02  0.10621160660E+01 -0.69577254060E+02  0.86367755697E+02  0.00000000000E+00 0.  1.
</event>
<event>
 7    1  0.2490079E-009  0.9375803E+02  0.7561462E-02  0.1293998E+00
         -3   -1    0    0    0  501 -0.00000000000E+00  0.00000000000E+00  0.28868929384E+03  0.28868929384E+03  0.00000000000E+00 0.  1.
          3   -1    0    0  501    0  0.00000000000E+00 -0.00000000000E+00 -0.68908509883E+02  0.68908509883E+02  0.00000000000E+00 0. -1.
         25    2    1    2    0    0  0.33161530305E+02  0.72605996472E+02  0.77356138779E+02  0.16734249810E+03  0.12509285211E+03 0.  0.
          5    1    3    3  502    0  0.38113903483E+02  0.30370352800E+02  0.10542412743E+03  0.11621853128E+03  0.41800000000E+01 0. -1.
         -5    1    3    3    0  502 -0.49523731777E+01  0.42235643672E+02 -0.28067988655E+02  0.51123966822E+02  0.41800000000E+01 0. -1.
        -11    1    1    2    0    0  0.39337956403E+01 -0.54415649180E+02  0.13837506046E+03  0.14874204174E+03  0.00000000000E+00 0.  1.
         11    1    1    2    0    0 -0.37095325945E+02 -0.18190347292E+02  0.40495847189E+01  0.41513263880E+02  0.00000000000E+00 0. -1.
</event>
<event>
 7    1  0.2490079E-009  0.1053804E+03  0.7561462E-02  0.1269372E+00
         -2   -1    0    0    0  501 -0.00000000000E+00  0.00000000000E+00  0.74178874909E+02  0.74178874909E+02  0.00000000000E+00 0.  1.
          2   -1    0    0  501    0  0.00000000000E+00 -0.00000000000E+00 -0.23128834459E+03  0.23128834459E+03  0.00000000000E+00 0. -1.
         25    2    1    2    0    0 -0.96926854175E+01 -0.63540519600E+02 -0.44176477229E+02  0.14741205896E+03  0.12508960071E+03 0.  0.
          5    1    3    3  502    0  0.11031216320E+02 -0.90181834659E+02 -0.60955896130E+02  0.10948764638E+03  0.41800000000E+01 0.  1.
         -5    1    3    3    0  502 -0.20723901738E+02  0.26641315059E+02  0.16779418902E+02  0.37924412586E+02  0.41800000000E+01 0.  1.
        -11    1    1    2    0    0 -0.22833387805E+02  0.38459851681E+02 -0.80887242818E+01  0.45452736447E+02  0.00000000000E+00 0.  1.
         11    1    1    2    0    0  0.32526073222E+02  0.25080667919E+02 -0.10484426817E+03  0.11260242409E+03  0.00000000000E+00 0. -1.
</event>
<event>
 7    1  0.2490079E-009  0.1258039E+03  0.7561462E-02  0.1233818E+00
          1   -1    0    0  501    0  0.00000000000E+00  0.00000000000E+00  0.78354027328E+03  0.78354027328E+03  0.00000000000E+00 0. -1.
         -1   -1    0    0    0  501 -0.00000000000E+00 -0.00000000000E+00 -0.24828800792E+02  0.24828800792E+02  0.00000000000E+00 0.  1.
         25    2    1    2    0    0 -0.52326232816E+02 -0.25674561986E+01  0.57428207064E+03  0.59007799547E+03  0.12509003797E+03 0.  0.
          5    1    3    3  502    0 -0.92252244979E+02 -0.15049095776E+02  0.39249031761E+03  0.40348862909E+03  0.41800000000E+01 0.  1.
         -5    1    3    3    0  502  0.39926012162E+02  0.12481639577E+02  0.18179175303E+03  0.18658936637E+03  0.41800000000E+01 0.  1.
        -11    1    1    2    0    0  0.25918796787E+02  0.53043028347E+02  0.81297427830E+02  0.10047197945E+03  0.00000000000E+00 0.  1.
         11    1    1    2    0    0  0.26407436029E+02 -0.50475572148E+02  0.10313197401E+03  0.11781909915E+03  0.00000000000E+00 0. -1.
</event>
<event>
 7    1  0.2490079E-009  0.1264776E+03  0.7561462E-02  0.1232778E+00
         -2   -1    0    0    0  501 -0.00000000000E+00  0.00000000000E+00  0.29803398573E+03  0.29803398573E+03  0.00000000000E+00 0.  1.
          2   -1    0    0  501    0  0.00000000000E+00 -0.00000000000E+00 -0.76107090703E+02  0.76107090703E+02  0.00000000000E+00 0. -1.
         25    2    1    2    0    0 -0.52207348747E+02  0.54218253060E+02  0.29957904453E+02  0.14902744057E+03  0.12508587360E+03 0.  0.
          5    1    3    3  502    0 -0.36559316793E+02 -0.35590405592E+02 -0.47043515720E+01  0.51408792422E+02  0.41800000000E+01 0. -1.
         -5    1    3    3    0  502 -0.15648031954E+02  0.89808658653E+02  0.34662256025E+02  0.97618648145E+02  0.41800000000E+01 0. -1.
        -11    1    1    2    0    0  0.73512748699E+02 -0.33498227675E+02  0.10053575090E+03  0.12897167397E+03  0.00000000000E+00 0. -1.
         11    1    1    2    0    0 -0.21305399952E+02 -0.20720025385E+02  0.91433239675E+02  0.96141961893E+02  0.00000000000E+00 0.  1.
</event>
<event>
 7    1  0.2490079E-009  0.7245810E+02  0.7561462E-02  0.1351928E+00
          1   -1    0    0  501    0  0.00000000000E+00  0.00000000000E+00  0.27931422987E+03  0.27931422987E+03  0.00000000000E+00 0. -1.
         -1   -1    0    0    0  501 -0.00000000000E+00 -0.00000000000E+00 -0.56865175633E+02  0.56865175633E+02  0.00000000000E+00 0.  1.
         25    2    1    2    0    0  0.15395645532E+02 -0.42678329064E+02  0.18402906851E+03  0.22709710188E+03  0.12509168617E+03 0.  0.
          5    1    3    3  502    0  0.17989304385E+02  0.77552771476E+00 -0.14697437164E+02  0.23615748446E+02  0.41800000000E+01 0.  1.
         -5    1    3    3    0  502 -0.25936588532E+01 -0.43453856778E+02  0.19872650568E+03  0.20348135343E+03  0.41800000000E+01 0.  1.
        -11    1    1    2    0    0 -0.14254540907E+02 -0.17466183987E+02  0.43208817210E+02  0.48736653601E+02  0.00000000000E+00 0. -1.
         11    1    1    2    0    0 -0.11411046242E+01  0.60144513050E+02 -0.47888314876E+01  0.60345650024E+02  0.00000000000E+00 0.  1.
</event>
<event>
 7    1  0.2490079E-009  0.1183735E+03  0.7561462E-02  0.1245805E+00
          2   -1    0    0  501    0  0.00000000000E+00  0.00000000000E+00  0.63288531904E+03  0.63288531904E+03  0.00000000000E+00 0.  1.
         -2   -1    0    0    0  501 -0.00000000000E+00 -0.00000000000E+00 -0.29764768770E+02  0.29764768770E+02  0.00000000000E+00 0. -1.
         25    2    1    2    0    0  0.78646747578E+02 -0.32292207770E+02  0.35870732583E+03  0.38928958840E+03  0.12508932986E+03 0.  0.
          5    1    3    3  502    0  0.57759069712E+02  0.17314519774E+02  0.31230812642E+03  0.31810334949E+03  0.41800000000E+01 0.  1.
         -5    1    3    3    0  502  0.20887677867E+02 -0.49606727544E+02  0.46399199411E+02  0.71186238911E+02  0.41800000000E+01 0.  1.
        -11    1    1    2    0    0  0.10324839966E+02 -0.17530580984E+02  0.36499024723E+02  0.41786390077E+02  0.00000000000E+00 0.  1.
         11    1    1    2    0    0 -0.88971587544E+02  0.49822788753E+02  0.20791419971E+03  0.23157410933E+03  0.00000000000E+00 0. -1.
</event>
<event>
 7    1  0.2490079E-009  0.1248546E+03  0.7561462E-02  0.1235297E+00
         -1   -1    0    0    0  501 -0.00000000000E+00  0.00000000000E+00  0.83757054588E+02  0.83757054588E+02  0.00000000000E+00 0.  1.
          1   -1    0    0  501    0  0.00000000000E+00 -0.00000000000E+00 -0.19386213034E+03  0.19386213034E+03  0.00000000000E+00 0. -1.
         25    2    1    2    0    0 -0.36083839360E+02 -0.46439392516E+02 -0.73856213828E+02  0.15671886198E+03  0.12508957086E+03 0.  0.
          5    1    3    3  502    0 -0.50524810561E+02  0.30885888056E+02 -0.34495357710E+02  0.68659279538E+02  0.41800000000E+01 0.  1.
         -5    1    3    3    0  502  0.14440971201E+02 -0.77325280571E+02 -0.39360856118E+02  0.88059582437E+02  0.41800000000E+01 0.  1.
        -11    1    1    2    0    0 -0.11314081322E+02 -0.24078812770E+02  0.39635598387E+01  0.26898094118E+02  0.00000000000E+00 0.  1.
         11    1    1    2    0    0  0.47397920682E+02  0.70518205286E+02 -0.40212421761E+02  0.94002228833E+02  0.00000000000E+00 0. -1.
</event>
<event>
 7    1  0.2490079E-009  0.8998127E+02  0.7561462E-02  0.1302897E+00
         -2   -1    0    0    0  501 -0.00000000000E+00  0.00000000000E+00  0.28576065132E+02  0.28576065132E+02  0.00000000000E+00 0.  1.
          2   -1    0    0  501    0  0.00000000000E+00 -0.00000000000E+00 -0.45558055744E+03  0.45558055744E+03  0.00000000000E+00 0. -1.
         25    2    1    2    0    0  0.18770418819E+02 -0.44855478300E+02 -0.26186174649E+03  0.29425002590E+03  0.12508861223E+03 0.  0.
          5    1    3    3  502    0 -0.35855477592E+02  0.22656905211E+02 -0.12539376580E+03  0.13243873878E+03  0.41800000000E+01 0. -1.
         -5    1    3    3    0  502  0.54625896411E+02 -0.67512383511E+02 -0.13646798069E+03  0.16181128712E+03  0.41800000000E+01 0. -1.
        -11    1    1    2    0    0 -0.21807302431E+01  0.22260539911E+02  0.35110632748E-01  0.22367128879E+02  0.00000000000E+00 0.  1.
         11    1    1    2    0    0 -0.16589688576E+02  0.22594938389E+02 -0.16517785645E+03  0.16753946780E+03  0.00000000000E+00 0. -1.
</event>
<event>
 7    1  0.2490079E-009  0.4533178E+02  0.7561462E-02  0.1472281E+00
          1   -1    0    0  501    0  0.00000000000E+00  0.00000000000E+00  0.27586384221E+03  0.27586384221E+03  0.00000000000E+00 0. -1.
         -1   -1    0    0    0  501 -0.00000000000E+00 -0.00000000000E+00 -0.49199521764E+02  0.49199521764E+02  0.00000000000E+00 0.  1.
         25    2    1    2    0    0  0.15857268415E+02  0.12388488897E+02  0.19131711929E+03  0.22946034471E+03  0.12507950289E+03 0.  0.
          5    1    3    3  502    0 -0.64811768606E+01 -0.13133983816E+02 -0.14378226324E+02  0.20945476280E+02  0.41800000000E+01 0. -1.
         -5    1    3    3    0  502  0.22338445276E+02  0.25522472712E+02  0.20569534561E+03  0.20851486843E+03  0.41800000000E+01 0. -1.
        -11    1    1    2    0    0 -0.27544724626E+02 -0.71940130538E+01  0.60790289711E+02  0.67126187153E+02  0.00000000000E+00 0. -1.
         11    1    1    2    0    0  0.11687456211E+02 -0.51944758429E+01 -0.25443088551E+02  0.28476832110E+02  0.00000000000E+00 0.  1.
</event>
<event>
 7    1  0.2490079E-009  0.1005704E+03  0.7561462E-02  0.1279101E+00
          2   -1    0    0  501    0  0.00000000000E+00  0.00000000000E+00  0.14677214869E+03  0.14677214869E+03  0.00000000000E+00 0. -1.
         -2   -1    0    0    0  501 -0.00000000000E+00 -0.00000000000E+00 -0.10675549095E+03  0.10675549095E+03  0.00000000000E+00 0.  1.
         25    2    1    2    0    0  0.46872679764E+01  0.10365710466E+02  0.84807451564E+02  0.15155822295E+03  0.12509265633E+03 0.  0.
          5    1    3    3  502    0  0.63222992720E+02  0.10683945307E+01  0.59673608404E+02  0.87044242862E+02  0.41800000000E+01 0. -1.
         -5    1    3    3    0  502 -0.58535724744E+02  0.92973159357E+01  0.25133843160E+02  0.64513980089E+02  0.41800000000E+01 0. -1.
        -11    1    1    2    0    0  0.30515963989E+02 -0.25757299403E+02 -0.49121152372E+02  0.63305214170E+02  0.00000000000E+00 0.  1.
         11    1    1    2    0    0 -0.35203231966E+02  0.15391588937E+02  0.43303585456E+01  0.38664202513E+02  0.00000000000E+00 0. -1.
</event>
<event>
 7    1  0.2490079E-009  0.2056331E+03  0.7561462E-02  0.1145072E+00
          1   -1    0    0  501    0  0.00000000000E+00  0.00000000000E+00  0.17762430448E+03  0.17762430448E+03  0.00000000000E+00 0. -1.
         -1   -1    0    0    0  501 -0.00000000000E+00 -0.00000000000E+00 -0.28601583186E+03  0.28601583186E+03  0.00000000000E+00 0.  1.
         25    2    1    2    0    0  0.43905183724E+02 -0.18302051230E+03  0.15454088756E+01  0.22599018421E+03  0.12507998237E+03 0.  0.
          5    1    3    3  502    0  0.47674612945E+02 -0.19165927153E+03  0.26193001669E+02  0.19927290538E+03  0.41800000000E+01 0.  1.
         -5    1    3    3    0  502 -0.37694292215E+01  0.86387592248E+01 -0.24647592794E+02  0.26717278831E+02  0.41800000000E+01 0.  1.
        -11    1    1    2    0    0  0.22375500844E+02  0.50743000039E+02 -0.59494323795E+02  0.81333201430E+02  0.00000000000E+00 0. -1.
         11    1    1    2    0    0 -0.66280684568E+02  0.13227751226E+03 -0.50442612459E+02  0.15631675070E+03  0.00000000000E+00 0.  1.
</event>
<event>
 7    1  0.2490079E-009  0.1079140E+03  0.7561462E-02  0.1264482E+00
          1   -1    0    0  501    0  0.00000000000E+00  0.00000000000E+00  0.22636303642E+02  0.22636303642E+02  0.00000000000E+00 0. -1.
         -1   -1    0    0    0  501 -0.00000000000E+00 -0.00000000000E+00 -0.57939259840E+03  0.57939259840E+03  0.00000000000E+00 0.  1.
         25    2    1    2    0    0 -0.39109831730E+02 -0.24744495172E+02 -0.40012033186E+03  0.42176342133E+03  0.12508490967E+03 0.  0.
          5    1    3    3  502    0  0.35016154771E+02  0.24417290113E+02 -0.10263977377E+03  0.11124176694E+03  0.41800000000E+01 0. -1.
         -5    1    3    3    0  502 -0.74125986501E+02 -0.49161785285E+02 -0.29748055809E+03  0.31052165439E+03  0.41800000000E+01 0. -1.
        -11    1    1    2    0    0  0.52075521731E+02  0.38669842295E+02 -0.14248194158E+03  0.15655133453E+03  0.00000000000E+00 0.  1.
         11    1    1    2    0    0 -0.12965690001E+02 -0.13925347123E+02 -0.14154021321E+02  0.23714146184E+02  0.00000000000E+00 0. -1.
</event>
<event>
 7    1  0.2490079E-009  0.9213370E+02  0.7561462E-02  0.1297765E+00
          2   -1    0    0  501    0  0.00000000000E+00  0.00000000000E+00  0.94946512417E+02  0.94946512417E+02  0.00000000000E+00 0. -1.
         -2   -1    0    0    0  501 -0.00000000000E+00 -0.00000000000E+00 -0.12888474311E+03  0.12888474311E+03  0.00000000000E+00 0.  1.
         25    2    1    2    0    0  0.20764603628E+02 -0.46066619847E+01 -0.32167141268E+02  0.13089791101E+03  0.12508856075E+03 0.  0.
          5    1    3    3  502    0  0.63294232858E+02  0.22484111165E+02  0.59319109459E+01  0.67560011363E+02  0.41800000000E+01 0. -1.
         -5    1    3    3    0  502 -0.42529629229E+02 -0.27090773149E+02 -0.38099052214E+02  0.63337899648E+02  0.41800000000E+01 0. -1.
        -11    1    1    2    0    0  0.21411821507E+02  0.10389520017E+02 -0.32606356334E+02  0.40368090118E+02  0.00000000000E+00 0.  1.
         11    1    1    2    0    0 -0.42176425135E+02 -0.57828580320E+01  0.30835266911E+02  0.52565254396E+02  0.00000000000E+00 0. -1.
</event>
<event>
 7    1  0.2490079E-009  0.1185367E+03  0.7561462E-02  0.1245531E+00
         -1   -1    0    0    0  501 -0.00000000000E+00  0.00000000000E+00  0.72920846021E+03  0.72920846021E+03  0.00000000000E+00 0.  1.
          1   -1    0    0  501    0  0.00000000000E+00 -0.00000000000E+00 -0.25426797702E+02  0.25426797702E+02  0.00000000000E+00 0. -1.
         25    2    1    2    0    0 -0.65066449105E+02  0.44928924513E+02  0.46071110694E+03  0.48389474344E+03  0.12508855908E+03 0.  0.
          5    1    3    3  502    0 -0.84466731440E+02  0.57433335704E+01  0.40045769120E+03  0.40933048927E+03  0.41800000000E+01 0.  1.
         -5    1    3    3    0  502  0.19400282335E+02  0.39185590942E+02  0.60253415740E+02  0.74564254174E+02  0.41800000000E+01 0.  1.
        -11    1    1    2    0    0  0.21953506788E+02 -0.59064921648E+02  0.19368396749E+03  0.20367646082E+03  0.00000000000E+00 0.  1.
         11    1    1    2    0    0  0.43112942318E+02  0.14135997135E+02  0.49386588072E+02  0.67064053648E+02  0.00000000000E+00 0. -1.
</event>
<event>
 7    1  0.2490079E-009  0.9645595E+02  0.7561462E-02  0.1287930E+00
         -1   -1    0    0    0  501 -0.00000000000E+00  0.00000000000E+00  0.25357018977E+02  0.25357018977E+02  0.00000000000E+00 0.  1.
          1   -1    0    0  501    0  0.00000000000E+00 -0.00000000000E+00 -0.55876664497E+03  0.55876664497E+03  0.00000000000E+00 0. -1.
         25    2    1    2    0    0 -0.33023510408E+02  0.39739215503E+02 -0.33375740994E+03  0.36015464028E+03  0.12509036230E+03 0.  0.
          5    1    3    3  502    0 -0.57694673923E+02  0.30157000515E+02 -0.32570852031E+03  0.33217711041E+03  0.41800000000E+01 0.  1.
         -5    1    3    3    0  502  0.24671163515E+02  0.95822149881E+01 -0.80488896235E+01  0.27977529866E+02  0.41800000000E+01 0.  1.
        -11    1    1    2    0    0  0.62781111292E+02 -0.23941209127E+02 -0.12098423722E+03  0.13839015531E+03  0.00000000000E+00 0.  1.
         11    1    1    2    0    0 -0.29757600884E+02 -0.15798006377E+02 -0.78667978828E+02  0.85578868354E+02  0.00000000000E+00 0. -1.
</event>
<event>
 7    1  0.2490079E-009  0.9240516E+02  0.7561462E-02  0.1297130E+00
          1   -1    0    0  501    0  0.00000000000E+00  0.00000000000E+00  0.39900388347E+03  0.39900388347E+03  0.00000000000E+00 0. -1.
         -1   -1    0    0    0  501 -0.00000000000E+00 -0.00000000000E+00 -0.39264635569E+02  0.39264635569E+02  0.00000000000E+00 0.  1.
         25    2    1    2    0    0  0.55368807769E+02  0.12377131327E+02  0.15333098834E+03  0.20585589988E+03  0.12508941313E+03 0.  0.
          5    1    3    3  502    0 -0.16529291515E+02  0.79135752290E+01  0.12801268575E+03  0.12938532476E+03  0.41800000000E+01 0.  1.
         -5    1    3    3    0  502  0.71898099284E+02  0.44635560984E+01  0.25318302591E+02  0.76470575124E+02  0.41800000000E+01 0.  1.
        -11    1    1    2    0    0 -0.35851331264E+02  0.30291733887E+02  0.15870986911E+03  0.16550447018E+03  0.00000000000E+00 0.  1.
         11    1    1    2    0    0 -0.19517476505E+02 -0.42668865215E+02  0.47698390444E+02  0.66908148972E+02  0.00000000000E+00 0. -1.
</event>
<event>
 7    1  0.2490079E-009  0.1061923E+03  0.7561462E-02  0.1267788E+00
          2   -1    0    0  501    0  0.00000000000E+00  0.00000000000E+00  0.24560764877E+02  0.24560764877E+02  0.00000000000E+00 0. -1.
         -2   -1    0    0    0  501 -0.00000000000E+00 -0.00000000000E+00 -0.75151606666E+03  0.75151606666E+03  0.00000000000E+00 0.  1.
         25    2    1    2    0    0 -0.47423957486E+02  0.10599097342E+02 -0.58616817891E+03  0.60133344866E+03  0.12508960748E+03 0.  0.
          5    1    3    3  502    0  0.22026188374E+02 -0.38185733545E+02 -0.13045033848E+03  0.13776090313E+03  0.41800000000E+01 0.  1.
         -5    1    3    3    0  502 -0.69450145860E+02  0.48784830887E+02 -0.45571784043E+03  0.46357254554E+03  0.41800000000E+01 0.  1.
        -11    1    1    2    0    0  0.58486295801E+02  0.10391036486E+02 -0.13874788723E+03  0.15092911133E+03  0.00000000000E+00 0.  1.
         11    1    1    2    0    0 -0.11062338315E+02 -0.20990133828E+02 -0.20392356362E+01  0.23814271543E+02  0.00000000000E+00 0. -1.
</event>
<event>
 7    1  0.2490079E-009  0.1293245E+03  0.7561462E-02  0.1228462E+00
         -1   -1    0    0    0  501 -0.00000000000E+00  0.00000000000E+00  0.15490342566E+03  0.15490342566E+03  0.00000000000E+00 0. -1.
          1   -1    0    0  501    0  0.00000000000E+00 -0.00000000000E+00 -0.11614119161E+03  0.11614119161E+03  0.00000000000E+00 0.  1.
         25    2    1    2    0    0 -0.79214753111E+02 -0.31962886680E+02  0.35960197448E+02  0.15568167291E+03  0.12508814589E+03 0.  0.
          5    1    3    3  502    0 -0.94946020958E+02  0.17945508697E+02  0.10342522712E+02  0.97268845753E+02  0.41800000000E+01 0.  1.
         -5    1    3    3    0  502  0.15731267847E+02 -0.49908395377E+02  0.25617674736E+02  0.58412827154E+02  0.41800000000E+01 0.  1.
        -11    1    1    2    0    0  0.84917442139E+02  0.85594959789E+01 -0.13315134327E+02  0.86380146753E+02  0.00000000000E+00 0.  1.
         11    1    1    2    0    0 -0.57026890282E+01  0.23403390701E+02  0.16117170934E+02  0.28982797612E+02  0.00000000000E+00 0. -1.
</event>
<event>
 7    1  0.2490079E-009  0.2503167E+03  0.7561462E-02  0.1113105E+00
         -2   -1    0    0    0  501 -0.00000000000E+00  0.00000000000E+00  0.10860711788E+03  0.10860711788E+03  0.00000000000E+00 0.  1.
          2   -1    0    0  501    0  0.00000000000E+00 -0.00000000000E+00 -0.61195280915E+03  0.61195280915E+03  0.00000000000E+00 0. -1.
         25    2    1    2    0    0 -0.21729008751E+03  0.70019627202E+02 -0.32694380606E+03  0.41792073535E+03  0.12509100045E+03 0.  0.
          5    1    3    3  502    0  0.98635600763E+01 -0.13899044004E+02 -0.29720778714E+02  0.34514784209E+02  0.41800000000E+01 0. -1.
         -5    1    3    3    0  502 -0.22715364758E+03  0.83918671206E+02 -0.29722302734E+03  0.38340595114E+03  0.41800000000E+01 0. -1.
        -11    1    1    2    0    0  0.67216372923E+02  0.14342551311E+02 -0.24256661350E+02  0.72884396045E+02  0.00000000000E+00 0.  1.
         11    1    1    2    0    0  0.15007371458E+03 -0.84362178513E+02 -0.15214522387E+03  0.22975479564E+03  0.00000000000E+00 0. -1.
</event>
<event>
 7    1  0.2490079E-009  0.1448397E+03  0.7561462E-02  0.1206961E+00
          1   -1    0    0  501    0  0.00000000000E+00  0.00000000000E+00  0.29855994760E+02  0.29855994760E+02  0.00000000000E+00 0. -1.
         -1   -1    0    0    0  501 -0.00000000000E+00 -0.00000000000E+00 -0.85221633106E+03  0.85221633106E+03  0.00000000000E+00 0.  1.
         25    2    1    2    0    0  0.11149713647E+02 -0.11149648016E+03 -0.34639757501E+03  0.38496022310E+03  0.12508921695E+03 0.  0.
          5    1    3    3  502    0  0.44127321126E+02 -0.11946878976E+02 -0.39325255068E+02  0.60447468707E+02  0.41800000000E+01 0. -1.
         -5    1    3    3    0  502 -0.32977607479E+02 -0.99549601181E+02 -0.30707231994E+03  0.32451275440E+03  0.41800000000E+01 0. -1.
        -11    1    1    2    0    0  0.33625363221E+02  0.70513165461E+02 -0.32816762183E+03  0.33733775296E+03  0.00000000000E+00 0.  1.
         11    1    1    2    0    0 -0.44775076868E+02  0.40983314696E+02 -0.14779513946E+03  0.15977434976E+03  0.00000000000E+00 0. -1.
</event>
<event>
 7    1  0.2490079E-009  0.1792811E+03  0.7561462E-02  0.1168501E+00
          1   -1    0    0  501    0  0.00000000000E+00  0.00000000000E+00  0.90555797552E+02  0.90555797552E+02  0.00000000000E+00 0. -1.
         -1   -1    0    0    0  501 -0.00000000000E+00 -0.00000000000E+00 -0.42063199926E+03  0.42063199926E+03  0.00000000000E+00 0.  1.
         25    2    1    2    0    0 -0.64394898670E+02  0.14783397243E+03 -0.17246226167E+03  0.26719350001E+03  0.12509016095E+03 0.  0.
          5    1    3    3  502    0 -0.62386784985E+01  0.13681556316E+03 -0.15147366849E+03  0.20425269662E+03  0.41800000000E+01 0. -1.
         -5    1    3    3    0  502 -0.58156220172E+02  0.11018409273E+02 -0.20988593183E+02  0.62940803390E+02  0.41800000000E+01 0. -1.
        -11    1    1    2    0    0  0.21419168052E+02 -0.71068105822E+02 -0.13354168771E+03  0.15278363388E+03  0.00000000000E+00 0.  1.
         11    1    1    2    0    0  0.42975730619E+02 -0.76765866609E+02 -0.24072252327E+02  0.91210662921E+02  0.00000000000E+00 0. -1.
</event>
<event>
 7    1  0.2490079E-009  0.9273173E+02  0.7561462E-02  0.1296368E+00
          3   -1    0    0  501    0  0.00000000000E+00  0.00000000000E+00  0.15505327734E+03  0.15505327734E+03  0.00000000000E+00 0. -1.
         -3   -1    0    0    0  501 -0.00000000000E+00 -0.00000000000E+00 -0.13076783520E+03  0.13076783520E+03  0.00000000000E+00 0.  1.
         25    2    1    2    0    0  0.47198777949E+02 -0.43241473222E+02  0.79821450595E+02  0.16160285295E+03  0.12508584436E+03 0.  0.
          5    1    3    3  502    0  0.31706862114E+02  0.31473297224E+02 -0.75782658420E+01  0.45506000225E+02  0.41800000000E+01 0.  1.
         -5    1    3    3    0  502  0.15491915835E+02 -0.74714770446E+02  0.87399716437E+02  0.11609685272E+03  0.41800000000E+01 0.  1.
        -11    1    1    2    0    0 -0.33945721384E+02  0.28233587976E+02 -0.80743335278E+02  0.92026809584E+02  0.00000000000E+00 0.  1.
         11    1    1    2    0    0 -0.13253056565E+02  0.15007885246E+02  0.25207326821E+02  0.32191450003E+02  0.00000000000E+00 0. -1.
</event>
<event>
 7    1  0.2490079E-009  0.1116411E+03  0.7561462E-02  0.1257561E+00
          1   -1    0    0  501    0  0.00000000000E+00  0.00000000000E+00  0.32562355444E+03  0.32562355444E+03  0.00000000000E+00 0. -1.
         -1   -1    0    0    0  501 -0.00000000000E+00 -0.00000000000E+00 -0.62811608517E+02  0.62811608517E+02  0.00000000000E+00 0.  1.
         25    2    1    2    0    0 -0.61196457120E+02 -0.40709693800E+02  0.65791814252E+02  0.15929982486E+03  0.12508231627E+03 0.  0.
          5    1    3    3  502    0 -0.87059144032E+02 -0.54476369858E+02  0.19899094783E+02  0.10469200450E+03  0.41800000000E+01 0.  1.
         -5    1    3    3    0  502  0.25862686912E+02  0.13766676058E+02  0.45892719469E+02  0.54607820358E+02  0.41800000000E+01 0.  1.
        -11    1    1    2    0    0  0.30640908104E+02 -0.95411687161E+01  0.10818156987E+02  0.33866379649E+02  0.00000000000E+00 0.  1.
         11    1    1    2    0    0  0.30555549016E+02  0.50250862516E+02  0.18620197468E+03  0.19526895845E+03  0.00000000000E+00 0. -1.
</event>
<event>
 7    1  0.2490079E-009  0.1846267E+03  0.7561462E-02  0.1163399E+00
          2   -1    0    0  501    0  0.00000000000E+00  0.00000000000E+00  0.18292975051E+04  0.18292975051E+04  0.00000000000E+00 0. -1.
         -2   -1    0    0    0  501 -0.00000000000E+00 -0.00000000000E+00 -0.27943207219E+02  0.27943207219E+02  0.00000000000E+00 0.  1.
         25    2    1    2    0    0 -0.16708105779E+03 -0.41003040544E+02  0.13342443543E+04  0.13510924763E+04  0.12508218650E+03 0.  0.
          5    1    3    3  502    0 -0.17705552143E+02  0.72706225949E+01  0.21893561210E+02  0.29379396727E+02  0.41800000000E+01 0. -1.
         -5    1    3    3    0  502 -0.14937550564E+03 -0.48273663139E+02  0.13123507931E+04  0.13217130796E+04  0.41800000000E+01 0. -1.
        -11    1    1    2    0    0  0.12941626142E+03  0.68085641719E+02  0.31850602296E+03  0.35047155375E+03  0.00000000000E+00 0. -1.
         11    1    1    2    0    0  0.37664796365E+02 -0.27082601176E+02  0.14860392065E+03  0.15567668227E+03  0.00000000000E+00 0.  1.
</event>
<event>
 7    1  0.2490079E-009  0.1071673E+03  0.7561462E-02  0.1265907E+00
          2   -1    0    0  501    0  0.00000000000E+00  0.00000000000E+00  0.21479958607E+02  0.21479958607E+02  0.00000000000E+00 0. -1.
         -2   -1    0    0    0  501 -0.00000000000E+00 -0.00000000000E+00 -0.60263063738E+03  0.60263063738E+03  0.00000000000E+00 0.  1.
         25    2    1    2    0    0  0.15145810919E+02  0.44212370857E+02 -0.35681027862E+03  0.38097939596E+03  0.12509035092E+03 0.  0.
          5    1    3    3  502    0  0.56035056201E+02 -0.17896341400E+02 -0.15090745565E+03  0.16202079845E+03  0.41800000000E+01 0. -1.
         -5    1    3    3    0  502 -0.40889245283E+02  0.62108712257E+02 -0.20590282296E+03  0.21895859751E+03  0.41800000000E+01 0. -1.
        -11    1    1    2    0    0 -0.38102344569E+02 -0.43624301771E+02 -0.20525685604E+03  0.21327270177E+03  0.00000000000E+00 0.  1.
         11    1    1    2    0    0  0.22956533650E+02 -0.58806908587E+00 -0.19083544112E+02  0.29858498260E+02  0.00000000000E+00 0. -1.
</event>
<event>
 7    1  0.2490079E-009  0.1707415E+03  0.7561462E-02  0.1177077E+00
          2   -1    0    0  501    0  0.00000000000E+00  0.00000000000E+00  0.36455925181E+03  0.36455925181E+03  0.00000000000E+00 0. -1.
         -2   -1    0    0    0  501 -0.00000000000E+00 -0.00000000000E+00 -0.98611894107E+02  0.98611894107E+02  0.00000000000E+00 0.  1.
         25    2    1    2    0    0 -0.11871155910E+03  0.86201028852E+02  0.19859571894E+03  0.27678480721E+03  0.12508604352E+03 0.  0.
          5    1    3    3  502    0  0.58487762328E+01  0.54055269759E+02  0.23273528179E+02  0.59290048794E+02  0.41800000000E+01 0.  1.
         -5    1    3    3    0  502 -0.12456033533E+03  0.32145759093E+02  0.17532219076E+03  0.21749475842E+03  0.41800000000E+01 0.  1.
        -11    1    1    2    0    0  0.77704160307E+02 -0.19779509660E+02 -0.44773514117E+01  0.80306987286E+02  0.00000000000E+00 0.  1.
         11    1    1    2    0    0  0.41007398795E+02 -0.66421519191E+02  0.71828990174E+02  0.10607935142E+03  0.00000000000E+00 0. -1.
</event>
<event>
 7    1  0.2490079E-009  0.1217970E+03  0.7561462E-02  0.1240162E+00
          2   -1    0    0  501    0  0.00000000000E+00  0.00000000000E+00  0.13095228056E+02  0.13095228056E+02  0.00000000000E+00 0.  1.
         -2   -1    0    0    0  501 -0.00000000000E+00 -0.00000000000E+00 -0.19077816200E+04  0.19077816200E+04  0.00000000000E+00 0. -1.
         25    2    1    2    0    0  0.89188098782E+02  0.21797384971E+02 -0.14312811658E+04  0.14396678833E+04  0.12509274895E+03 0.  0.
          5    1    3    3  502    0  0.99052235648E+02  0.26197272829E+02 -0.62905091222E+03  0.63735403431E+03  0.41800000000E+01 0.  1.
         -5    1    3    3    0  502 -0.98641368658E+01 -0.43998878581E+01 -0.80223025354E+03  0.80231384900E+03  0.41800000000E+01 0.  1.
        -11    1    1    2    0    0  0.14919220078E+02 -0.20499616508E+02 -0.10218087660E+03  0.10527938520E+03  0.00000000000E+00 0.  1.
         11    1    1    2    0    0 -0.10410731886E+03 -0.12977684625E+01 -0.36122434963E+03  0.37592957959E+03  0.00000000000E+00 0. -1.
</event>
<event>
 7    1  0.2490079E-009  0.1855407E+03  0.7561462E-02  0.1162546E+00
          1   -1    0    0  501    0  0.00000000000E+00  0.00000000000E+00  0.26844292778E+02  0.26844292778E+02  0.00000000000E+00 0. -1.
         -1   -1    0    0    0  501 -0.00000000000E+00 -0.00000000000E+00 -0.15130538247E+04  0.15130538247E+04  0.00000000000E+00 0.  1.
         25    2    1    2    0    0  0.16594976392E+03  0.28077221864E+02 -0.85009757911E+03  0.87557970228E+03  0.12508503707E+03 0.  0.
          5    1    3    3  502    0  0.13095922740E+02  0.26783672010E+02 -0.34577569283E+02  0.45847017092E+02  0.41800000000E+01 0.  1.
         -5    1    3    3    0  502  0.15285384118E+03  0.12935498539E+01 -0.81552000983E+03  0.82973268519E+03  0.41800000000E+01 0.  1.
        -11    1    1    2    0    0 -0.49942300967E+02 -0.49243702270E+02 -0.30101676089E+03  0.30907970813E+03  0.00000000000E+00 0.  1.
         11    1    1    2    0    0 -0.11600746296E+03  0.21166480406E+02 -0.33509519194E+03  0.35523870709E+03  0.00000000000E+00 0. -1.
</event>
<event>
 7    1  0.2490079E-009  0.1027780E+03  0.7561462E-02  0.1274560E+00
          1   -1    0    0  501    0  0.00000000000E+00  0.00000000000E+00  0.98634366483E+03  0.98634366483E+03  0.00000000000E+00 0. -1.
         -1   -1    0    0    0  501 -0.00000000000E+00 -0.00000000000E+00 -0.18145394828E+02  0.18145394828E+02  0.00000000000E+00 0.  1.
         25    2    1    2    0    0 -0.27748482283E+02  0.13925258282E+02  0.79161658941E+03  0.80204017906E+03  0.12509089935E+03 0.  0.
          5    1    3    3  502    0 -0.52389125304E+02  0.44156143453E+02  0.68511448507E+03  0.68854463581E+03  0.41800000000E+01 0. -1.
         -5    1    3    3    0  502  0.24640643021E+02 -0.30230885171E+02  0.10650210435E+03  0.11349554325E+03  0.41800000000E+01 0. -1.
        -11    1    1    2    0    0 -0.33016315202E+02  0.63680638321E+01  0.45786327144E+02  0.56806839903E+02  0.00000000000E+00 0. -1.
         11    1    1    2    0    0  0.60764797484E+02 -0.20293322114E+02  0.13079535345E+03  0.14564204070E+03  0.00000000000E+00 0.  1.
</event>
<event>
 7    1  0.2490079E-009  0.9277373E+02  0.7561462E-02  0.1296270E+00
          1   -1    0    0  501    0  0.00000000000E+00  0.00000000000E+00  0.11383335888E+03  0.11383335888E+03  0.00000000000E+00 0. -1.
         -1   -1    0    0    0  501 -0.00000000000E+00 -0.00000000000E+00 -0.14254148936E+03  0.14254148936E+03  0.00000000000E+00 0.  1.
         25    2    1    2    0    0  0.43965747529E+02  0.25314250651E+02 -0.63385680517E+02  0.14912598599E+03  0.12508803684E+03 0.  0.
          5    1    3    3  502    0  0.23375360333E+02 -0.21967407398E+02  0.28866146101E+02  0.43355521554E+02  0.41800000000E+01 0.  1.
         -5    1    3    3    0  502  0.20590387196E+02  0.47281658049E+02 -0.92251826617E+02  0.10577046444E+03  0.41800000000E+01 0.  1.
        -11    1    1    2    0    0 -0.57119366077E+02 -0.48413939662E+02  0.26712555645E+02  0.79499007313E+02  0.00000000000E+00 0.  1.
         11    1    1    2    0    0  0.13153618548E+02  0.23099689011E+02  0.79649943868E+01  0.27749854935E+02  0.00000000000E+00 0. -1.
</event>
<event>
 7    1  0.2490079E-009  0.1366251E+03  0.7561462E-02  0.1217944E+00
         -1   -1    0    0    0  501 -0.00000000000E+00  0.00000000000E+00  0.36601204091E+02  0.36601204091E+02  0.00000000000E+00 0.  1.
          1   -1    0    0  501    0  0.00000000000E+00 -0.00000000000E+00 -0.62723965830E+03  0.62723965830E+03  0.00000000000E+00 0. -1.
         25    2    1    2    0    0  0.60023840571E+02  0.82434342335E+02 -0.37095340526E+03  0.40453877949E+03  0.12508762131E+03 0.  0.
          5    1    3    3  502    0  0.94286282153E+02  0.35406262098E+02 -0.26606027996E+03  0.28451546771E+03  0.41800000000E+01 0.  1.
         -5    1    3    3    0  502 -0.34262441582E+02  0.47028080237E+02 -0.10489312530E+03  0.12002331177E+03  0.41800000000E+01 0.  1.
        -11    1    1    2    0    0 -0.47566857183E+02 -0.88336090158E+02 -0.22351156794E+03  0.24499651371E+03  0.00000000000E+00 0. -1.
         11    1    1    2    0    0 -0.12456983388E+02  0.59017478233E+01  0.38265189853E+01  0.14305569197E+02  0.00000000000E+00 0.  1.
</event>
<event>
 7    1  0.2490079E-009  0.1262684E+03  0.7561462E-02  0.1233100E+00
         -1   -1    0    0    0  501 -0.00000000000E+00  0.00000000000E+00  0.12519434686E+03  0.12519434686E+03  0.00000000000E+00 0.  1.
          1   -1    0    0  501    0  0.00000000000E+00 -0.00000000000E+00 -0.21036696315E+03  0.21036696315E+03  0.00000000000E+00 0. -1.
         25    2    1    2    0    0 -0.86010728259E+02 -0.46072498440E+02  0.27666483204E+02  0.16103959087E+03  0.12509114696E+03 0.  0.
          5    1    3    3  502    0 -0.74882022484E+02 -0.66735915044E+02 -0.24801548393E+02  0.10340981023E+03  0.41800000000E+01 0.  1.
         -5    1    3    3    0  502 -0.11128705775E+02  0.20663416604E+02  0.52468031598E+02  0.57629780650E+02  0.41800000000E+01 0.  1.
        -11    1    1    2    0    0 -0.15325069512E+02  0.16988518269E+02 -0.44341423091E+01  0.23305130906E+02  0.00000000000E+00 0.  1.
         11    1    1    2    0    0  0.10133579777E+03  0.29083980171E+02 -0.10840495719E+03  0.15121658823E+03  0.00000000000E+00 0. -1.
</event>
<event>
 7    1  0.2490079E-009  0.1156921E+03  0.7561462E-02  0.1250378E+00
          1   -1    0    0  501    0  0.00000000000E+00  0.00000000000E+00  0.48683510012E+03  0.48683510012E+03  0.00000000000E+00 0. -1.
         -1   -1    0    0    0  501 -0.00000000000E+00 -0.00000000000E+00 -0.37978924564E+02  0.37978924564E+02  0.00000000000E+00 0.  1.
         25    2    1    2    0    0  0.72743490036E+02 -0.19189979589E+02  0.30733732952E+03  0.34024038609E+03  0.12508963006E+03 0.  0.
          5    1    3    3  502    0  0.88324061500E+02 -0.54926118734E+02  0.24973054083E+03  0.27055652604E+03  0.41800000000E+01 0. -1.
         -5    1    3    3    0  502 -0.15580571464E+02  0.35736139145E+02  0.57606788688E+02  0.69683860048E+02  0.41800000000E+01 0. -1.
        -11    1    1    2    0    0 -0.23038143757E+02  0.29387552188E+02  0.12614383485E+03  0.13155474663E+03  0.00000000000E+00 0. -1.
         11    1    1    2    0    0 -0.49705346279E+02 -0.10197572599E+02  0.15375011183E+02  0.53018891958E+02  0.00000000000E+00 0.  1.
</event>
<event>
 7    1  0.2490079E-009  0.1383445E+03  0.7561462E-02  0.1215574E+00
          1   -1    0    0  501    0  0.00000000000E+00  0.00000000000E+00  0.33885532964E+03  0.33885532964E+03  0.00000000000E+00 0. -1.
         -1   -1    0    0    0  501 -0.00000000000E+00 -0.00000000000E+00 -0.72197958888E+02  0.72197958888E+02  0.00000000000E+00 0.  1.
         25    2    1    2    0    0 -0.10599588657E+03  0.36630124343E+02  0.12879438326E+03  0.21168675496E+03  0.12508555108E+03 0.  0.
          5    1    3    3  502    0  0.17991344097E+02 -0.66699729820E+01  0.60487407709E+02  0.63595407801E+02  0.41800000000E+01 0. -1.
         -5    1    3    3    0  502 -0.12398723066E+03  0.43300097325E+02  0.68306975553E+02  0.14809134716E+03  0.41800000000E+01 0. -1.
        -11    1    1    2    0    0  0.67377166575E+02 -0.50943039557E+02  0.13346225686E+03  0.15794635121E+03  0.00000000000E+00 0. -1.
         11    1    1    2    0    0  0.38618719990E+02  0.14312915214E+02  0.44007306264E+01  0.41420182347E+02  0.00000000000E+00 0.  1.
</event>
<event>
 7    1  0.2490079E-009  0.8893019E+02  0.7561462E-02  0.1305463E+00
          1   -1    0    0  501    0  0.00000000000E+00  0.00000000000E+00  0.18043169884E+03  0.18043169884E+03  0.00000000000E+00 0. -1.
         -1   -1    0    0    0  501 -0.00000000000E+00 -0.00000000000E+00 -0.59547864177E+02  0.59547864177E+02  0.00000000000E+00 0.  1.
         25    2    1    2    0    0 -0.27568973534E+01  0.50100220538E+02  0.93011347539E+02  0.16375899362E+03  0.12509302394E+03 0.  0.
          5    1    3    3  502    0 -0.16287484943E+02  0.80777543259E+02  0.22424728203E+02  0.85502248483E+02  0.41800000000E+01 0.  1.
         -5    1    3    3    0  502  0.13530587590E+02 -0.30677322721E+02  0.70586619336E+02  0.78256745135E+02  0.41800000000E+01 0.  1.
        -11    1    1    2    0    0  0.18011155284E+02 -0.15549873317E+02 -0.70124838795E+01  0.24806757245E+02  0.00000000000E+00 0.  1.
         11    1    1    2    0    0 -0.15254257931E+02 -0.34550347221E+02  0.34884971003E+02  0.51413812152E+02  0.00000000000E+00 0. -1.
</event>
<event>
 7    1  0.2490079E-009  0.1046614E+03  0.7561462E-02  0.1270788E+00
          1   -1    0    0  501    0  0.00000000000E+00  0.00000000000E+00  0.23551780940E+03  0.23551780940E+03  0.00000000000E+00 0. -1.
         -1   -1    0    0    0  501 -0.00000000000E+00 -0.00000000000E+00 -0.70278037239E+02  0.70278037239E+02  0.00000000000E+00 0.  1.
         25    2    1    2    0    0 -0.68317043291E+02  0.10498918371E+02  0.96733090865E+02  0.17257427608E+03  0.12508854546E+03 0.  0.
          5    1    3    3  502    0  0.12780201612E+02 -0.31038343878E+01  0.88789642473E+02  0.89855663993E+02  0.41800000000E+01 0.  1.
         -5    1    3    3    0  502 -0.81097244903E+02  0.13602752759E+02  0.79434483922E+01  0.82718612088E+02  0.41800000000E+01 0.  1.
        -11    1    1    2    0    0  0.87243710848E+02 -0.23343811197E+02  0.46935956434E+02  0.10178105231E+03  0.00000000000E+00 0. -1.
         11    1    1    2    0    0 -0.18926667557E+02  0.12844892826E+02  0.21570724866E+02  0.31440518249E+02  0.00000000000E+00 0.  1.
</event>
<event>
 7    1  0.2490079E-009  0.1009016E+03  0.7561462E-02  0.1278411E+00
          4   -1    0    0  501    0  0.00000000000E+00  0.00000000000E+00  0.39552340126E+03  0.39552340126E+03  0.00000000000E+00 0.  1.
         -4   -1    0    0    0  501 -0.00000000000E+00 -0.00000000000E+00 -0.47147731967E+02  0.47147731967E+02  0.00000000000E+00 0. -1.
         25    2    1    2    0    0  0.40307244828E+02  0.17619871666E+02  0.30464102355E+03  0.33224054220E+03  0.12506994358E+03 0.  0.
          5    1    3    3  502    0  0.31290412864E+02  0.57413566975E+02  0.27211849750E+03  0.27989526021E+03  0.41800000000E+01 0.  1.
         -5    1    3    3    0  502  0.90168319640E+01 -0.39793695308E+02  0.32522526052E+02  0.52345281982E+02  0.41800000000E+01 0.  1.
        -11    1    1    2    0    0 -0.49063738505E+02  0.22661869662E+02  0.43226319485E+02  0.69204952632E+02  0.00000000000E+00 0.  1.
         11    1    1    2    0    0  0.87564936764E+01 -0.40281741328E+02  0.50832625922E+00  0.41225638400E+02  0.00000000000E+00 0. -1.
</event>
<event>
 7    1  0.2490079E-009  0.1129586E+03  0.7561462E-02  0.1255187E+00
         -2   -1    0    0    0  501 -0.00000000000E+00  0.00000000000E+00  0.55738137904E+02  0.55738137904E+02  0.00000000000E+00 0. -1.
          2   -1    0    0  501    0  0.00000000000E+00 -0.00000000000E+00 -0.28896456539E+03  0.28896456539E+03  0.00000000000E+00 0.  1.
         25    2    1    2    0    0 -0.64737671912E+02 -0.85179461078E+01 -0.11723537845E+03  0.18345236947E+03  0.12508843405E+03 0.  0.
          5    1    3    3  502    0 -0.50815638437E+02  0.49073625688E+02 -0.27675621720E+02  0.75985934787E+02  0.41800000000E+01 0. -1.
         -5    1    3    3    0  502 -0.13922033476E+02 -0.57591571796E+02 -0.89559756725E+02  0.10746643468E+03  0.41800000000E+01 0. -1.
        -11    1    1    2    0    0  0.13538245615E+02  0.35417782070E+02 -0.80070304272E+01  0.38753269764E+02  0.00000000000E+00 0.  1.
         11    1    1    2    0    0  0.51199426297E+02 -0.26899835962E+02 -0.10798401861E+03  0.12249706406E+03  0.00000000000E+00 0. -1.
</event>
<event>
 7    1  0.2490079E-009  0.1231788E+03  0.7561462E-02  0.1237943E+00
          3   -1    0    0  501    0  0.00000000000E+00  0.00000000000E+00  0.11392860018E+04  0.11392860018E+04  0.00000000000E+00 0. -1.
         -3   -1    0    0    0  501 -0.00000000000E+00 -0.00000000000E+00 -0.13945340457E+02  0.13945340457E+02  0.00000000000E+00 0.  1.
         25    2    1    2    0    0 -0.43469790022E+02 -0.42463757368E+02  0.54661191038E+03  0.56402509507E+03  0.12508770511E+03 0.  0.
          5    1    3    3  502    0  0.17037247044E+02 -0.69837867147E+02  0.30828998439E+03  0.31658771667E+03  0.41800000000E+01 0.  1.
         -5    1    3    3    0  502 -0.60507037066E+02  0.27374109779E+02  0.23832192599E+03  0.24743737840E+03  0.41800000000E+01 0.  1.
        -11    1    1    2    0    0 -0.89224321961E-01 -0.26358664655E+02  0.91673360069E+02  0.95387588866E+02  0.00000000000E+00 0.  1.
         11    1    1    2    0    0  0.43559014344E+02  0.68822422024E+02  0.48705539088E+03  0.49381865830E+03  0.00000000000E+00 0. -1.
</event>
<event>
 7    1  0.2490079E-009  0.1287517E+03  0.7561462E-02  0.1229320E+00
         -2   -1    0    0    0  501 -0.00000000000E+00  0.00000000000E+00  0.11620593021E+02  0.11620593021E+02  0.00000000000E+00 0.  1.
          2   -1    0    0  501    0  0.00000000000E+00 -0.00000000000E+00 -0.22022801758E+04  0.22022801758E+04  0.00000000000E+00 0. -1.
         25    2    1    2    0    0 -0.38995695659E+02 -0.73192238587E+02 -0.16654054432E+04  0.16721545354E+04  0.12509089573E+03 0.  0.
          5    1    3    3  502    0  0.35242947533E+02 -0.35984753217E+02 -0.10424956255E+04  0.10437200628E+04  0.41800000000E+01 0.  1.
         -5    1    3    3    0  502 -0.74238643191E+02 -0.37207485370E+02 -0.62290981765E+03  0.62843447267E+03  0.41800000000E+01 0.  1.
        -11    1    1    2    0    0  0.36606268116E+02 -0.12051337112E+02 -0.85278010010E+02  0.93582009931E+02  0.00000000000E+00 0. -1.
         11    1    1    2    0    0  0.23894275430E+01  0.85243575699E+02 -0.43997612966E+03  0.44816422351E+03  0.00000000000E+00 0.  1.
</event>
<event>
 7    1  0.2490079E-009  0.1062216E+03  0.7561462E-02  0.1267731E+00
          1   -1    0    0  501    0  0.00000000000E+00  0.00000000000E+00  0.36655394212E+02  0.36655394212E+02  0.00000000000E+00 0. -1.
         -1   -1    0    0    0  501 -0.00000000000E+00 -0.00000000000E+00 -0.33761375495E+03  0.33761375495E+03  0.00000000000E+00 0.  1.
         25    2    1    2    0    0 -0.87878014912E+01  0.69960633904E+01 -0.12394919730E+03  0.17646917208E+03  0.12510713339E+03 0.  0.
          5    1    3    3  502    0  0.57435399223E+02  0.15901394747E+01 -0.70826401269E+02  0.91297344672E+02  0.41800000000E+01 0.  1.
         -5    1    3    3    0  502 -0.66223200714E+02  0.54059239158E+01 -0.53122796034E+02  0.85171827412E+02  0.41800000000E+01 0.  1.
        -11    1    1    2    0    0 -0.39475626423E+02  0.10662829409E+00 -0.81081782994E+02  0.90180884807E+02  0.00000000000E+00 0.  1.
         11    1    1    2    0    0  0.48263427914E+02 -0.71026916845E+01 -0.95927380439E+02  0.10761909227E+03  0.00000000000E+00 0. -1.
</event>
<event>
 7    1  0.2490079E-009  0.1963039E+03  0.7561462E-02  0.1152895E+00
          2   -1    0    0  501    0  0.00000000000E+00  0.00000000000E+00  0.10939009241E+04  0.10939009241E+04  0.00000000000E+00 0. -1.
         -2   -1    0    0    0  501 -0.00000000000E+00 -0.00000000000E+00 -0.36241805937E+02  0.36241805937E+02  0.00000000000E+00 0.  1.
         25    2    1    2    0    0 -0.97692874477E+02 -0.13251229534E+03  0.61788493228E+03  0.65156102845E+03  0.12508628269E+03 0.  0.
          5    1    3    3  502    0 -0.12515490290E+03 -0.11983192305E+03  0.47996454437E+03  0.51030076990E+03  0.41800000000E+01 0. -1.
         -5    1    3    3    0  502  0.27462028421E+02 -0.12680372290E+02  0.13792038790E+03  0.14126025855E+03  0.41800000000E+01 0. -1.
        -11    1    1    2    0    0  0.10760467263E+03  0.76896322319E+02  0.31229780140E+03  0.33914853194E+03  0.00000000000E+00 0.  1.
         11    1    1    2    0    0 -0.99117981563E+01  0.55615973022E+02  0.12747638453E+03  0.13943316969E+03  0.00000000000E+00 0. -1.
</event>
<event>
 7    1  0.2490079E-009  0.1123744E+03  0.7561462E-02  0.1256235E+00
          2   -1    0    0  501    0  0.00000000000E+00  0.00000000000E+00  0.90369881281E+03  0.90369881281E+03  0.00000000000E+00 0.  1.
         -2   -1    0    0    0  501 -0.00000000000E+00 -0.00000000000E+00 -0.16763816144E+02  0.16763816144E+02  0.00000000000E+00 0. -1.
         25    2    1    2    0    0  0.47969361431E+02  0.19350198348E+02  0.51082721796E+03  0.52845785325E+03  0.12509103183E+03 0.  0.
          5    1    3    3  502    0 -0.30482344244E+02  0.21116487454E+02  0.58736429185E+02  0.69588216434E+02  0.41800000000E+01 0. -1.
         -5    1    3    3    0  502  0.78451705675E+02 -0.17662891067E+01  0.45209078877E+03  0.45886963682E+03  0.41800000000E+01 0. -1.
        -11    1    1    2    0    0 -0.21684456808E+02  0.39128074287E+02  0.12231660664E+03  0.13024044734E+03  0.00000000000E+00 0.  1.
         11    1    1    2    0    0 -0.26284904624E+02 -0.58478272634E+02  0.25379117207E+03  0.26176432836E+03  0.00000000000E+00 0. -1.
</event>
<event>
 7    1  0.2490079E-009  0.1024590E+03  0.7561462E-02  0.1275208E+00
         -2   -1    0    0    0  501 -0.00000000000E+00  0.00000000000E+00  0.31029950822E+02  0.31029950822E+02  0.00000000000E+00 0.  1.
          2   -1    0    0  501    0  0.00000000000E+00 -0.00000000000E+00 -0.44099366404E+03  0.44099366404E+03  0.00000000000E+00 0. -1.
         25    2    1    2    0    0 -0.80061645282E+01 -0.41608621868E+02 -0.25243640200E+03  0.28489395729E+03  0.12508018934E+03 0.  0.
          5    1    3    3  502    0  0.19823041294E+02  0.39555707848E+02 -0.65374842023E+02  0.79050296388E+02  0.41800000000E+01 0.  1.
         -5    1    3    3    0  502 -0.27829205823E+02 -0.81164329716E+02 -0.18706155997E+03  0.20584366090E+03  0.41800000000E+01 0.  1.
        -11    1    1    2    0    0 -0.29957873734E+01 -0.15818767477E+02  0.29176472018E+01  0.16362176251E+02  0.00000000000E+00 0.  1.
         11    1    1    2    0    0  0.11001951902E+02  0.57427389345E+02 -0.16044495843E+03  0.17076748132E+03  0.00000000000E+00 0. -1.
</event>
<event>
 7    1  0.2490079E-009  0.1473921E+03  0.7561462E-02  0.1203715E+00
         -2   -1    0    0    0  501 -0.00000000000E+00  0.00000000000E+00  0.49668272503E+02  0.49668272503E+02  0.00000000000E+00 0.  1.
          2   -1    0    0  501    0  0.00000000000E+00 -0.00000000000E+00 -0.62240514097E+03  0.62240514097E+03  0.00000000000E+00 0. -1.
         25    2    1    2    0    0 -0.65524874484E+02 -0.93121162956E+02 -0.15397523212E+03  0.22873718053E+03  0.12508903023E+03 0.  0.
          5    1    3    3  502    0  0.31009660329E+02 -0.54501805264E+02 -0.40449594998E+02  0.74737460127E+02  0.41800000000E+01 0. -1.
         -5    1    3    3    0  502 -0.96534534812E+02 -0.38619357692E+02 -0.11352563713E+03  0.15399972040E+03  0.41800000000E+01 0. -1.
        -11    1    1    2    0    0  0.16718228043E+02  0.73336338357E+02 -0.34246892347E+03  0.35063183144E+03  0.00000000000E+00 0.  1.
         11    1    1    2    0    0  0.48806646441E+02  0.19784824599E+02 -0.76292712872E+02  0.92704401506E+02  0.00000000000E+00 0. -1.
</event>
<event>
 7    1  0.2490079E-009  0.1112945E+03  0.7561462E-02  0.1258191E+00
          3   -1    0    0  501    0  0.00000000000E+00  0.00000000000E+00  0.15421935194E+03  0.15421935194E+03  0.00000000000E+00 0. -1.
         -3   -1    0    0    0  501 -0.00000000000E+00 -0.00000000000E+00 -0.11779969032E+03  0.11779969032E+03  0.00000000000E+00 0.  1.
         25    2    1    2    0    0 -0.10750329193E+02  0.80582039719E+02  0.72724591472E+01  0.14935840828E+03  0.12508401480E+03 0.  0.
          5    1    3    3  502    0  0.17992756113E+02 -0.22342506090E+02  0.28135423392E+02  0.40398035848E+02  0.41800000000E+01 0.  1.
         -5    1    3    3    0  502 -0.28743085306E+02  0.10292454581E+03 -0.20862964245E+02  0.10896037243E+03  0.41800000000E+01 0.  1.
        -11    1    1    2    0    0  0.74397958315E+00 -0.75367991645E+02 -0.15209823528E+02  0.76891003388E+02  0.00000000000E+00 0.  1.
         11    1    1    2    0    0  0.10006349610E+02 -0.52140480743E+01  0.44357025997E+02  0.45769630599E+02  0.00000000000E+00 0. -1.
</event>
<event>
 7    1  0.2490079E-009  0.7812343E+02  0.7561462E-02  0.1334463E+00
          2   -1    0    0  501    0  0.00000000000E+00  0.00000000000E+00  0.59338531817E+03  0.59338531817E+03  0.00000000000E+00 0. -1.
         -2   -1    0    0    0  501 -0.00000000000E+00 -0.00000000000E+00 -0.25423022934E+02  0.25423022934E+02  0.00000000000E+00 0.  1.
         25    2    1    2    0    0 -0.11907254374E+02  0.36103304625E+02  0.43182260350E+03  0.45117982998E+03  0.12508895542E+03 0.  0.
          5    1    3    3  502    0 -0.18143805077E+02  0.45661181046E+02  0.43565426327E+03  0.43843614201E+03  0.41800000000E+01 0. -1.
         -5    1    3    3    0  502  0.62365507033E+01 -0.95578764209E+01 -0.38316597654E+01  0.12743687963E+02  0.41800000000E+01 0. -1.
        -11    1    1    2    0    0 -0.19680452606E+02 -0.54695400263E+02  0.62388995968E+02  0.85271881899E+02  0.00000000000E+00 0.  1.
         11    1    1    2    0    0  0.31587706980E+02  0.18592095638E+02  0.73750695766E+02  0.82356629232E+02  0.00000000000E+00 0. -1.
</event>
<event>
 7    1  0.2490079E-009  0.7675732E+02  0.7561462E-02  0.1338514E+00
         -1   -1    0    0    0  501 -0.00000000000E+00  0.00000000000E+00  0.63232199760E+02  0.63232199760E+02  0.00000000000E+00 0.  1.
          1   -1    0    0  501    0  0.00000000000E+00 -0.00000000000E+00 -0.24380106759E+03  0.24380106759E+03  0.00000000000E+00 0. -1.
         25    2    1    2    0    0  0.50371570906E+01 -0.16002863401E+02 -0.17209496401E+03  0.21341413763E+03  0.12508977941E+03 0.  0.
          5    1    3    3  502    0  0.36945425939E+00 -0.47240595812E+02 -0.17510340601E+03  0.18141247362E+03  0.41800000000E+01 0. -1.
         -5    1    3    3    0  502  0.46677028312E+01  0.31237732411E+02  0.30084420003E+01  0.32001664007E+02  0.41800000000E+01 0. -1.
        -11    1    1    2    0    0 -0.51271327171E+01 -0.28886827893E+02  0.24253869521E+02  0.38065555327E+02  0.00000000000E+00 0.  1.
         11    1    1    2    0    0  0.89975626552E-01  0.44889691294E+02 -0.32727773339E+02  0.55553574393E+02  0.00000000000E+00 0. -1.
</event>
<event>
 7    1  0.2490079E-009  0.1421782E+03  0.7561462E-02  0.1210428E+00
          1   -1    0    0  501    0  0.00000000000E+00  0.00000000000E+00  0.48713595397E+03  0.48713595397E+03  0.00000000000E+00 0. -1.
         -1   -1    0    0    0  501 -0.00000000000E+00 -0.00000000000E+00 -0.46413568979E+02  0.46413568979E+02  0.00000000000E+00 0.  1.
         25    2    1    2    0    0 -0.88810511253E+02  0.53693346263E+02  0.23813484995E+03  0.28831572138E+03  0.12508983209E+03 0.  0.
          5    1    3    3  502    0  0.24775095991E+02  0.29333939669E+02  0.10333403258E+03  0.11031627299E+03  0.41800000000E+01 0.  1.
         -5    1    3    3    0  502 -0.11358560724E+03  0.24359406593E+02  0.13480081737E+03  0.17799944838E+03  0.41800000000E+01 0.  1.
        -11    1    1    2    0    0  0.10796324637E+02  0.19644942291E+02  0.77005357021E+02  0.80201679491E+02  0.00000000000E+00 0. -1.
         11    1    1    2    0    0  0.78014186616E+02 -0.73338288553E+02  0.12558217802E+03  0.16503212208E+03  0.00000000000E+00 0.  1.
</event>
<event>
 7    1  0.2490079E-009  0.9593865E+02  0.7561462E-02  0.1289076E+00
         -1   -1    0    0    0  501 -0.00000000000E+00  0.00000000000E+00  0.57721679314E+02  0.57721679314E+02  0.00000000000E+00 0.  1.
          1   -1    0    0  501    0  0.00000000000E+00 -0.00000000000E+00 -0.32093374818E+03  0.32093374818E+03  0.00000000000E+00 0. -1.
         25    2    1    2    0    0 -0.60369972733E+02  0.13118404139E+02 -0.73672283890E+02  0.15777099450E+03  0.12508978839E+03 0.  0.
          5    1    3    3  502    0  0.15007641210E+02  0.38190522452E+02  0.98741014356E+01  0.42411267123E+02  0.41800000000E+01 0.  1.
         -5    1    3    3    0  502 -0.75377613943E+02 -0.25072118312E+02 -0.83546385326E+02  0.11535972738E+03  0.41800000000E+01 0.  1.
        -11    1    1    2    0    0  0.23025008288E+02  0.12110196282E+02  0.45932983508E-01  0.26015571693E+02  0.00000000000E+00 0.  1.
         11    1    1    2    0    0  0.37344964445E+02 -0.25228600421E+02 -0.18958571796E+03  0.19486886130E+03  0.00000000000E+00 0. -1.
</event>
<event>
 7    1  0.2490079E-009  0.3955631E+03  0.7561462E-02  0.1045327E+00
          1   -1    0    0  501    0  0.00000000000E+00  0.00000000000E+00  0.15418020928E+04  0.15418020928E+04  0.00000000000E+00 0. -1.
         -1   -1    0    0    0  501 -0.00000000000E+00 -0.00000000000E+00 -0.10908908522E+03  0.10908908522E+03  0.00000000000E+00 0.  1.
         25    2    1    2    0    0  0.31133907511E+03 -0.24304591001E+03  0.69517024046E+03  0.80926735825E+03  0.12509460361E+03 0.  0.
          5    1    3    3  502    0  0.29504643110E+03 -0.22769222733E+03  0.69238014551E+03  0.78632301581E+03  0.41800000000E+01 0.  1.
         -5    1    3    3    0  502  0.16292644003E+02 -0.15353682678E+02  0.27900949496E+01  0.22944342444E+02  0.41800000000E+01 0.  1.
        -11    1    1    2    0    0 -0.19620167650E+03  0.13892501859E+03  0.53417231388E+03  0.58577753419E+03  0.00000000000E+00 0.  1.
         11    1    1    2    0    0 -0.11513739861E+03  0.10412089142E+03  0.20337045323E+03  0.25584628557E+03  0.00000000000E+00 0. -1.
</event>
<event>
 7    1  0.2490079E-009  0.9800938E+02  0.7561462E-02  0.1284538E+00
          1   -1    0    0  501    0  0.00000000000E+00  0.00000000000E+00  0.37056434400E+03  0.37056434400E+03  0.00000000000E+00 0. -1.
         -1   -1    0    0    0  501 -0.00000000000E+00 -0.00000000000E+00 -0.47024624072E+02  0.47024624072E+02  0.00000000000E+00 0.  1.
         25    2    1    2    0    0 -0.23259309285E+02 -0.39237543673E+02  0.83214134694E+02  0.15701070731E+03  0.12508872729E+03 0.  0.
          5    1    3    3  502    0 -0.54031641982E+02 -0.48265740170E+02  0.97592949572E+02  0.12161766408E+03  0.41800000000E+01 0.  1.
         -5    1    3    3    0  502  0.30772332698E+02  0.90281964972E+01 -0.14378814878E+02  0.35393043228E+02  0.41800000000E+01 0.  1.
        -11    1    1    2    0    0  0.25723155801E+02  0.62567015125E+02  0.21776747430E+03  0.22803285945E+03  0.00000000000E+00 0. -1.
         11    1    1    2    0    0 -0.24638465166E+01 -0.23329471452E+02  0.22558110930E+02  0.32545401313E+02  0.00000000000E+00 0.  1.
</event>
<event>
 7    1  0.2490079E-009  0.1232634E+03  0.7561462E-02  0.1237808E+00
         -2   -1    0    0    0  501 -0.00000000000E+00  0.00000000000E+00  0.22997447723E+02  0.22997447723E+02  0.00000000000E+00 0.  1.
          2   -1    0    0  501    0  0.00000000000E+00 -0.00000000000E+00 -0.77066401852E+03  0.77066401852E+03  0.00000000000E+00 0. -1.
         25    2    1    2    0    0 -0.58495471064E+02 -0.45922030775E+02 -0.45817713184E+03  0.48073446471E+03  0.12509511732E+03 0.  0.
          5    1    3    3  502    0 -0.87991605944E+02 -0.24498237314E+02 -0.19934111964E+03  0.21931037533E+03  0.41800000000E+01 0.  1.
         -5    1    3    3    0  502  0.29496134880E+02 -0.21423793461E+02 -0.25883601220E+03  0.26142408938E+03  0.41800000000E+01 0.  1.
        -11    1    1    2    0    0  0.50567627771E+02  0.73773662324E+02 -0.20677080150E+03  0.22528604614E+03  0.00000000000E+00 0.  1.
         11    1    1    2    0    0  0.79278432928E+01 -0.27851631548E+02 -0.82718637463E+02  0.87640955397E+02  0.00000000000E+00 0. -1.
</event>
<event>
 7    1  0.2490079E-009  0.1064917E+03  0.7561462E-02  0.1267208E+00
         -2   -1    0    0    0  501 -0.00000000000E+00  0.00000000000E+00  0.63257952071E+02  0.63257952071E+02  0.00000000000E+00 0.  1.
          2   -1    0    0  501    0  0.00000000000E+00 -0.00000000000E+00 -0.24372860302E+03  0.24372860302E+03  0.00000000000E+00 0. -1.
         25    2    1    2    0    0  0.48769648879E+02  0.46824562338E+01 -0.57145798205E+02  0.14599730727E+03  0.12509663237E+03 0.  0.
          5    1    3    3  502    0 -0.56849219253E+01 -0.51548746647E+02 -0.40319543275E+02  0.65823472926E+02  0.41800000000E+01 0.  1.
         -5    1    3    3    0  502  0.54454570804E+02  0.56231202880E+02 -0.16826254930E+02  0.80173834346E+02  0.41800000000E+01 0.  1.
        -11    1    1    2    0    0  0.43067868763E+00 -0.28081308748E+02 -0.21938065972E+01  0.28170164581E+02  0.00000000000E+00 0.  1.
         11    1    1    2    0    0 -0.49200327566E+02  0.23398852514E+02 -0.12113104615E+03  0.13281908324E+03  0.00000000000E+00 0. -1.
</event>
<event>
 7    1  0.2490079E-009  0.1059259E+03  0.7561462E-02  0.1268306E+00
          1   -1    0    0  501    0  0.00000000000E+00  0.00000000000E+00  0.87541059592E+03  0.87541059592E+03  0.00000000000E+00 0. -1.
         -1   -1    0    0    0  501 -0.00000000000E+00 -0.00000000000E+00 -0.15903662687E+02  0.15903662687E+02  0.00000000000E+00 0.  1.
         25    2    1    2    0    0 -0.32617818823E+02 -0.33854353798E+02  0.44600000616E+03  0.46559015538E+03  0.12509255738E+03 0.  0.
          5    1    3    3  502    0 -0.73568317533E+02  0.13629704816E+01  0.18728289266E+03  0.20126228985E+03  0.41800000000E+01 0.  1.
         -5    1    3    3    0  502  0.40950498710E+02 -0.35217324279E+02  0.25871711350E+03  0.26432786552E+03  0.41800000000E+01 0.  1.
        -11    1    1    2    0    0 -0.42967323864E+01 -0.19017142289E+02  0.24025925019E+02  0.30941213342E+02  0.00000000000E+00 0.  1.
         11    1    1    2    0    0  0.36914551209E+02  0.52871496087E+02  0.38948100205E+03  0.39478288989E+03  0.00000000000E+00 0. -1.
</event>
<event>
 7    1  0.2490079E-009  0.1286128E+03  0.7561462E-02  0.1229529E+00
          1   -1    0    0  501    0  0.00000000000E+00  0.00000000000E+00  0.35227155410E+03  0.35227155410E+03  0.00000000000E+00 0. -1.
         -1   -1    0    0    0  501 -0.00000000000E+00 -0.00000000000E+00 -0.80433041514E+02  0.80433041514E+02  0.00000000000E+00 0.  1.
         25    2    1    2    0    0 -0.12102848239E+03  0.33973207167E+02  0.83281417496E+02  0.19592072705E+03  0.12508822660E+03 0.  0.
          5    1    3    3  502    0 -0.12002483581E+03  0.27426909914E+02  0.11179302378E+03  0.16635308583E+03  0.41800000000E+01 0. -1.
         -5    1    3    3    0  502 -0.10036465794E+01  0.65462972527E+01 -0.28511606288E+02  0.29567641220E+02  0.41800000000E+01 0. -1.
        -11    1    1    2    0    0  0.10784019679E+03 -0.26509943547E+02  0.19147865797E+03  0.22135121777E+03  0.00000000000E+00 0. -1.
         11    1    1    2    0    0  0.13188285597E+02 -0.74632636192E+01 -0.29215628800E+01  0.15432650793E+02  0.00000000000E+00 0.  1.
</event>
<event>
 7    1  0.2490079E-009  0.1291564E+03  0.7561462E-02  0.1228713E+00
          2   -1    0    0  501    0  0.00000000000E+00  0.00000000000E+00  0.56384542287E+02  0.56384542287E+02  0.00000000000E+00 0. -1.
         -2   -1    0    0    0  501 -0.00000000000E+00 -0.00000000000E+00 -0.41559635005E+03  0.41559635005E+03  0.00000000000E+00 0.  1.
         25    2    1    2    0    0  0.10829889000E+02 -0.98494102819E+02 -0.25659863319E+03  0.30217224187E+03  0.12508729117E+03 0.  0.
          5    1    3    3  502    0  0.13502080898E+02  0.28542791326E+02 -0.62422904503E+02  0.70079159041E+02  0.41800000000E+01 0.  1.
         -5    1    3    3    0  502 -0.26721918972E+01 -0.12703689415E+03 -0.19417572869E+03  0.23209308283E+03  0.41800000000E+01 0.  1.
        -11    1    1    2    0    0 -0.44439559786E+01  0.16567613749E+02 -0.83760396632E+02  0.85498763816E+02  0.00000000000E+00 0.  1.
         11    1    1    2    0    0 -0.63859330219E+01  0.81926489070E+02 -0.18852777939E+02  0.84309886656E+02  0.00000000000E+00 0. -1.
</event>
<event>
 7    1  0.2490079E-009  0.1365124E+03  0.7561462E-02  0.1218100E+00
          1   -1    0    0  501    0  0.00000000000E+00  0.00000000000E+00  0.25822491853E+03  0.25822491853E+03  0.00000000000E+00 0. -1.
         -1   -1    0    0    0  501 -0.00000000000E+00 -0.00000000000E+00 -0.76663538598E+02  0.76663538598E+02  0.00000000000E+00 0.  1.
         25    2    1    2    0    0 -0.74065527611E+02 -0.42417747990E+02  0.69307042036E+02  0.16654955633E+03  0.12510124265E+03 0.  0.
          5    1    3    3  502    0  0.11260913649E+02 -0.62521591741E+02  0.30358511465E+02  0.70532752877E+02  0.41800000000E+01 0.  1.
         -5    1    3    3    0  502 -0.85326441260E+02  0.20103843751E+02  0.38948530571E+02  0.96016803453E+02  0.41800000000E+01 0.  1.
        -11    1    1    2    0    0  0.80969950470E+02  0.24178526011E+01  0.54066445527E+02  0.97391783135E+02  0.00000000000E+00 0.  1.
         11    1    1    2    0    0 -0.69044228589E+01  0.39999895389E+02  0.58187892368E+02  0.70947117660E+02  0.00000000000E+00 0. -1.
</event>
<event>
 7    1  0.2490079E-009  0.1378203E+03  0.7561462E-02  0.1216292E+00
         -2   -1    0    0    0  501 -0.00000000000E+00  0.00000000000E+00  0.36768462830E+02  0.36768462830E+02  0.00000000000E+00 0.  1.
          2   -1    0    0  501    0  0.00000000000E+00 -0.00000000000E+00 -0.62098552041E+03  0.62098552041E+03  0.00000000000E+00 0. -1.
         25    2    1    2    0    0 -0.23905665439E+02  0.10251456849E+03 -0.30780888616E+03  0.34853276333E+03  0.12509220249E+03 0.  0.
          5    1    3    3  502    0  0.31431433601E+02  0.11273315694E+02 -0.17453917803E+03  0.17775381777E+03  0.41800000000E+01 0.  1.
         -5    1    3    3    0  502 -0.55337099040E+02  0.91241252797E+02 -0.13326970813E+03  0.17077894556E+03  0.41800000000E+01 0.  1.
        -11    1    1    2    0    0  0.22995533818E+00  0.15160562758E+02 -0.13890497899E+02  0.20563109553E+02  0.00000000000E+00 0.  1.
         11    1    1    2    0    0  0.23675710101E+02 -0.11767513125E+03 -0.26251767352E+03  0.28865811036E+03  0.00000000000E+00 0. -1.
</event>
<event>
 7    1  0.2490079E-009  0.1313087E+03  0.7561462E-02  0.1225527E+00
          2   -1    0    0  501    0  0.00000000000E+00  0.00000000000E+00  0.37172964860E+03  0.37172964860E+03  0.00000000000E+00 0. -1.
         -2   -1    0    0    0  501 -0.00000000000E+00 -0.00000000000E+00 -0.62217868503E+02  0.62217868503E+02  0.00000000000E+00 0.  1.
         25    2    1    2    0    0  0.31373884738E+02 -0.16969204781E+02  0.19790681292E+03  0.23682804936E+03  0.12509254099E+03 0.  0.
          5    1    3    3  502    0 -0.47520123421E+02  0.46039811655E+01  0.80330538751E+02  0.93540507955E+02  0.41800000000E+01 0.  1.
         -5    1    3    3    0  502  0.78894008159E+02 -0.21573185947E+02  0.11757627417E+03  0.14328754141E+03  0.41800000000E+01 0.  1.
        -11    1    1    2    0    0 -0.77397261752E+02 -0.12132846710E+02  0.11868355484E+03  0.14220874897E+03  0.00000000000E+00 0. -1.
         11    1    1    2    0    0  0.46023377013E+02  0.29102051491E+02 -0.70785876553E+01  0.54910718771E+02  0.00000000000E+00 0.  1.
</event>
<event>
 7    1  0.2490079E-009  0.1111868E+03  0.7561462E-02  0.1258388E+00
          2   -1    0    0  501    0  0.00000000000E+00  0.00000000000E+00  0.10503578021E+03  0.10503578021E+03  0.00000000000E+00 0. -1.
         -2   -1    0    0    0  501 -0.00000000000E+00 -0.00000000000E+00 -0.31191500333E+03  0.31191500333E+03  0.00000000000E+00 0.  1.
         25    2    1    2    0    0  0.72748324631E+02 -0.55143138356E+02 -0.23954324798E+03  0.28523954288E+03  0.12509014640E+03 0.  0.
          5    1    3    3  502    0 -0.69600806461E+01 -0.29604545721E+02 -0.17959869390E+03  0.18220327961E+03  0.41800000000E+01 0.  1.
         -5    1    3    3    0  502  0.79708405277E+02 -0.25538592635E+02 -0.59944554079E+02  0.10303626327E+03  0.41800000000E+01 0.  1.
        -11    1    1    2    0    0 -0.18893042515E+01  0.33821795972E+02 -0.21399841142E+02  0.40067899299E+02  0.00000000000E+00 0. -1.
         11    1    1    2    0    0 -0.70859020379E+02  0.21321342384E+02  0.54063865993E+02  0.91643341364E+02  0.00000000000E+00 0.  1.
</event>
<event>
 7    1  0.2490079E-009  0.9244484E+02  0.7561462E-02  0.1297037E+00
          1   -1    0    0  501    0  0.00000000000E+00  0.00000000000E+00  0.62664623981E+03  0.62664623981E+03  0.00000000000E+00 0. -1.
         -1   -1    0    0    0  501 -0.00000000000E+00 -0.00000000000E+00 -0.25107439811E+02  0.25107439811E+02  0.00000000000E+00 0.  1.
         25    2    1    2    0    0  0.70567928281E+01 -0.33609429636E+02  0.19572451213E+03  0.23480593931E+03  0.12508538046E+03 0.  0.
          5    1    3    3  502    0  0.44403889028E+02 -0.45514516788E+01  0.17886631487E+03  0.18439916505E+03  0.41800000000E+01 0. -1.
         -5    1    3    3    0  502 -0.37347096200E+02 -0.29057977957E+02  0.16858197253E+02  0.50406774269E+02  0.41800000000E+01 0. -1.
        -11    1    1    2    0    0 -0.46631999145E+02  0.16994409717E+02  0.16370830679E+03  0.17106654558E+03  0.00000000000E+00 0.  1.
         11    1    1    2    0    0  0.39575206317E+02  0.16615019919E+02  0.24210598109E+03  0.24588119473E+03  0.00000000000E+00 0. -1.
</event>
<event>
 7    1  0.2490079E-009  0.6018664E+02  0.7561462E-02  0.1397050E+00
         -2   -1    0    0    0  501 -0.00000000000E+00  0.00000000000E+00  0.78623347306E+02  0.78623347306E+02  0.00000000000E+00 0. -1.
          2   -1    0    0  501    0  0.00000000000E+00 -0.00000000000E+00 -0.17273433542E+03  0.17273433542E+03  0.00000000000E+00 0.  1.
         25    2    1    2    0    0  0.35011965383E+00  0.15124532727E+00 -0.98518698255E+02  0.15922721409E+03  0.12508887377E+03 0.  0.
          5    1    3    3  502    0  0.23700409096E+02  0.21656442747E+02 -0.11758578464E+03  0.12196146954E+03  0.41800000000E+01 0.  1.
         -5    1    3    3    0  502 -0.23350289442E+02 -0.21505197419E+02  0.19067086387E+02  0.37265744543E+02  0.41800000000E+01 0.  1.
        -11    1    1    2    0    0  0.10844886515E+02  0.25652958914E+02 -0.34362182477E+02  0.44231724465E+02  0.00000000000E+00 0.  1.
         11    1    1    2    0    0 -0.11195006169E+02 -0.25804204241E+02  0.38769892618E+02  0.47898744172E+02  0.00000000000E+00 0. -1.
</event>
<event>
 7    1  0.2490079E-009  0.8962651E+02  0.7561462E-02  0.1303759E+00
         -1   -1    0    0    0  501 -0.00000000000E+00  0.00000000000E+00  0.41100979566E+02  0.41100979566E+02  0.00000000000E+00 0.  1.
          1   -1    0    0  501    0  0.00000000000E+00 -0.00000000000E+00 -0.46626656462E+03  0.46626656462E+03  0.00000000000E+00 0. -1.
         25    2    1    2    0    0 -0.59689661323E+02 -0.59980546390E+02 -0.21823448406E+03  0.26539261249E+03  0.12508567911E+03 0.  0.
          5    1    3    3  502    0 -0.45172674581E+02 -0.63471527379E+02 -0.23193308151E+03  0.24470315081E+03  0.41800000000E+01 0. -1.
         -5    1    3    3    0  502 -0.14516986742E+02  0.34909809894E+01  0.13698597455E+02  0.20689461680E+02  0.41800000000E+01 0. -1.
        -11    1    1    2    0    0  0.34895147005E+02  0.25313501305E+02 -0.15429531763E+02  0.45787717602E+02  0.00000000000E+00 0.  1.
         11    1    1    2    0    0  0.24794514319E+02  0.34667045085E+02 -0.19150156923E+03  0.19618721410E+03  0.00000000000E+00 0. -1.
</event>
<event>
 7    1  0.2490079E-009  0.2193878E+03  0.7561462E-02  0.1134340E+00
         -1   -1    0    0    0  501 -0.00000000000E+00  0.00000000000E+00  0.16657031282E+04  0.16657031282E+04  0.00000000000E+00 0.  1.
          1   -1    0    0  501    0  0.00000000000E+00 -0.00000000000E+00 -0.31357251263E+02  0.31357251263E+02  0.00000000000E+00 0. -1.
         25    2    1    2    0    0  0.17477443485E+03  0.96524103426E+02  0.77330631883E+03  0.80840279981E+03  0.12509763537E+03 0.  0.
          5    1    3    3  502    0  0.96514471487E+02  0.11974768608E+03  0.50912739266E+03  0.53186720700E+03  0.41800000000E+01 0. -1.
         -5    1    3    3    0  502  0.78259963366E+02 -0.23223582649E+02  0.26417892618E+03  0.27653559281E+03  0.41800000000E+01 0. -1.
        -11    1    1    2    0    0 -0.79086105664E+02 -0.65188801587E+02  0.60339087115E+03  0.61203327961E+03  0.00000000000E+00 0.  1.
         11    1    1    2    0    0 -0.95688329190E+02 -0.31335301840E+02  0.25764868694E+03  0.27662430003E+03  0.00000000000E+00 0. -1.
</event>
<event>
 7    1  0.2490079E-009  0.1328240E+03  0.7561462E-02  0.1223325E+00
          1   -1    0    0  501    0  0.00000000000E+00  0.00000000000E+00  0.85252377964E+03  0.85252377964E+03  0.00000000000E+00 0.  1.
         -1   -1    0    0    0  501 -0.00000000000E+00 -0.00000000000E+00 -0.33779441454E+02  0.33779441454E+02  0.00000000000E+00 0. -1.
         25    2    1    2    0    0  0.10411263484E+03 -0.93381694250E+01  0.63348396251E+03  0.65412246752E+03  0.12509048571E+03 0.  0.
          5    1    3    3  502    0  0.81611828546E+02  0.47844015918E+02  0.46947222459E+03  0.47892711604E+03  0.41800000000E+01 0. -1.
         -5    1    3    3    0  502  0.22500806296E+02 -0.57182185343E+02  0.16401173792E+03  0.17519535148E+03  0.41800000000E+01 0. -1.
        -11    1    1    2    0    0 -0.77414172231E+02 -0.75323935698E+01  0.18490363372E+03  0.20059672175E+03  0.00000000000E+00 0.  1.
         11    1    1    2    0    0 -0.26698462611E+02  0.16870562995E+02  0.35674196173E+00  0.31584031826E+02  0.00000000000E+00 0. -1.
</event>
<event>
 7    1  0.4483285E-009  0.1103328E+03  0.7561462E-02  0.1259955E+00
          1   -1    0    0  501    0  0.00000000000E+00  0.00000000000E+00  0.46157662440E+03  0.46157662440E+03  0.00000000000E+00 0. -1.
         -1   -1    0    0    0  501 -0.00000000000E+00 -0.00000000000E+00 -0.42084767256E+02  0.42084767256E+02  0.00000000000E+00 0.  1.
         25    2    1    2    0    0 -0.11453007099E+02  0.64383192544E+02  0.33327360900E+03  0.36193328163E+03  0.12509210622E+03 0.  0.
          5    1    3    3  502    0 -0.65343811159E+02  0.46841333257E+02  0.15261770005E+03  0.17255016351E+03  0.41800000000E+01 0.  1.
         -5    1    3    3    0  502  0.53890804060E+02  0.17541859287E+02  0.18065590896E+03  0.18938311812E+03  0.41800000000E+01 0.  1.
        -11    1    1    2    0    0  0.26657557528E+02 -0.12834464413E+02 -0.10239631779E+02  0.31308128483E+02  0.00000000000E+00 0.  1.
         11    1    1    2    0    0 -0.15204550429E+02 -0.51548728130E+02  0.96457879915E+02  0.11041998154E+03  0.00000000000E+00 0. -1.
</event>
<event>
 7    1  0.2490079E-009  0.5310876E+02  0.7561462E-02  0.1429260E+00
         -4   -1    0    0    0  501 -0.00000000000E+00  0.00000000000E+00  0.72022428840E+02  0.72022428840E+02  0.00000000000E+00 0.  1.
          4   -1    0    0  501    0  0.00000000000E+00 -0.00000000000E+00 -0.19581723527E+03  0.19581723527E+03  0.00000000000E+00 0. -1.
         25    2    1    2    0    0  0.30088675927E+02 -0.10130016744E+02 -0.29983114168E+02  0.13248977349E+03  0.12508639928E+03 0.  0.
          5    1    3    3  502    0  0.17965395860E+01 -0.13876164280E+02  0.47562404957E+02  0.49753695892E+02  0.41800000000E+01 0.  1.
         -5    1    3    3    0  502  0.28292136340E+02  0.37461475357E+01 -0.77545519125E+02  0.82736077598E+02  0.41800000000E+01 0.  1.
        -11    1    1    2    0    0  0.14876810654E+02 -0.44039018541E+01 -0.86078224243E+02  0.87465276171E+02  0.00000000000E+00 0. -1.
         11    1    1    2    0    0 -0.44965486580E+02  0.14533918599E+02 -0.77334680167E+01  0.47884614447E+02  0.00000000000E+00 0.  1.
</event>
<event>
 7    1  0.2490079E-009  0.1462876E+03  0.7561462E-02  0.1205110E+00
         -1   -1    0    0    0  501 -0.00000000000E+00  0.00000000000E+00  0.69087300000E+02  0.69087300000E+02  0.00000000000E+00 0.  1.
          1   -1    0    0  501    0  0.00000000000E+00 -0.00000000000E+00 -0.46735274025E+03  0.46735274025E+03  0.00000000000E+00 0. -1.
         25    2    1    2    0    0  0.94620544073E+02  0.23811894820E+02 -0.36539894449E+03  0.39835156077E+03  0.12509006209E+03 0.  0.
          5    1    3    3  502    0  0.10860027221E+03  0.56758494008E+02 -0.28193524365E+03  0.30744186406E+03  0.41800000000E+01 0. -1.
         -5    1    3    3    0  502 -0.13979728136E+02 -0.32946599188E+02 -0.83463700846E+02  0.90909696709E+02  0.41800000000E+01 0. -1.
        -11    1    1    2    0    0 -0.41044670385E+02  0.35312988467E+02 -0.16875570022E+02  0.56713816527E+02  0.00000000000E+00 0. -1.
         11    1    1    2    0    0 -0.53575873688E+02 -0.59124883287E+02 -0.15990925736E+02  0.81374662955E+02  0.00000000000E+00 0.  1.
</event>
<event>
 7    1  0.2490079E-009  0.1275785E+03  0.7561462E-02  0.1231094E+00
         -1   -1    0    0    0  501 -0.00000000000E+00  0.00000000000E+00  0.38396856019E+02  0.38396856019E+02  0.00000000000E+00 0.  1.
          1   -1    0    0  501    0  0.00000000000E+00 -0.00000000000E+00 -0.56827702856E+03  0.56827702856E+03  0.00000000000E+00 0. -1.
         25    2    1    2    0    0 -0.56939768353E+02 -0.79723288008E+02 -0.26472030632E+03  0.30874352577E+03  0.12509110384E+03 0.  0.
          5    1    3    3  502    0 -0.24448462469E+02 -0.10777603518E+03 -0.22208481602E+03  0.24809784155E+03  0.41800000000E+01 0.  1.
         -5    1    3    3    0  502 -0.32491305884E+02  0.28052747170E+02 -0.42635490295E+02  0.60645684221E+02  0.41800000000E+01 0.  1.
        -11    1    1    2    0    0  0.33548768853E+02  0.24745269136E+02 -0.21762170877E+03  0.22157855574E+03  0.00000000000E+00 0. -1.
         11    1    1    2    0    0  0.23390999501E+02  0.54978018872E+02 -0.47538157449E+02  0.76351803059E+02  0.00000000000E+00 0.  1.
</event>
<event>
 7    1  0.3419655E-009  0.7812865E+02  0.7561462E-02  0.1334448E+00
          1   -1    0    0  501    0  0.00000000000E+00  0.00000000000E+00  0.10201933711E+04  0.10201933711E+04  0.00000000000E+00 0. -1.
         -1   -1    0    0    0  501 -0.00000000000E+00 -0.00000000000E+00 -0.14228624816E+02  0.14228624816E+02  0.00000000000E+00 0.  1.
         25    2    1    2    0    0 -0.29817734640E+02 -0.70731589856E+00  0.75788374970E+03  0.76871668127E+03  0.12509180790E+03 0.  0.
          5    1    3    3  502    0 -0.45409842095E+02  0.21205157196E+02  0.72164735499E+03  0.72339760147E+03  0.41800000000E+01 0. -1.
         -5    1    3    3    0  502  0.15592107455E+02 -0.21912473095E+02  0.36236394712E+02  0.45319079798E+02  0.41800000000E+01 0. -1.
        -11    1    1    2    0    0  0.30705899890E+02  0.33788560871E+02  0.21152000122E+03  0.21639138164E+03  0.00000000000E+00 0. -1.
         11    1    1    2    0    0 -0.88816524942E+00 -0.33081244972E+02  0.36560995370E+02  0.49313933010E+02  0.00000000000E+00 0.  1.
</event>
<event>
 7    1  0.2490079E-009  0.1278125E+03  0.7561462E-02  0.1230738E+00
          2   -1    0    0  501    0  0.00000000000E+00  0.00000000000E+00  0.21283867594E+03  0.21283867594E+03  0.00000000000E+00 0. -1.
         -2   -1    0    0    0  501 -0.00000000000E+00 -0.00000000000E+00 -0.99243854003E+02  0.99243854003E+02  0.00000000000E+00 0.  1.
         25    2    1    2    0    0 -0.73902892271E+02  0.61511231433E+02  0.61946494233E+02  0.16950316788E+03  0.12509471091E+03 0.  0.
          5    1    3    3  502    0 -0.17759137155E+02 -0.38716283211E+02  0.18050670947E+02  0.46450367704E+02  0.41800000000E+01 0. -1.
         -5    1    3    3    0  502 -0.56143755116E+02  0.10022751464E+03  0.43895823285E+02  0.12305280018E+03  0.41800000000E+01 0. -1.
        -11    1    1    2    0    0  0.92146096417E+01 -0.17027607025E+02  0.60549199571E+02  0.63569285040E+02  0.00000000000E+00 0. -1.
         11    1    1    2    0    0  0.64688282629E+02 -0.44483624408E+02 -0.89008718707E+01  0.79010077015E+02  0.00000000000E+00 0.  1.
</event>
<event>
 7    1  0.2490079E-009  0.1357598E+03  0.7561462E-02  0.1219151E+00
         -1   -1    0    0    0  501 -0.00000000000E+00  0.00000000000E+00  0.17609012897E+03  0.17609012897E+03  0.00000000000E+00 0.  1.
          1   -1    0    0  501    0  0.00000000000E+00 -0.00000000000E+00 -0.13811938975E+03  0.13811938975E+03  0.00000000000E+00 0. -1.
         25    2    1    2    0    0 -0.96310567721E+02 -0.48456454800E+02  0.52219728234E+02  0.17320259717E+03  0.12509390946E+03 0.  0.
          5    1    3    3  502    0 -0.83647072459E+02 -0.29353643011E+01 -0.20598684057E+02  0.86297319075E+02  0.41800000000E+01 0.  1.
         -5    1    3    3    0  502 -0.12663495261E+02 -0.45521090499E+02  0.72818412291E+02  0.86905278097E+02  0.41800000000E+01 0.  1.
        -11    1    1    2    0    0  0.15276865238E+02 -0.26051987593E+02 -0.27095446357E+01  0.30322109115E+02  0.00000000000E+00 0. -1.
         11    1    1    2    0    0  0.81033702483E+02  0.74508442393E+02 -0.11539444374E+02  0.11068481243E+03  0.00000000000E+00 0.  1.
</event>
<event>
 7    1  0.2490079E-009  0.1421221E+03  0.7561462E-02  0.1210502E+00
          1   -1    0    0  501    0  0.00000000000E+00  0.00000000000E+00  0.44480259613E+03  0.44480259613E+03  0.00000000000E+00 0.  1.
         -1   -1    0    0    0  501 -0.00000000000E+00 -0.00000000000E+00 -0.47657800192E+02  0.47657800192E+02  0.00000000000E+00 0. -1.
         25    2    1    2    0    0 -0.19904367147E+02 -0.92378760662E+02  0.25330954364E+03  0.29789597342E+03  0.12508503837E+03 0.  0.
          5    1    3    3  502    0 -0.26398296412E+02 -0.12244378798E+03  0.19413633245E+03  0.23107518094E+03  0.41800000000E+01 0. -1.
         -5    1    3    3    0  502  0.64939292644E+01  0.30065027315E+02  0.59173211193E+02  0.66820792480E+02  0.41800000000E+01 0. -1.
        -11    1    1    2    0    0 -0.34195258591E+02  0.32464974225E+02  0.74413776602E+02  0.88094837588E+02  0.00000000000E+00 0. -1.
         11    1    1    2    0    0  0.54099625738E+02  0.59913786437E+02  0.69421475691E+02  0.10646958532E+03  0.00000000000E+00 0.  1.
</event>
<event>
 7    1  0.2490079E-009  0.1345562E+03  0.7561462E-02  0.1220848E+00
          1   -1    0    0  501    0  0.00000000000E+00  0.00000000000E+00  0.10129979702E+03  0.10129979702E+03  0.00000000000E+00 0. -1.
         -1   -1    0    0    0  501 -0.00000000000E+00 -0.00000000000E+00 -0.26993504759E+03  0.26993504759E+03  0.00000000000E+00 0.  1.
         25    2    1    2    0    0 -0.50161184373E+02 -0.72471857593E+02 -0.18808318510E+03  0.24246853142E+03  0.12508952655E+03 0.  0.
          5    1    3    3  502    0 -0.70495451965E+02 -0.97466896925E+02 -0.14332253878E+03  0.18715829468E+03  0.41800000000E+01 0. -1.
         -5    1    3    3    0  502  0.20334267592E+02  0.24995039332E+02 -0.44760646323E+02  0.55310236747E+02  0.41800000000E+01 0. -1.
        -11    1    1    2    0    0 -0.17615742476E+02  0.34081841718E+02 -0.17953465865E+02  0.42358154521E+02  0.00000000000E+00 0.  1.
         11    1    1    2    0    0  0.67776926849E+02  0.38390015875E+02  0.37401400396E+02  0.86408158663E+02  0.00000000000E+00 0. -1.
</event>
<event>
 7    1  0.2490079E-009  0.9233032E+02  0.7561462E-02  0.1297305E+00
         -2   -1    0    0    0  501 -0.00000000000E+00  0.00000000000E+00  0.22363223277E+02  0.22363223277E+02  0.00000000000E+00 0. -1.
          2   -1    0    0  501    0  0.00000000000E+00 -0.00000000000E+00 -0.53398739124E+03  0.53398739124E+03  0.00000000000E+00 0.  1.
         25    2    1    2    0    0 -0.16913107918E+02 -0.22553118456E+02 -0.36355114486E+03  0.38549769672E+03  0.12507734758E+03 0.  0.
          5    1    3    3  502    0 -0.56444754296E+02 -0.18381526699E+02 -0.83088014760E+02  0.10220069182E+03  0.41800000000E+01 0.  1.
         -5    1    3    3    0  502  0.39531646378E+02 -0.41715917567E+01 -0.28046313010E+03  0.28329700490E+03  0.41800000000E+01 0.  1.
        -11    1    1    2    0    0  0.46268703493E+02 -0.28550265928E+01 -0.77530784132E+02  0.90332533386E+02  0.00000000000E+00 0. -1.
         11    1    1    2    0    0 -0.29355595575E+02  0.25408145049E+02 -0.70542238978E+02  0.80520384415E+02  0.00000000000E+00 0.  1.
</event>
<event>
 7    1  0.2490079E-009  0.8422753E+02  0.7561462E-02  0.1317465E+00
          4   -1    0    0  501    0  0.00000000000E+00  0.00000000000E+00  0.36631720751E+03  0.36631720751E+03  0.00000000000E+00 0. -1.
         -4   -1    0    0    0  501 -0.00000000000E+00 -0.00000000000E+00 -0.34032726239E+02  0.34032726239E+02  0.00000000000E+00 0.  1.
         25    2    1    2    0    0  0.10198836586E+02 -0.66950762677E+01  0.23293061997E+03  0.26467164919E+03  0.12508224434E+03 0.  0.
          5    1    3    3  502    0 -0.25253424682E+02 -0.46869673559E+02  0.47036466393E+02  0.71164621326E+02  0.41800000000E+01 0. -1.
         -5    1    3    3    0  502  0.35452261268E+02  0.40174597291E+02  0.18589415358E+03  0.19350702786E+03  0.41800000000E+01 0. -1.
        -11    1    1    2    0    0 -0.28307573568E+02 -0.15808841147E+02  0.10165616018E+03  0.10670151397E+03  0.00000000000E+00 0. -1.
         11    1    1    2    0    0  0.18108736982E+02  0.22503917415E+02 -0.23022988827E+01  0.28976770597E+02  0.00000000000E+00 0.  1.
</event>
<event>
 7    1  0.2490079E-009  0.1034290E+03  0.7561462E-02  0.1273246E+00
         -4   -1    0    0    0  501 -0.00000000000E+00  0.00000000000E+00  0.38836395369E+02  0.38836395369E+02  0.00000000000E+00 0.  1.
          4   -1    0    0  501    0  0.00000000000E+00 -0.00000000000E+00 -0.42417087415E+03  0.42417087415E+03  0.00000000000E+00 0. -1.
         25    2    1    2    0    0 -0.65754884967E+02 -0.12281176622E+02 -0.24233432393E+03  0.28079997716E+03  0.12509264734E+03 0.  0.
          5    1    3    3  502    0 -0.79820443393E+02  0.14577509913E+02 -0.74617197666E+02  0.11031321574E+03  0.41800000000E+01 0.  1.
         -5    1    3    3    0  502  0.14065558426E+02 -0.26858686536E+02 -0.16771712627E+03  0.17048676142E+03  0.41800000000E+01 0.  1.
        -11    1    1    2    0    0  0.16520844906E+02  0.36552427899E+02 -0.11244284101E+03  0.11938346115E+03  0.00000000000E+00 0. -1.
         11    1    1    2    0    0  0.49234040061E+02 -0.24271251277E+02 -0.30557313839E+02  0.62823831213E+02  0.00000000000E+00 0.  1.
</event>
<event>
 7    1  0.2490079E-009  0.1159762E+03  0.7561462E-02  0.1249887E+00
         -1   -1    0    0    0  501 -0.00000000000E+00  0.00000000000E+00  0.97707485747E+02  0.97707485747E+02  0.00000000000E+00 0.  1.
          1   -1    0    0  501    0  0.00000000000E+00 -0.00000000000E+00 -0.30947618786E+03  0.30947618786E+03  0.00000000000E+00 0. -1.
         25    2    1    2    0    0 -0.22926457863E+02  0.48646171091E+02 -0.26099039145E+02  0.13863524462E+03  0.12508596554E+03 0.  0.
          5    1    3    3  502    0  0.75142544315E+01  0.39090327825E+02 -0.72119115121E+02  0.82481251900E+02  0.41800000000E+01 0.  1.
         -5    1    3    3    0  502 -0.30440712294E+02  0.95558432655E+01  0.46020075976E+02  0.56153992719E+02  0.41800000000E+01 0.  1.
        -11    1    1    2    0    0 -0.47565469647E+02  0.28338087957E+02 -0.14725810248E+03  0.15732282059E+03  0.00000000000E+00 0. -1.
         11    1    1    2    0    0  0.70491927510E+02 -0.76984259048E+02 -0.38411560492E+02  0.11122560840E+03  0.00000000000E+00 0.  1.
</event>
<event>
 7    1  0.2490079E-009  0.1524488E+03  0.7561462E-02  0.1197496E+00
          2   -1    0    0  501    0  0.00000000000E+00  0.00000000000E+00  0.17376419341E+03  0.17376419341E+03  0.00000000000E+00 0. -1.
         -2   -1    0    0    0  501 -0.00000000000E+00 -0.00000000000E+00 -0.17808491929E+03  0.17808491929E+03  0.00000000000E+00 0.  1.
         25    2    1    2    0    0 -0.98849613887E+02 -0.65310235339E+02 -0.76957866779E+02  0.18870422553E+03  0.12510035358E+03 0.  0.
          5    1    3    3  502    0  0.25129259940E+02 -0.18643364656E+02 -0.40298551385E+02  0.51190823343E+02  0.41800000000E+01 0.  1.
         -5    1    3    3    0  502 -0.12397887383E+03 -0.46666870684E+02 -0.36659315393E+02  0.13751340218E+03  0.41800000000E+01 0.  1.
        -11    1    1    2    0    0  0.14857983698E+02  0.54043790112E+02  0.81143966284E+01  0.56633332604E+02  0.00000000000E+00 0.  1.
         11    1    1    2    0    0  0.83991630189E+02  0.11266445227E+02  0.64522744262E+02  0.10651155457E+03  0.00000000000E+00 0. -1.
</event>
<event>
 7    1  0.2490079E-009  0.8499957E+02  0.7561462E-02  0.1315434E+00
         -1   -1    0    0    0  501 -0.00000000000E+00  0.00000000000E+00  0.40799523582E+02  0.40799523582E+02  0.00000000000E+00 0.  1.
          1   -1    0    0  501    0  0.00000000000E+00 -0.00000000000E+00 -0.39442760564E+03  0.39442760564E+03  0.00000000000E+00 0. -1.
         25    2    1    2    0    0  0.53056075342E+02  0.27919237461E+02 -0.22885265338E+03  0.26761241593E+03  0.12509371388E+03 0.  0.
          5    1    3    3  502    0  0.35452959804E+02 -0.30314382773E+02 -0.21598645323E+02  0.51573714638E+02  0.41800000000E+01 0. -1.
         -5    1    3    3    0  502  0.17603115538E+02  0.58233620234E+02 -0.20725400805E+03  0.21603870129E+03  0.41800000000E+01 0. -1.
        -11    1    1    2    0    0 -0.30702014852E+02 -0.68260178864E+01 -0.13228769030E+03  0.13597514935E+03  0.00000000000E+00 0. -1.
         11    1    1    2    0    0 -0.22354060490E+02 -0.21093219575E+02  0.75122616079E+01  0.31639563949E+02  0.00000000000E+00 0.  1.
</event>
<event>
 7    1  0.2490079E-009  0.3527748E+03  0.7561462E-02  0.1061482E+00
         -2   -1    0    0    0  501 -0.00000000000E+00  0.00000000000E+00  0.52971247149E+02  0.52971247149E+02  0.00000000000E+00 0.  1.
          2   -1    0    0  501    0  0.00000000000E+00 -0.00000000000E+00 -0.29206269845E+04  0.29206269845E+04  0.00000000000E+00 0. -1.
         25    2    1    2    0    0  0.22953840096E+03 -0.25086110391E+03 -0.20736281649E+04  0.21050421061E+04  0.12509728680E+03 0.  0.
          5    1    3    3  502    0  0.22448305574E+03 -0.19274508755E+03 -0.15360823254E+04  0.15643240373E+04  0.41800000000E+01 0. -1.
         -5    1    3    3    0  502  0.50553452217E+01 -0.58116016360E+02 -0.53754583955E+03  0.54071806877E+03  0.41800000000E+01 0. -1.
        -11    1    1    2    0    0 -0.15719899195E+03  0.10707908090E+03 -0.39985660313E+03  0.44278974209E+03  0.00000000000E+00 0.  1.
         11    1    1    2    0    0 -0.72339409015E+02  0.14378202301E+03 -0.39417096933E+03  0.42576638348E+03  0.00000000000E+00 0. -1.
</event>
<event>
 7    1  0.2490079E-009  0.1727241E+03  0.7561462E-02  0.1175036E+00
          1   -1    0    0  501    0  0.00000000000E+00  0.00000000000E+00  0.73353540571E+02  0.73353540571E+02  0.00000000000E+00 0. -1.
         -1   -1    0    0    0  501 -0.00000000000E+00 -0.00000000000E+00 -0.49077025960E+03  0.49077025960E+03  0.00000000000E+00 0.  1.
         25    2    1    2    0    0 -0.83755162186E+01  0.14572858761E+03 -0.14356107272E+03  0.23992513508E+03  0.12508924143E+03 0.  0.
          5    1    3    3  502    0 -0.53829460290E+02  0.12257705397E+03 -0.72359294595E+02  0.15223693661E+03  0.41800000000E+01 0. -1.
         -5    1    3    3    0  502  0.45453944071E+02  0.23151533644E+02 -0.71201778125E+02  0.87688198464E+02  0.41800000000E+01 0. -1.
        -11    1    1    2    0    0  0.36063390479E+02 -0.10546821544E+03 -0.12475570376E+03  0.16729643816E+03  0.00000000000E+00 0. -1.
         11    1    1    2    0    0 -0.27687874260E+02 -0.40260372174E+02 -0.14909994254E+03  0.15690222693E+03  0.00000000000E+00 0.  1.
</event>
<event>
 7    1  0.2490079E-009  0.1348031E+03  0.7561462E-02  0.1220498E+00
          3   -1    0    0  501    0  0.00000000000E+00  0.00000000000E+00  0.38439729559E+03  0.38439729559E+03  0.00000000000E+00 0. -1.
         -3   -1    0    0    0  501 -0.00000000000E+00 -0.00000000000E+00 -0.71522245044E+02  0.71522245044E+02  0.00000000000E+00 0.  1.
         25    2    1    2    0    0  0.32694161788E+02 -0.78050117941E+02  0.27629744826E+03  0.31487770830E+03  0.12508781775E+03 0.  0.
          5    1    3    3  502    0 -0.14713064396E+02  0.20116902813E+02  0.12971414209E+03  0.13215292317E+03  0.41800000000E+01 0.  1.
         -5    1    3    3    0  502  0.47407226184E+02 -0.98167020753E+02  0.14658330616E+03  0.18272478514E+03  0.41800000000E+01 0.  1.
        -11    1    1    2    0    0  0.96725668057E+01 -0.23388463880E+02  0.13612576515E+02  0.28738145916E+02  0.00000000000E+00 0.  1.
         11    1    1    2    0    0 -0.42366728594E+02  0.10143858182E+03  0.22965025778E+02  0.11230368642E+03  0.00000000000E+00 0. -1.
</event>
<event>
 7    1  0.2490079E-009  0.1327244E+03  0.7561462E-02  0.1223468E+00
          2   -1    0    0  501    0  0.00000000000E+00  0.00000000000E+00  0.31113518755E+03  0.31113518755E+03  0.00000000000E+00 0. -1.
         -2   -1    0    0    0  501 -0.00000000000E+00 -0.00000000000E+00 -0.63051379843E+02  0.63051379843E+02  0.00000000000E+00 0.  1.
         25    2    1    2    0    0  0.68164845042E+02 -0.46169648584E+02  0.91744294093E+02  0.17562046112E+03  0.12508976103E+03 0.  0.
          5    1    3    3  502    0  0.29205397810E+02 -0.86468424160E+02  0.70998122775E+02  0.11570630698E+03  0.41800000000E+01 0.  1.
         -5    1    3    3    0  502  0.38959447232E+02  0.40298775576E+02  0.20746171318E+02  0.59914154137E+02  0.41800000000E+01 0.  1.
        -11    1    1    2    0    0 -0.25475420274E+02 -0.24481065921E+02  0.24421468840E+02  0.42950294144E+02  0.00000000000E+00 0.  1.
         11    1    1    2    0    0 -0.42689424768E+02  0.70650714506E+02  0.13191804477E+03  0.15561581212E+03  0.00000000000E+00 0. -1.
</event>
<event>
 7    1  0.2490079E-009  0.7558606E+02  0.7561462E-02  0.1342066E+00
          2   -1    0    0  501    0  0.00000000000E+00  0.00000000000E+00  0.66605984150E+02  0.66605984150E+02  0.00000000000E+00 0. -1.
         -2   -1    0    0    0  501 -0.00000000000E+00 -0.00000000000E+00 -0.26823206890E+03  0.26823206890E+03  0.00000000000E+00 0.  1.
         25    2    1    2    0    0 -0.10315081936E+02  0.50918865519E+02 -0.37012560200E+02  0.14041244827E+03  0.12508634712E+03 0.  0.
          5    1    3    3  502    0 -0.21109445539E+02  0.43669942487E+02 -0.80916499251E+02  0.94433176474E+02  0.41800000000E+01 0. -1.
         -5    1    3    3    0  502  0.10794363603E+02  0.72489230318E+01  0.43903939051E+02  0.45979271796E+02  0.41800000000E+01 0. -1.
        -11    1    1    2    0    0 -0.12978032352E+02  0.14457544166E+02 -0.91806962400E+02  0.93840120695E+02  0.00000000000E+00 0.  1.
         11    1    1    2    0    0  0.23293114289E+02 -0.65376409684E+02 -0.72806562149E+02  0.10058548408E+03  0.00000000000E+00 0. -1.
</event>
<event>
 7    1  0.2490079E-009  0.7951040E+02  0.7561462E-02  0.1330447E+00
          2   -1    0    0  501    0  0.00000000000E+00  0.00000000000E+00  0.45041672615E+03  0.45041672615E+03  0.00000000000E+00 0. -1.
         -2   -1    0    0    0  501 -0.00000000000E+00 -0.00000000000E+00 -0.36771753823E+02  0.36771753823E+02  0.00000000000E+00 0.  1.
         25    2    1    2    0    0  0.50735016502E+02  0.17587957752E+01  0.32091384292E+03  0.34815328122E+03  0.12509147608E+03 0.  0.
          5    1    3    3  502    0  0.44192709239E+02 -0.59398878315E+01  0.23571410998E+02  0.50609896599E+02  0.41800000000E+01 0.  1.
         -5    1    3    3    0  502  0.65423072629E+01  0.76986836067E+01  0.29734243192E+03  0.29754338463E+03  0.41800000000E+01 0.  1.
        -11    1    1    2    0    0  0.26269033214E+02 -0.11757024158E+01  0.19181257724E+02  0.32547888258E+02  0.00000000000E+00 0.  1.
         11    1    1    2    0    0 -0.77004049716E+02 -0.58309335940E+00  0.73549871679E+02  0.10648731049E+03  0.00000000000E+00 0. -1.
</event>
<event>
 7    1  0.2490079E-009  0.9548820E+02  0.7561462E-02  0.1290080E+00
          1   -1    0    0  501    0  0.00000000000E+00  0.00000000000E+00  0.39812142834E+03  0.39812142834E+03  0.00000000000E+00 0. -1.
         -1   -1    0    0    0  501 -0.00000000000E+00 -0.00000000000E+00 -0.33959142817E+02  0.33959142817E+02  0.00000000000E+00 0.  1.
         25    2    1    2    0    0  0.83537623842E+01 -0.28509199380E+02  0.26820944659E+03  0.29743305386E+03  0.12509018545E+03 0.  0.
          5    1    3    3  502    0 -0.48114660448E+02  0.11698064471E+02  0.17025504383E+03  0.17735872578E+03  0.41800000000E+01 0. -1.
         -5    1    3    3    0  502  0.56468422832E+02 -0.40207263851E+02  0.97954402761E+02  0.12007432808E+03  0.41800000000E+01 0. -1.
        -11    1    1    2    0    0  0.45488769420E+01  0.48135567046E+02  0.15404710064E+02  0.50744755280E+02  0.00000000000E+00 0.  1.
         11    1    1    2    0    0 -0.12902639326E+02 -0.19626367666E+02  0.80548128871E+02  0.83902762017E+02  0.00000000000E+00 0. -1.
</event>
<event>
 7    1  0.2490079E-009  0.1081121E+03  0.7561462E-02  0.1264106E+00
          2   -1    0    0  501    0  0.00000000000E+00  0.00000000000E+00  0.12947798980E+03  0.12947798980E+03  0.00000000000E+00 0. -1.
         -2   -1    0    0    0  501 -0.00000000000E+00 -0.00000000000E+00 -0.10325752530E+03  0.10325752530E+03  0.00000000000E+00 0.  1.
         25    2    1    2    0    0  0.26349456473E+02  0.23581185398E+02 -0.12784209497E+02  0.13061753747E+03  0.12508852434E+03 0.  0.
          5    1    3    3  502    0 -0.38321485633E+02 -0.20903072240E+02  0.16331779794E+02  0.46793953898E+02  0.41800000000E+01 0. -1.
         -5    1    3    3    0  502  0.64670942105E+02  0.44484257638E+02 -0.29115989291E+02  0.83823583572E+02  0.41800000000E+01 0. -1.
        -11    1    1    2    0    0  0.31320601259E+02 -0.17236831360E+02  0.93117248576E+01  0.36943154148E+02  0.00000000000E+00 0.  1.
         11    1    1    2    0    0 -0.57670057732E+02 -0.63443540384E+01  0.29692949146E+02  0.65174823482E+02  0.00000000000E+00 0. -1.
</event>
<event>
 7    1  0.2490079E-009  0.1551822E+03  0.7561462E-02  0.1194246E+00
         -1   -1    0    0    0  501 -0.00000000000E+00  0.00000000000E+00  0.14364847588E+03  0.14364847588E+03  0.00000000000E+00 0.  1.
          1   -1    0    0  501    0  0.00000000000E+00 -0.00000000000E+00 -0.24396783371E+03  0.24396783371E+03  0.00000000000E+00 0. -1.
         25    2    1    2    0    0 -0.90451352079E+02 -0.90222085156E+02  0.27996068847E+02  0.18097693326E+03  0.12508956295E+03 0.  0.
          5    1    3    3  502    0 -0.26991738725E+02 -0.98946159257E+02 -0.14968952229E+02  0.10373253261E+03  0.41800000000E+01 0.  1.
         -5    1    3    3    0  502 -0.63459613354E+02  0.87240741007E+01  0.42965021076E+02  0.77244400652E+02  0.41800000000E+01 0.  1.
        -11    1    1    2    0    0 -0.12675704561E+01  0.37920420216E+02  0.30946912532E+01  0.38067599323E+02  0.00000000000E+00 0.  1.
         11    1    1    2    0    0  0.91718922535E+02  0.52301664940E+02 -0.13141011793E+03  0.16857177700E+03  0.00000000000E+00 0. -1.
</event>
<event>
 7    1  0.2490079E-009  0.1083539E+03  0.7561462E-02  0.1263649E+00
          2   -1    0    0  501    0  0.00000000000E+00  0.00000000000E+00  0.52670205145E+02  0.52670205145E+02  0.00000000000E+00 0. -1.
         -2   -1    0    0    0  501 -0.00000000000E+00 -0.00000000000E+00 -0.26288220462E+03  0.26288220462E+03  0.00000000000E+00 0.  1.
         25    2    1    2    0    0 -0.30138741127E+02 -0.35526135984E+02 -0.13065311551E+03  0.18678071479E+03  0.12508536593E+03 0.  0.
          5    1    3    3  502    0 -0.15385821355E+02 -0.75714648938E+02 -0.11946795382E+03  0.14233585617E+03  0.41800000000E+01 0.  1.
         -5    1    3    3    0  502 -0.14752919772E+02  0.40188512954E+02 -0.11185161691E+02  0.44444858615E+02  0.41800000000E+01 0.  1.
        -11    1    1    2    0    0 -0.27299870569E+02  0.26735501171E+02 -0.12872393235E+02  0.40320819232E+02  0.00000000000E+00 0. -1.
         11    1    1    2    0    0  0.57438611697E+02  0.87906348131E+01 -0.66686490722E+02  0.88450875738E+02  0.00000000000E+00 0.  1.
</event>
<event>
 7    1  0.2490079E-009  0.5234472E+02  0.7561462E-02  0.1433090E+00
         -1   -1    0    0    0  501 -0.00000000000E+00  0.00000000000E+00  0.16747604398E+03  0.16747604398E+03  0.00000000000E+00 0.  1.
          1   -1    0    0  501    0  0.00000000000E+00 -0.00000000000E+00 -0.74277664892E+02  0.74277664892E+02  0.00000000000E+00 0. -1.
         25    2    1    2    0    0 -0.11166960559E+02  0.20637895730E+02  0.41116723634E+02  0.13374785645E+03  0.12508908983E+03 0.  0.
          5    1    3    3  502    0 -0.98372543334E+01  0.12026859010E+01 -0.44531844886E+02  0.45812396086E+02  0.41800000000E+01 0. -1.
         -5    1    3    3    0  502 -0.13297062252E+01  0.19435209829E+02  0.85648568520E+02  0.87935460363E+02  0.41800000000E+01 0. -1.
        -11    1    1    2    0    0  0.33481761020E+02 -0.34228885183E+02 -0.20213691826E+01  0.47924219715E+02  0.00000000000E+00 0. -1.
         11    1    1    2    0    0 -0.22314800462E+02  0.13590989453E+02  0.54103024634E+02  0.60081632705E+02  0.00000000000E+00 0.  1.
</event>
<event>
 7    1  0.2490079E-009  0.1700679E+03  0.7561462E-02  0.1177777E+00
         -1   -1    0    0    0  501 -0.00000000000E+00  0.00000000000E+00  0.40553899277E+02  0.40553899277E+02  0.00000000000E+00 0.  1.
          1   -1    0    0  501    0  0.00000000000E+00 -0.00000000000E+00 -0.94125504714E+03  0.94125504714E+03  0.00000000000E+00 0. -1.
         25    2    1    2    0    0 -0.24697814808E+02 -0.14627639256E+03 -0.63074107661E+03  0.65991558340E+03  0.12508999326E+03 0.  0.
          5    1    3    3  502    0 -0.67747397351E+02 -0.44393019704E+02 -0.31746653894E+03  0.32766282333E+03  0.41800000000E+01 0. -1.
         -5    1    3    3    0  502  0.43049582543E+02 -0.10188337285E+03 -0.31327453767E+03  0.33225276006E+03  0.41800000000E+01 0. -1.
        -11    1    1    2    0    0  0.75791517350E+01  0.43738602793E+02 -0.15502743340E+02  0.47019612571E+02  0.00000000000E+00 0.  1.
         11    1    1    2    0    0  0.17118663073E+02  0.10253778977E+03 -0.25445732791E+03  0.27487375044E+03  0.00000000000E+00 0. -1.
</event>
<event>
 7    1  0.2490079E-009  0.1573441E+03  0.7561462E-02  0.1191728E+00
          1   -1    0    0  501    0  0.00000000000E+00  0.00000000000E+00  0.53853232087E+03  0.53853232087E+03  0.00000000000E+00 0. -1.
         -1   -1    0    0    0  501 -0.00000000000E+00 -0.00000000000E+00 -0.72931238193E+02  0.72931238193E+02  0.00000000000E+00 0.  1.
         25    2    1    2    0    0 -0.13233058608E+03 -0.53421181849E+02  0.11399768631E+03  0.22137717524E+03  0.12508866676E+03 0.  0.
          5    1    3    3  502    0 -0.14041521282E+02 -0.25785003099E+02 -0.23514498261E+02  0.37847519512E+02  0.41800000000E+01 0. -1.
         -5    1    3    3    0  502 -0.11828906480E+03 -0.27636178750E+02  0.13751218457E+03  0.18352965573E+03  0.41800000000E+01 0. -1.
        -11    1    1    2    0    0  0.10349839825E+02  0.39358545805E+02  0.50151365660E+02  0.64586173365E+02  0.00000000000E+00 0.  1.
         11    1    1    2    0    0  0.12198074626E+03  0.14062636044E+02  0.30145203071E+03  0.32550021046E+03  0.00000000000E+00 0. -1.
</event>
<event>
 7    1  0.2490079E-009  0.8281929E+02  0.7561462E-02  0.1321236E+00
          1   -1    0    0  501    0  0.00000000000E+00  0.00000000000E+00  0.31183906777E+02  0.31183906777E+02  0.00000000000E+00 0. -1.
         -1   -1    0    0    0  501 -0.00000000000E+00 -0.00000000000E+00 -0.58993969447E+03  0.58993969447E+03  0.00000000000E+00 0.  1.
         25    2    1    2    0    0 -0.27470070372E+02 -0.76750605122E+02 -0.32169381701E+03  0.35465159602E+03  0.12508230291E+03 0.  0.
          5    1    3    3  502    0 -0.51560652622E+01 -0.90307988378E+01 -0.26008871088E+03  0.26033007945E+03  0.41800000000E+01 0. -1.
         -5    1    3    3    0  502 -0.22314005110E+02 -0.67719806284E+02 -0.61605106131E+02  0.94321516573E+02  0.41800000000E+01 0. -1.
        -11    1    1    2    0    0  0.14348483780E+02  0.60198380863E+02 -0.23741379301E+03  0.24534676105E+03  0.00000000000E+00 0.  1.
         11    1    1    2    0    0  0.13121586592E+02  0.16552224259E+02  0.35182233240E+00  0.21125244178E+02  0.00000000000E+00 0. -1.
</event>
<event>
 7    1  0.2490079E-009  0.9639569E+02  0.7561462E-02  0.1288063E+00
          2   -1    0    0  501    0  0.00000000000E+00  0.00000000000E+00  0.57413689772E+02  0.57413689772E+02  0.00000000000E+00 0.  1.
         -2   -1    0    0    0  501 -0.00000000000E+00 -0.00000000000E+00 -0.27689744826E+03  0.27689744826E+03  0.00000000000E+00 0. -1.
         25    2    1    2    0    0  0.61038336831E+02 -0.17819716457E+02 -0.10934608441E+03  0.17789803871E+03  0.12509166696E+03 0.  0.
          5    1    3    3  502    0  0.76037842274E+02 -0.38818095045E+02 -0.12191340077E+03  0.14889240292E+03  0.41800000000E+01 0. -1.
         -5    1    3    3    0  502 -0.14999505443E+02  0.20998378587E+02  0.12567316360E+02  0.29005635786E+02  0.41800000000E+01 0. -1.
        -11    1    1    2    0    0 -0.57492394061E+02 -0.53442980227E+01 -0.11826691647E+03  0.13160927181E+03  0.00000000000E+00 0. -1.
         11    1    1    2    0    0 -0.35459427705E+01  0.23164014480E+02  0.81292423975E+01  0.24803827505E+02  0.00000000000E+00 0.  1.
</event>
<event>
 7    1  0.2490079E-009  0.9259459E+02  0.7561462E-02  0.1296687E+00
         -1   -1    0    0    0  501 -0.00000000000E+00  0.00000000000E+00  0.28714357888E+03  0.28714357888E+03  0.00000000000E+00 0.  1.
          1   -1    0    0  501    0  0.00000000000E+00 -0.00000000000E+00 -0.54415193873E+02  0.54415193873E+02  0.00000000000E+00 0. -1.
         25    2    1    2    0    0 -0.54497469997E+02  0.11732029406E+02  0.94214338374E+02  0.16622615654E+03  0.12508868379E+03 0.  0.
          5    1    3    3  502    0  0.16772535178E+02  0.38700939383E+02 -0.31663406401E+01  0.42503867571E+02  0.41800000000E+01 0. -1.
         -5    1    3    3    0  502 -0.71270005175E+02 -0.26968909976E+02  0.97380679014E+02  0.12372228897E+03  0.41800000000E+01 0. -1.
        -11    1    1    2    0    0  0.38382183189E+02  0.97795496069E+01  0.59281046474E+01  0.40049644213E+02  0.00000000000E+00 0. -1.
         11    1    1    2    0    0  0.16115286808E+02 -0.21511579013E+02  0.13258594198E+03  0.13528297200E+03  0.00000000000E+00 0.  1.
</event>
<event>
 7    1  0.2490079E-009  0.9386728E+02  0.7561462E-02  0.1293748E+00
         -2   -1    0    0    0  501 -0.00000000000E+00  0.00000000000E+00  0.31597295842E+02  0.31597295842E+02  0.00000000000E+00 0.  1.
          2   -1    0    0  501    0  0.00000000000E+00 -0.00000000000E+00 -0.91159679086E+03  0.91159679086E+03  0.00000000000E+00 0. -1.
         25    2    1    2    0    0  0.23573098374E+02  0.21398061821E+02 -0.81947823505E+03  0.82958126665E+03  0.12508769817E+03 0.  0.
          5    1    3    3  502    0  0.71980983932E+02  0.29422474853E+02 -0.42911224185E+03  0.43612123611E+03  0.41800000000E+01 0. -1.
         -5    1    3    3    0  502 -0.48407885558E+02 -0.80244130326E+01 -0.39036599320E+03  0.39346003054E+03  0.41800000000E+01 0. -1.
        -11    1    1    2    0    0  0.15709012798E+02  0.35099840009E+00  0.17546387316E+02  0.23553598255E+02  0.00000000000E+00 0.  1.
         11    1    1    2    0    0 -0.39282111171E+02 -0.21749060221E+02 -0.78067647276E+02  0.90059221792E+02  0.00000000000E+00 0. -1.
</event>
<event>
 7    1  0.2846821E-009  0.1544764E+03  0.7561462E-02  0.1195078E+00
          1   -1    0    0  501    0  0.00000000000E+00  0.00000000000E+00  0.15391327683E+03  0.15391327683E+03  0.00000000000E+00 0. -1.
         -1   -1    0    0    0  501 -0.00000000000E+00 -0.00000000000E+00 -0.17469746079E+03  0.17469746079E+03  0.00000000000E+00 0.  1.
         25    2    1    2    0    0 -0.11537422772E+03 -0.39324420990E+02 -0.23150564184E+02  0.17618538035E+03  0.12509083547E+03 0.  0.
          5    1    3    3  502    0 -0.10735895910E+03  0.11045273876E+02  0.19273390683E+02  0.10971271650E+03  0.41800000000E+01 0. -1.
         -5    1    3    3    0  502 -0.80152686140E+01 -0.50369694865E+02 -0.42423954867E+02  0.66472663843E+02  0.41800000000E+01 0. -1.
        -11    1    1    2    0    0  0.60587038648E+02 -0.24768003465E+02  0.15041761109E+02  0.67160239912E+02  0.00000000000E+00 0. -1.
         11    1    1    2    0    0  0.54787189067E+02  0.64092424455E+02 -0.12675380882E+02  0.85265117363E+02  0.00000000000E+00 0.  1.
</event>
<event>
 7    1  0.2490079E-009  0.7585716E+02  0.7561462E-02  0.1341237E+00
         -1   -1    0    0    0  501 -0.00000000000E+00  0.00000000000E+00  0.20007490978E+03  0.20007490978E+03  0.00000000000E+00 0.  1.
          1   -1    0    0  501    0  0.00000000000E+00 -0.00000000000E+00 -0.96018723990E+02  0.96018723990E+02  0.00000000000E+00 0. -1.
         25    2    1    2    0    0  0.16554016371E+02  0.23808535471E+02  0.14377381831E+03  0.19276965305E+03  0.12509335108E+03 0.  0.
          5    1    3    3  502    0  0.43421157696E+02 -0.18274267807E+02  0.13349249500E+03  0.14162296573E+03  0.41800000000E+01 0. -1.
         -5    1    3    3    0  502 -0.26867141325E+02  0.42082803278E+02  0.10281323309E+02  0.51146687319E+02  0.41800000000E+01 0. -1.
        -11    1    1    2    0    0 -0.32624214562E+02 -0.17766056416E+02 -0.63753133573E+02  0.73786409159E+02  0.00000000000E+00 0. -1.
         11    1    1    2    0    0  0.16070198191E+02 -0.60424790559E+01  0.24035501049E+02  0.29537571561E+02  0.00000000000E+00 0.  1.
</event>
<event>
 7    1  0.2490079E-009  0.1437254E+03  0.7561462E-02  0.1208402E+00
          2   -1    0    0  501    0  0.00000000000E+00  0.00000000000E+00  0.20555428392E+03  0.20555428392E+03  0.00000000000E+00 0. -1.
         -2   -1    0    0    0  501 -0.00000000000E+00 -0.00000000000E+00 -0.12467218392E+03  0.12467218392E+03  0.00000000000E+00 0.  1.
         25    2    1    2    0    0 -0.83612602809E+02  0.76249985430E+02  0.13127344457E+02  0.16918981560E+03  0.12509092254E+03 0.  0.
          5    1    3    3  502    0 -0.37056522816E+02 -0.19039424620E+02 -0.33148085608E+02  0.53403684822E+02  0.41800000000E+01 0.  1.
         -5    1    3    3    0  502 -0.46556079993E+02  0.95289410050E+02  0.46275430065E+02  0.11578613077E+03  0.41800000000E+01 0.  1.
        -11    1    1    2    0    0 -0.13744090223E+02 -0.27094078515E+02  0.36691448844E+02  0.47636661564E+02  0.00000000000E+00 0. -1.
         11    1    1    2    0    0  0.97356693032E+02 -0.49155906915E+02  0.31063306701E+02  0.11339999068E+03  0.00000000000E+00 0.  1.
</event>
<event>
 7    1  0.2490079E-009  0.1034982E+03  0.7561462E-02  0.1273107E+00
         -2   -1    0    0    0  501 -0.00000000000E+00  0.00000000000E+00  0.29337205913E+03  0.29337205913E+03  0.00000000000E+00 0.  1.
          2   -1    0    0  501    0  0.00000000000E+00 -0.00000000000E+00 -0.45767820514E+02  0.45767820514E+02  0.00000000000E+00 0. -1.
         25    2    1    2    0    0  0.33723187936E+02  0.10745573826E+02  0.16381386347E+03  0.20913062030E+03  0.12509162132E+03 0.  0.
          5    1    3    3  502    0 -0.32203964072E+02  0.25249288538E+02  0.12400926203E+03  0.13065370772E+03  0.41800000000E+01 0.  1.
         -5    1    3    3    0  502  0.65927152008E+02 -0.14503714711E+02  0.39804601441E+02  0.78476912581E+02  0.41800000000E+01 0.  1.
        -11    1    1    2    0    0  0.27515226762E+02 -0.22896803614E+02  0.21189896339E+02  0.41597632461E+02  0.00000000000E+00 0.  1.
         11    1    1    2    0    0 -0.61238414699E+02  0.12151229788E+02  0.62600478811E+02  0.88411626880E+02  0.00000000000E+00 0. -1.
</event>
<event>
 7    1  0.2490079E-009  0.9674689E+02  0.7561462E-02  0.1287289E+00
          2   -1    0    0  501    0  0.00000000000E+00  0.00000000000E+00  0.95295570426E+02  0.95295570426E+02  0.00000000000E+00 0. -1.
         -2   -1    0    0    0  501 -0.00000000000E+00 -0.00000000000E+00 -0.14161921031E+03  0.14161921031E+03  0.00000000000E+00 0.  1.
         25    2    1    2    0    0  0.25726354480E+02 -0.10664788348E+02 -0.57183603627E+02  0.14033364918E+03  0.12509190838E+03 0.  0.
          5    1    3    3  502    0  0.54410056343E+02 -0.38359199481E+02  0.44024629855E+01  0.66848608784E+02  0.41800000000E+01 0.  1.
         -5    1    3    3    0  502 -0.28683701863E+02  0.27694411132E+02 -0.61586066613E+02  0.73485040392E+02  0.41800000000E+01 0.  1.
        -11    1    1    2    0    0 -0.27729583495E+02  0.44702016853E+02  0.26691909855E+02  0.58988627407E+02  0.00000000000E+00 0.  1.
         11    1    1    2    0    0  0.20032290155E+01 -0.34037228505E+02 -0.15831946113E+02  0.37592504153E+02  0.00000000000E+00 0. -1.
</event>
<event>
 7    1  0.2490079E-009  0.1392892E+03  0.7561462E-02  0.1214289E+00
         -2   -1    0    0    0  501 -0.00000000000E+00  0.00000000000E+00  0.42859484208E+02  0.42859484208E+02  0.00000000000E+00 0.  1.
          2   -1    0    0  501    0  0.00000000000E+00 -0.00000000000E+00 -0.60097523827E+03  0.60097523827E+03  0.00000000000E+00 0. -1.
         25    2    1    2    0    0  0.83831293844E+02  0.64962857681E+02 -0.40331957933E+03  0.43538720485E+03  0.12508987318E+03 0.  0.
          5    1    3    3  502    0  0.50336485494E+02  0.85959261182E+02 -0.15771046063E+03  0.18658193414E+03  0.41800000000E+01 0. -1.
         -5    1    3    3    0  502  0.33494808350E+02 -0.20996403501E+02 -0.24560911870E+03  0.24880527071E+03  0.41800000000E+01 0. -1.
        -11    1    1    2    0    0  0.19078307767E+02 -0.39304147497E+01 -0.16065072646E+02  0.25249090013E+02  0.00000000000E+00 0.  1.
         11    1    1    2    0    0 -0.10290960161E+03 -0.61032442931E+02 -0.13873110209E+03  0.18319842761E+03  0.00000000000E+00 0. -1.
</event>
<event>
 7    1  0.2490079E-009  0.1034485E+03  0.7561462E-02  0.1273207E+00
          1   -1    0    0  501    0  0.00000000000E+00  0.00000000000E+00  0.24620851314E+03  0.24620851314E+03  0.00000000000E+00 0. -1.
         -1   -1    0    0    0  501 -0.00000000000E+00 -0.00000000000E+00 -0.50754539868E+02  0.50754539868E+02  0.00000000000E+00 0.  1.
         25    2    1    2    0    0 -0.90472665975E+01  0.26443892205E+02  0.14588523535E+03  0.19418861328E+03  0.12508230557E+03 0.  0.
          5    1    3    3  502    0 -0.61644580557E+02  0.18880110727E+02  0.40948315029E+02  0.76490194122E+02  0.41800000000E+01 0.  1.
         -5    1    3    3    0  502  0.52597313960E+02  0.75637814781E+01  0.10493692032E+03  0.11769841916E+03  0.41800000000E+01 0.  1.
        -11    1    1    2    0    0  0.35832781284E+02 -0.44163504234E+02  0.24022759967E+02  0.61737317056E+02  0.00000000000E+00 0.  1.
         11    1    1    2    0    0 -0.26785514687E+02  0.17719612029E+02  0.25545977957E+02  0.41037122673E+02  0.00000000000E+00 0. -1.
</event>
<event>
 7    1  0.2490079E-009  0.1076095E+03  0.7561462E-02  0.1265062E+00
         -2   -1    0    0    0  501 -0.00000000000E+00  0.00000000000E+00  0.47350437787E+02  0.47350437787E+02  0.00000000000E+00 0.  1.
          2   -1    0    0  501    0  0.00000000000E+00 -0.00000000000E+00 -0.38012334943E+03  0.38012334943E+03  0.00000000000E+00 0. -1.
         25    2    1    2    0    0 -0.34057551880E+02  0.87873662343E+02 -0.21904701487E+03  0.26927246099E+03  0.12507744061E+03 0.  0.
          5    1    3    3  502    0 -0.48078613002E+02  0.82113454391E+02 -0.23077446555E+03  0.24965676192E+03  0.41800000000E+01 0. -1.
         -5    1    3    3    0  502  0.14021061122E+02  0.57602079522E+01  0.11727450681E+02  0.19615699073E+02  0.41800000000E+01 0. -1.
        -11    1    1    2    0    0  0.41720851936E+02 -0.47784658003E+02 -0.43303618965E+02  0.76806291683E+02  0.00000000000E+00 0.  1.
         11    1    1    2    0    0 -0.76633000555E+01 -0.40089004340E+02 -0.70422277803E+02  0.81395034540E+02  0.00000000000E+00 0. -1.
</event>
<event>
 7    1  0.2490079E-009  0.1244086E+03  0.7561462E-02  0.1235996E+00
         -3   -1    0    0    0  501 -0.00000000000E+00  0.00000000000E+00  0.30710546381E+03  0.30710546381E+03  0.00000000000E+00 0.  1.
          3   -1    0    0  501    0  0.00000000000E+00 -0.00000000000E+00 -0.55775529913E+02  0.55775529913E+02  0.00000000000E+00 0. -1.
         25    2    1    2    0    0  0.31610464774E+02  0.57083309749E+02  0.98359717022E+02  0.17198844136E+03  0.12509062432E+03 0.  0.
          5    1    3    3  502    0 -0.22688959706E+02  0.76977898886E+02  0.73498052502E+02  0.10890280956E+03  0.41800000000E+01 0. -1.
         -5    1    3    3    0  502  0.54299424480E+02 -0.19894589137E+02  0.24861664520E+02  0.63085631791E+02  0.41800000000E+01 0. -1.
        -11    1    1    2    0    0 -0.63382302343E+01  0.24376128095E+02  0.58076346456E+02  0.63302691894E+02  0.00000000000E+00 0.  1.
         11    1    1    2    0    0 -0.25272234540E+02 -0.81459437844E+02  0.94893870417E+02  0.12758986047E+03  0.00000000000E+00 0. -1.
</event>
<event>
 7    1  0.2490079E-009  0.9353172E+02  0.7561462E-02  0.1294518E+00
         -2   -1    0    0    0  501 -0.00000000000E+00  0.00000000000E+00  0.16833867099E+03  0.16833867099E+03  0.00000000000E+00 0.  1.
          2   -1    0    0  501    0  0.00000000000E+00 -0.00000000000E+00 -0.92137354028E+02  0.92137354028E+02  0.00000000000E+00 0. -1.
         25    2    1    2    0    0  0.53776798072E+02  0.29179098761E+02  0.35458019759E+02  0.14369447314E+03  0.12508983424E+03 0.  0.
          5    1    3    3  502    0  0.31830007950E+02 -0.24267055473E+02  0.66684201221E+02  0.77886420382E+02  0.41800000000E+01 0.  1.
         -5    1    3    3    0  502  0.21946790122E+02  0.53446154234E+02 -0.31226181461E+02  0.65808052757E+02  0.41800000000E+01 0.  1.
        -11    1    1    2    0    0  0.11770582427E+02 -0.19298191299E+02 -0.17463922633E+02  0.28564932904E+02  0.00000000000E+00 0. -1.
         11    1    1    2    0    0 -0.65547380499E+02 -0.98809074615E+01  0.58207219838E+02  0.88216618977E+02  0.00000000000E+00 0.  1.
</event>
<event>
 7    1  0.2490079E-009  0.1100304E+03  0.7561462E-02  0.1260514E+00
          2   -1    0    0  501    0  0.00000000000E+00  0.00000000000E+00  0.53888392363E+03  0.53888392363E+03  0.00000000000E+00 0.  1.
         -2   -1    0    0    0  501 -0.00000000000E+00 -0.00000000000E+00 -0.27830487417E+02  0.27830487417E+02  0.00000000000E+00 0. -1.
         25    2    1    2    0    0  0.19809056617E+02  0.43826251898E+01  0.40792991926E+03  0.42716101536E+03  0.12509239739E+03 0.  0.
          5    1    3    3  502    0 -0.47843005430E+02 -0.22932913712E+02  0.15476867796E+03  0.16366333669E+03  0.41800000000E+01 0.  1.
         -5    1    3    3    0  502  0.67652062048E+02  0.27315538902E+02  0.25316124130E+03  0.26349767866E+03  0.41800000000E+01 0.  1.
        -11    1    1    2    0    0  0.36879898075E+02  0.29742062907E+00  0.45710865992E+02  0.58734134971E+02  0.00000000000E+00 0. -1.
         11    1    1    2    0    0 -0.56688954692E+02 -0.46800458189E+01  0.57412650965E+02  0.80819260723E+02  0.00000000000E+00 0.  1.
</event>
<event>
 7    1  0.2490079E-009  0.1665079E+03  0.7561462E-02  0.1181539E+00
         -1   -1    0    0    0  501 -0.00000000000E+00  0.00000000000E+00  0.27297939811E+03  0.27297939811E+03  0.00000000000E+00 0.  1.
          1   -1    0    0  501    0  0.00000000000E+00 -0.00000000000E+00 -0.15831688482E+03  0.15831688482E+03  0.00000000000E+00 0. -1.
         25    2    1    2    0    0  0.39313946647E+02  0.13010549731E+03 -0.57818164825E+02  0.19356006232E+03  0.12509808436E+03 0.  0.
          5    1    3    3  502    0 -0.26289843505E+02  0.11394476551E+03 -0.37845949219E+02  0.12298111127E+03  0.41800000000E+01 0. -1.
         -5    1    3    3    0  502  0.65603790152E+02  0.16160731807E+02 -0.19972215606E+02  0.70578951049E+02  0.41800000000E+01 0. -1.
        -11    1    1    2    0    0 -0.67150203035E+01 -0.10958112424E+03  0.16547458099E+03  0.19858235380E+03  0.00000000000E+00 0.  1.
         11    1    1    2    0    0 -0.32598926344E+02 -0.20524373073E+02  0.70060971255E+01  0.39153866804E+02  0.00000000000E+00 0. -1.
</event>
<event>
 7    1  0.2490079E-009  0.1245624E+03  0.7561462E-02  0.1235755E+00
         -1   -1    0    0    0  501 -0.00000000000E+00  0.00000000000E+00  0.75087541450E+02  0.75087541450E+02  0.00000000000E+00 0.  1.
          1   -1    0    0  501    0  0.00000000000E+00 -0.00000000000E+00 -0.32282506913E+03  0.32282506913E+03  0.00000000000E+00 0. -1.
         25    2    1    2    0    0 -0.45209920088E+02  0.10277921503E+03 -0.12026835894E+03  0.20668901993E+03  0.12509344060E+03 0.  0.
          5    1    3    3  502    0 -0.60425652905E+02  0.68614061166E+02 -0.13759856405E+03  0.16525733311E+03  0.41800000000E+01 0. -1.
         -5    1    3    3    0  502  0.15215732817E+02  0.34165153866E+02  0.17330205107E+02  0.41431686821E+02  0.41800000000E+01 0. -1.
        -11    1    1    2    0    0  0.53222532340E+02 -0.82665600754E+02 -0.49055411447E+02  0.10987571565E+03  0.00000000000E+00 0.  1.
         11    1    1    2    0    0 -0.80126122519E+01 -0.20113614278E+02 -0.78413757291E+02  0.81347874999E+02  0.00000000000E+00 0. -1.
</event>
<event>
 7    1  0.2490079E-009  0.8133041E+02  0.7561462E-02  0.1325318E+00
          3   -1    0    0  501    0  0.00000000000E+00  0.00000000000E+00  0.16125054489E+03  0.16125054489E+03  0.00000000000E+00 0. -1.
         -3   -1    0    0    0  501 -0.00000000000E+00 -0.00000000000E+00 -0.10476995202E+03  0.10476995202E+03  0.00000000000E+00 0.  1.
         25    2    1    2    0    0 -0.38289614823E+02 -0.19341073219E+01  0.97055847832E+02  0.16290481093E+03  0.12509318307E+03 0.  0.
          5    1    3    3  502    0  0.23430968982E+02  0.34517333398E+02 -0.30732364334E+00  0.41928790349E+02  0.41800000000E+01 0.  1.
         -5    1    3    3    0  502 -0.61720583805E+02 -0.36451440720E+02  0.97363171476E+02  0.12097602058E+03  0.41800000000E+01 0.  1.
        -11    1    1    2    0    0  0.19276672690E+02 -0.14242230584E+02  0.23978811531E+02  0.33903018220E+02  0.00000000000E+00 0. -1.
         11    1    1    2    0    0  0.19012942132E+02  0.16176337906E+02 -0.64554066500E+02  0.69212667759E+02  0.00000000000E+00 0.  1.
</event>
<event>
 7    1  0.2490079E-009  0.2017710E+03  0.7561462E-02  0.1148253E+00
          1   -1    0    0  501    0  0.00000000000E+00  0.00000000000E+00  0.55126536397E+03  0.55126536397E+03  0.00000000000E+00 0. -1.
         -1   -1    0    0    0  501 -0.00000000000E+00 -0.00000000000E+00 -0.80176021887E+02  0.80176021887E+02  0.00000000000E+00 0.  1.
         25    2    1    2    0    0  0.16416069660E+03 -0.45591657449E+02  0.33026742637E+03  0.39211182589E+03  0.12509107699E+03 0.  0.
          5    1    3    3  502    0 -0.31437558610E+01  0.27079961884E+02  0.59843942346E+02  0.65893682338E+02  0.41800000000E+01 0.  1.
         -5    1    3    3    0  502  0.16730445246E+03 -0.72671619334E+02  0.27042348402E+03  0.32621814355E+03  0.41800000000E+01 0.  1.
        -11    1    1    2    0    0 -0.90635176655E+02  0.71613839446E+02  0.83083805132E+02  0.14228912791E+03  0.00000000000E+00 0.  1.
         11    1    1    2    0    0 -0.73525519948E+02 -0.26022181997E+02  0.57738110584E+02  0.97040432055E+02  0.00000000000E+00 0. -1.
</event>
<event>
 7    1  0.2490079E-009  0.1026524E+03  0.7561462E-02  0.1274815E+00
         -2   -1    0    0    0  501 -0.00000000000E+00  0.00000000000E+00  0.66952114929E+02  0.66952114929E+02  0.00000000000E+00 0.  1.
          2   -1    0    0  501    0  0.00000000000E+00 -0.00000000000E+00 -0.22153635624E+03  0.22153635624E+03  0.00000000000E+00 0. -1.
         25    2    1    2    0    0  0.13851472746E+02 -0.31299868100E+02 -0.48388653102E+02  0.13841768205E+03  0.12508576224E+03 0.  0.
          5    1    3    3  502    0  0.58467099825E+01 -0.71744104216E+02  0.32872287194E+01  0.72178104575E+02  0.41800000000E+01 0.  1.
         -5    1    3    3    0  502  0.80047627639E+01  0.40444236115E+02 -0.51675881821E+02  0.66239577473E+02  0.41800000000E+01 0.  1.
        -11    1    1    2    0    0 -0.48726206578E+02  0.69320215199E+01 -0.18461609711E+02  0.52565455985E+02  0.00000000000E+00 0.  1.
         11    1    1    2    0    0  0.34874733832E+02  0.24367846580E+02 -0.87733978501E+02  0.97505333139E+02  0.00000000000E+00 0. -1.
</event>
<event>
 7    1  0.2490079E-009  0.1158008E+03  0.7561462E-02  0.1250190E+00
          3   -1    0    0  501    0  0.00000000000E+00  0.00000000000E+00  0.16121615626E+03  0.16121615626E+03  0.00000000000E+00 0. -1.
         -3   -1    0    0    0  501 -0.00000000000E+00 -0.00000000000E+00 -0.96123235295E+02  0.96123235295E+02  0.00000000000E+00 0.  1.
         25    2    1    2    0    0  0.56352387021E+02 -0.18761590379E+02  0.47516885576E+02  0.14639824860E+03  0.12508798497E+03 0.  0.
          5    1    3    3  502    0  0.37935085058E+02 -0.71280843543E+02  0.39588075147E+02  0.90026204121E+02  0.41800000000E+01 0. -1.
         -5    1    3    3    0  502  0.18417301963E+02  0.52519253164E+02  0.79288104290E+01  0.56372044484E+02  0.41800000000E+01 0. -1.
        -11    1    1    2    0    0  0.17860941872E+02  0.92519481520E+01  0.28959550693E+02  0.35259996675E+02  0.00000000000E+00 0. -1.
         11    1    1    2    0    0 -0.74213328893E+02  0.95096422273E+01 -0.11383515306E+02  0.75681146274E+02  0.00000000000E+00 0.  1.
</event>
<event>
 7    1  0.2490079E-009  0.2107052E+03  0.7561462E-02  0.1141009E+00
         -2   -1    0    0    0  501 -0.00000000000E+00  0.00000000000E+00  0.12888055894E+03  0.12888055894E+03  0.00000000000E+00 0.  1.
          2   -1    0    0  501    0  0.00000000000E+00 -0.00000000000E+00 -0.47522323729E+03  0.47522323729E+03  0.00000000000E+00 0. -1.
         25    2    1    2    0    0  0.20870342294E+03 -0.23103087059E+02 -0.26980384966E+03  0.36405009308E+03  0.12508989411E+03 0.  0.
          5    1    3    3  502    0  0.57906991206E+02 -0.22301171878E+01 -0.46661161794E+01  0.58287546640E+02  0.41800000000E+01 0. -1.
         -5    1    3    3    0  502  0.15079643173E+03 -0.20872969871E+02 -0.26513773348E+03  0.30576254644E+03  0.41800000000E+01 0. -1.
        -11    1    1    2    0    0 -0.15423978651E+03  0.26277948982E+02 -0.94295955883E+02  0.18268051248E+03  0.00000000000E+00 0. -1.
         11    1    1    2    0    0 -0.54463636433E+02 -0.31748619232E+01  0.17757127186E+02  0.57373190670E+02  0.00000000000E+00 0.  1.
</event>
<event>
 7    1  0.2490079E-009  0.1191410E+03  0.7561462E-02  0.1244521E+00
          2   -1    0    0  501    0  0.00000000000E+00  0.00000000000E+00  0.10379229891E+04  0.10379229891E+04  0.00000000000E+00 0. -1.
         -2   -1    0    0    0  501 -0.00000000000E+00 -0.00000000000E+00 -0.20223622758E+02  0.20223622758E+02  0.00000000000E+00 0.  1.
         25    2    1    2    0    0 -0.84620742028E+02  0.19072410997E+02  0.69355853561E+03  0.71006727083E+03  0.12509060693E+03 0.  0.
          5    1    3    3  502    0 -0.82494871606E+02 -0.13749184060E+02  0.64976714428E+03  0.65514063993E+03  0.41800000000E+01 0.  1.
         -5    1    3    3    0  502 -0.21258704221E+01  0.32821595057E+02  0.43791391332E+02  0.54926630900E+02  0.41800000000E+01 0.  1.
        -11    1    1    2    0    0  0.24080727795E+02 -0.48445559649E+02  0.95690066751E+02  0.10992471322E+03  0.00000000000E+00 0.  1.
         11    1    1    2    0    0  0.60540014233E+02  0.29373148652E+02  0.22845076397E+03  0.23815462780E+03  0.00000000000E+00 0. -1.
</event>
<event>
 7    1  0.2490079E-009  0.1391553E+03  0.7561462E-02  0.1214470E+00
          1   -1    0    0  501    0  0.00000000000E+00  0.00000000000E+00  0.10912389132E+03  0.10912389132E+03  0.00000000000E+00 0. -1.
         -1   -1    0    0    0  501 -0.00000000000E+00 -0.00000000000E+00 -0.24292936299E+03  0.24292936299E+03  0.00000000000E+00 0.  1.
         25    2    1    2    0    0 -0.53036611710E+02  0.87280726438E+02 -0.11189777954E+00  0.16148753230E+03  0.12508958061E+03 0.  0.
          5    1    3    3  502    0 -0.61983933247E+02 -0.34930898524E+00 -0.29177567965E+02  0.68636235837E+02  0.41800000000E+01 0.  1.
         -5    1    3    3    0  502  0.89473215376E+01  0.87630035423E+02  0.29065670185E+02  0.92851296460E+02  0.41800000000E+01 0.  1.
        -11    1    1    2    0    0  0.73298186350E+02 -0.70349872543E+02 -0.12823521528E+03  0.16360317578E+03  0.00000000000E+00 0.  1.
         11    1    1    2    0    0 -0.20261574641E+02 -0.16930853895E+02 -0.54583586098E+01  0.26962546231E+02  0.00000000000E+00 0. -1.
</event>
<event>
 7    1  0.2490079E-009  0.1421913E+03  0.7561462E-02  0.1210411E+00
         -1   -1    0    0    0  501 -0.00000000000E+00  0.00000000000E+00  0.57417438530E+02  0.57417438530E+02  0.00000000000E+00 0.  1.
          1   -1    0    0  501    0  0.00000000000E+00 -0.00000000000E+00 -0.44491203233E+03  0.44491203233E+03  0.00000000000E+00 0. -1.
         25    2    1    2    0    0  0.66611153856E+02  0.73235977568E+02 -0.30949458522E+03  0.34818764708E+03  0.12508870883E+03 0.  0.
          5    1    3    3  502    0 -0.13057811459E+02 -0.26687976645E+02 -0.41048829599E+02  0.50845190028E+02  0.41800000000E+01 0. -1.
         -5    1    3    3    0  502  0.79668965315E+02  0.99923954213E+02 -0.26844575562E+03  0.29734245706E+03  0.41800000000E+01 0. -1.
        -11    1    1    2    0    0 -0.73174927770E+02 -0.24247534073E+02 -0.23550661003E+02  0.80604879483E+02  0.00000000000E+00 0.  1.
         11    1    1    2    0    0  0.65637739144E+01 -0.48988443495E+02 -0.54449347581E+02  0.73536944294E+02  0.00000000000E+00 0. -1.
</event>
<event>
 7    1  0.2490079E-009  0.1587528E+03  0.7561462E-02  0.1190112E+00
         -2   -1    0    0    0  501 -0.00000000000E+00  0.00000000000E+00  0.62813138771E+02  0.62813138771E+02  0.00000000000E+00 0.  1.
          2   -1    0    0  501    0  0.00000000000E+00 -0.00000000000E+00 -0.43034045488E+03  0.43034045488E+03  0.00000000000E+00 0. -1.
         25    2    1    2    0    0  0.11639745002E+03  0.33102382790E+02 -0.22684025053E+03  0.28591766085E+03  0.12509306698E+03 0.  0.
          5    1    3    3  502    0  0.36519775172E+02 -0.45195266846E+02 -0.50734949167E+02  0.77251625167E+02  0.41800000000E+01 0.  1.
         -5    1    3    3    0  502  0.79877674844E+02  0.78297649637E+02 -0.17610530137E+03  0.20866603568E+03  0.41800000000E+01 0.  1.
        -11    1    1    2    0    0 -0.62163806246E+02 -0.60337269911E+02 -0.10751438354E+03  0.13807341386E+03  0.00000000000E+00 0.  1.
         11    1    1    2    0    0 -0.54233643770E+02  0.27234887120E+02 -0.33172682034E+02  0.69162518942E+02  0.00000000000E+00 0. -1.
</event>
<event>
 7    1  0.2490079E-009  0.1057336E+03  0.7561462E-02  0.1268681E+00
         -1   -1    0    0    0  501 -0.00000000000E+00  0.00000000000E+00  0.17561389802E+03  0.17561389802E+03  0.00000000000E+00 0.  1.
          1   -1    0    0  501    0  0.00000000000E+00 -0.00000000000E+00 -0.75124624161E+02  0.75124624161E+02  0.00000000000E+00 0. -1.
         25    2    1    2    0    0  0.22382715629E+02  0.48624884454E+00  0.93843995349E+02  0.15797264434E+03  0.12508972180E+03 0.  0.
          5    1    3    3  502    0  0.41824695637E+02 -0.51862440607E+02  0.71109939418E+02  0.97535192596E+02  0.41800000000E+01 0. -1.
         -5    1    3    3    0  502 -0.19441980009E+02  0.52348689451E+02  0.22734055932E+02  0.60437451742E+02  0.41800000000E+01 0. -1.
        -11    1    1    2    0    0 -0.35240973306E+02  0.35787510782E+02 -0.93496969349E+01  0.51089029745E+02  0.00000000000E+00 0. -1.
         11    1    1    2    0    0  0.12858257677E+02 -0.36273759626E+02  0.15994975445E+02  0.41676848098E+02  0.00000000000E+00 0.  1.
</event>
<event>
 7    1  0.2490079E-009  0.9230254E+02  0.7561462E-02  0.1297370E+00
         -2   -1    0    0    0  501 -0.00000000000E+00  0.00000000000E+00  0.87103306046E+03  0.87103306046E+03  0.00000000000E+00 0.  1.
          2   -1    0    0  501    0  0.00000000000E+00 -0.00000000000E+00 -0.18636628065E+02  0.18636628065E+02  0.00000000000E+00 0. -1.
         25    2    1    2    0    0  0.94580425783E+01 -0.48131148127E+02  0.62520062008E+03  0.63947559343E+03  0.12508859764E+03 0.  0.
          5    1    3    3  502    0 -0.13783186372E+02 -0.61346586427E+02  0.59727401033E+03  0.60058895737E+03  0.41800000000E+01 0.  1.
         -5    1    3    3    0  502  0.23241228950E+02  0.13215438300E+02  0.27926609744E+02  0.38886636064E+02  0.41800000000E+01 0.  1.
        -11    1    1    2    0    0 -0.16986123748E+02  0.69671298808E+02  0.20915085190E+03  0.22110336299E+03  0.00000000000E+00 0.  1.
         11    1    1    2    0    0  0.75280811696E+01 -0.21540150681E+02  0.18044960416E+02  0.29090732096E+02  0.00000000000E+00 0. -1.
</event>
<event>
 7    1  0.2490079E-009  0.9274848E+02  0.7561462E-02  0.1296329E+00
          2   -1    0    0  501    0  0.00000000000E+00  0.00000000000E+00  0.82890064183E+02  0.82890064183E+02  0.00000000000E+00 0. -1.
         -2   -1    0    0    0  501 -0.00000000000E+00 -0.00000000000E+00 -0.13174471747E+03  0.13174471747E+03  0.00000000000E+00 0.  1.
         25    2    1    2    0    0 -0.73724979110E+01  0.31180764593E+01 -0.36745360532E+02  0.13062369178E+03  0.12509297026E+03 0.  0.
          5    1    3    3  502    0  0.36459010661E+02  0.32984308041E+02 -0.55452028814E+02  0.74226841068E+02  0.41800000000E+01 0. -1.
         -5    1    3    3    0  502 -0.43831508572E+02 -0.29866231582E+02  0.18706668282E+02  0.56396850717E+02  0.41800000000E+01 0. -1.
        -11    1    1    2    0    0  0.19717218752E+02 -0.39708099805E+02 -0.36875518860E+01  0.44487076149E+02  0.00000000000E+00 0. -1.
         11    1    1    2    0    0 -0.12344720841E+02  0.36590023346E+02 -0.84217408675E+01  0.39524013717E+02  0.00000000000E+00 0.  1.
</event>
<event>
 7    1  0.2490079E-009  0.1933295E+03  0.7561462E-02  0.1155492E+00
         -3   -1    0    0    0  501 -0.00000000000E+00  0.00000000000E+00  0.92114590062E+02  0.92114590062E+02  0.00000000000E+00 0. -1.
          3   -1    0    0  501    0  0.00000000000E+00 -0.00000000000E+00 -0.53383828857E+03  0.53383828857E+03  0.00000000000E+00 0.  1.
         25    2    1    2    0    0 -0.12592684928E+03 -0.12202852844E+03 -0.34210056344E+03  0.40426316488E+03  0.12508947940E+03 0.  0.
          5    1    3    3  502    0 -0.10714920307E+03 -0.22384567041E+02 -0.13683416954E+03  0.17528001287E+03  0.41800000000E+01 0. -1.
         -5    1    3    3    0  502 -0.18777646213E+02 -0.99643961400E+02 -0.20526639390E+03  0.22898315201E+03  0.41800000000E+01 0. -1.
        -11    1    1    2    0    0  0.76498956958E+02  0.67314969528E+02 -0.53948642523E+01  0.10204165864E+03  0.00000000000E+00 0. -1.
         11    1    1    2    0    0  0.49427892324E+02  0.54713558913E+02 -0.94228270816E+02  0.11964805510E+03  0.00000000000E+00 0.  1.
</event>
<event>
 7    1  0.2490079E-009  0.1475095E+03  0.7561462E-02  0.1203567E+00
         -1   -1    0    0    0  501 -0.00000000000E+00  0.00000000000E+00  0.14926790995E+03  0.14926790995E+03  0.00000000000E+00 0.  1.
          1   -1    0    0  501    0  0.00000000000E+00 -0.00000000000E+00 -0.26725566906E+03  0.26725566906E+03  0.00000000000E+00 0. -1.
         25    2    1    2    0    0 -0.38548205434E+02 -0.10062920247E+03 -0.19312079604E+03  0.25407642290E+03  0.12508791421E+03 0.  0.
          5    1    3    3  502    0 -0.33476088455E+02 -0.12450249262E+03 -0.18922705096E+03  0.22901062940E+03  0.41800000000E+01 0.  1.
         -5    1    3    3    0  502 -0.50721169794E+01  0.23873290146E+02 -0.38937450808E+01  0.25065793500E+02  0.41800000000E+01 0.  1.
        -11    1    1    2    0    0  0.30407395391E+02 -0.87045577761E+01  0.30920068374E+02  0.44231545856E+02  0.00000000000E+00 0.  1.
         11    1    1    2    0    0  0.81408100431E+01  0.10933376025E+03  0.44212968553E+02  0.11821561025E+03  0.00000000000E+00 0. -1.
</event>
<event>
 7    1  0.2490079E-009  0.2494668E+03  0.7561462E-02  0.1113642E+00
          2   -1    0    0  501    0  0.00000000000E+00  0.00000000000E+00  0.23207093943E+03  0.23207093943E+03  0.00000000000E+00 0. -1.
         -2   -1    0    0    0  501 -0.00000000000E+00 -0.00000000000E+00 -0.29328650046E+03  0.29328650046E+03  0.00000000000E+00 0.  1.
         25    2    1    2    0    0  0.18125708826E+03 -0.14974988596E+03 -0.31827770596E+01  0.26634077243E+03  0.12509243221E+03 0.  0.
          5    1    3    3  502    0  0.11531063132E+03 -0.15926154074E+03  0.14732399488E+02  0.19721890389E+03  0.41800000000E+01 0. -1.
         -5    1    3    3    0  502  0.65946456942E+02  0.95116547802E+01 -0.17915176547E+02  0.69121868540E+02  0.41800000000E+01 0. -1.
        -11    1    1    2    0    0 -0.14587180770E+03  0.12723708681E+03 -0.80006261685E+01  0.19373143926E+03  0.00000000000E+00 0. -1.
         11    1    1    2    0    0 -0.35385280564E+02  0.22512799158E+02 -0.50032157804E+02  0.65285228199E+02  0.00000000000E+00 0.  1.
</event>
<event>
 7    1  0.2490079E-009  0.8677533E+02  0.7561462E-02  0.1310854E+00
         -1   -1    0    0    0  501 -0.00000000000E+00  0.00000000000E+00  0.49366898428E+02  0.49366898428E+02  0.00000000000E+00 0.  1.
          1   -1    0    0  501    0  0.00000000000E+00 -0.00000000000E+00 -0.30868034613E+03  0.30868034613E+03  0.00000000000E+00 0. -1.
         25    2    1    2    0    0 -0.49293916488E+02  0.26375629681E+01 -0.99268785841E+02  0.16714689229E+03  0.12508774847E+03 0.  0.
          5    1    3    3  502    0 -0.14067011719E+02  0.26754882238E+02 -0.11686422969E+03  0.12078255305E+03  0.41800000000E+01 0.  1.
         -5    1    3    3    0  502 -0.35226904770E+02 -0.24117319270E+02  0.17595443845E+02  0.46364339233E+02  0.41800000000E+01 0.  1.
        -11    1    1    2    0    0  0.52200158565E+02  0.34705044809E+02 -0.73511009795E+02  0.96608308393E+02  0.00000000000E+00 0.  1.
         11    1    1    2    0    0 -0.29062420771E+01 -0.37342607777E+02 -0.86533652071E+02  0.94292043882E+02  0.00000000000E+00 0. -1.
</event>
<event>
 7    1  0.2490079E-009  0.8604111E+02  0.7561462E-02  0.1312732E+00
         -1   -1    0    0    0  501 -0.00000000000E+00  0.00000000000E+00  0.13425355898E+02  0.13425355898E+02  0.00000000000E+00 0.  1.
          1   -1    0    0  501    0  0.00000000000E+00 -0.00000000000E+00 -0.13852548015E+04  0.13852548015E+04  0.00000000000E+00 0. -1.
         25    2    1    2    0    0  0.94181024780E+01 -0.79777088100E+01 -0.11714569231E+04  0.11781811956E+04  0.12508901851E+03 0.  0.
          5    1    3    3  502    0  0.44172393303E+02  0.36695011818E+01 -0.16075477794E+03  0.16680598490E+03  0.41800000000E+01 0. -1.
         -5    1    3    3    0  502 -0.34754290825E+02 -0.11647209992E+02 -0.10107021451E+04  0.10113752107E+04  0.41800000000E+01 0. -1.
        -11    1    1    2    0    0  0.28870944963E+02  0.33826368344E+02 -0.11726166728E+03  0.12541153564E+03  0.00000000000E+00 0.  1.
         11    1    1    2    0    0 -0.38289047441E+02 -0.25848659534E+02 -0.83110855258E+02  0.95087426169E+02  0.00000000000E+00 0. -1.
</event>
<event>
 7    1  0.2490079E-009  0.2305014E+03  0.7561462E-02  0.1126287E+00
         -2   -1    0    0    0  501 -0.00000000000E+00  0.00000000000E+00  0.34855887049E+03  0.34855887049E+03  0.00000000000E+00 0. -1.
          2   -1    0    0  501    0  0.00000000000E+00 -0.00000000000E+00 -0.18307935402E+03  0.18307935402E+03  0.00000000000E+00 0.  1.
         25    2    1    2    0    0 -0.21761303123E+03 -0.25682552567E+02  0.26509585994E+02  0.25370692746E+03  0.12509764997E+03 0.  0.
          5    1    3    3  502    0 -0.10989809922E+03 -0.62115013499E+02  0.52840186774E+02  0.13691393228E+03  0.41800000000E+01 0. -1.
         -5    1    3    3    0  502 -0.10771493200E+03  0.36432460932E+02 -0.26330600780E+02  0.11679299518E+03  0.41800000000E+01 0. -1.
        -11    1    1    2    0    0  0.15751320501E+02  0.95142612471E+01 -0.14835200639E+02  0.23637014249E+02  0.00000000000E+00 0.  1.
         11    1    1    2    0    0  0.20186171073E+03  0.16168291320E+02  0.15380513111E+03  0.25429428279E+03  0.00000000000E+00 0. -1.
</event>
<event>
 7    1  0.2490079E-009  0.1537498E+03  0.7561462E-02  0.1195939E+00
         -1   -1    0    0    0  501 -0.00000000000E+00  0.00000000000E+00  0.19849355517E+03  0.19849355517E+03  0.00000000000E+00 0.  1.
          1   -1    0    0  501    0  0.00000000000E+00 -0.00000000000E+00 -0.18384260282E+03  0.18384260282E+03  0.00000000000E+00 0. -1.
         25    2    1    2    0    0 -0.44529840733E+02 -0.10457156549E+03 -0.10007708093E+03  0.19641676617E+03  0.12508399131E+03 0.  0.
          5    1    3    3  502    0 -0.49965460042E+02  0.68173336363E+01 -0.69727462210E+01  0.51079495152E+02  0.41800000000E+01 0.  1.
         -5    1    3    3    0  502  0.54356193095E+01 -0.11138889912E+03 -0.93104334710E+02  0.14533727102E+03  0.41800000000E+01 0.  1.
        -11    1    1    2    0    0  0.72521452473E+02  0.80825862356E+02  0.75903614891E+02  0.13248977262E+03  0.00000000000E+00 0. -1.
         11    1    1    2    0    0 -0.27991611740E+02  0.23745703131E+02  0.38824418392E+02  0.53429619206E+02  0.00000000000E+00 0.  1.
</event>
<event>
 7    1  0.2490079E-009  0.1315145E+03  0.7561462E-02  0.1225226E+00
         -2   -1    0    0    0  501 -0.00000000000E+00  0.00000000000E+00  0.74067708812E+02  0.74067708812E+02  0.00000000000E+00 0. -1.
          2   -1    0    0  501    0  0.00000000000E+00 -0.00000000000E+00 -0.32441571022E+03  0.32441571022E+03  0.00000000000E+00 0.  1.
         25    2    1    2    0    0  0.58012066559E+02 -0.77627291839E+02 -0.66825926526E+02  0.17176727491E+03  0.12508755321E+03 0.  0.
          5    1    3    3  502    0  0.33154004373E+02 -0.96136626293E+02 -0.87548115418E+02  0.13425194164E+03  0.41800000000E+01 0. -1.
         -5    1    3    3    0  502  0.24858062186E+02  0.18509334454E+02  0.20722188892E+02  0.37515333266E+02  0.41800000000E+01 0. -1.
        -11    1    1    2    0    0  0.21903051019E+02  0.29314884122E+02 -0.31405409642E+02  0.48222461880E+02  0.00000000000E+00 0.  1.
         11    1    1    2    0    0 -0.79915117579E+02  0.48312407717E+02 -0.15211666524E+03  0.17849368224E+03  0.00000000000E+00 0. -1.
</event>
<event>
 7    1  0.2490079E-009  0.1036526E+03  0.7561462E-02  0.1272797E+00
         -3   -1    0    0    0  501 -0.00000000000E+00  0.00000000000E+00  0.19665263236E+03  0.19665263236E+03  0.00000000000E+00 0.  1.
          3   -1    0    0  501    0  0.00000000000E+00 -0.00000000000E+00 -0.10849430540E+03  0.10849430540E+03  0.00000000000E+00 0. -1.
         25    2    1    2    0    0  0.40562660856E+02  0.64235644884E+02  0.11031200376E+03  0.18327097240E+03  0.12509182076E+03 0.  0.
          5    1    3    3  502    0 -0.72543243196E+01  0.50960664221E+02  0.12168250712E+03  0.13218819712E+03  0.41800000000E+01 0.  1.
         -5    1    3    3    0  502  0.47816985175E+02  0.13274980663E+02 -0.11370503364E+02  0.51082775273E+02  0.41800000000E+01 0.  1.
        -11    1    1    2    0    0 -0.55060085859E+02 -0.71011953569E+02  0.53923567247E+01  0.90018820896E+02  0.00000000000E+00 0.  1.
         11    1    1    2    0    0  0.14497425004E+02  0.67763086849E+01 -0.27546033525E+02  0.31857144475E+02  0.00000000000E+00 0. -1.
</event>
<event>
 7    1  0.2490079E-009  0.2579764E+03  0.7561462E-02  0.1108365E+00
         -2   -1    0    0    0  501 -0.00000000000E+00  0.00000000000E+00  0.11249043274E+03  0.11249043274E+03  0.00000000000E+00 0.  1.
          2   -1    0    0  501    0  0.00000000000E+00 -0.00000000000E+00 -0.69774289022E+03  0.69774289022E+03  0.00000000000E+00 0. -1.
         25    2    1    2    0    0 -0.18859556429E+03 -0.16822586207E+03 -0.39626423703E+03  0.48635436158E+03  0.12508793682E+03 0.  0.
          5    1    3    3  502    0 -0.13153466474E+03 -0.11116676194E+03 -0.15435116696E+03  0.23130320389E+03  0.41800000000E+01 0. -1.
         -5    1    3    3    0  502 -0.57060899546E+02 -0.57059100129E+02 -0.24191307008E+03  0.25505115769E+03  0.41800000000E+01 0. -1.
        -11    1    1    2    0    0  0.54902829912E+02  0.96843935919E+02 -0.74771356091E+02  0.13410378201E+03  0.00000000000E+00 0. -1.
         11    1    1    2    0    0  0.13369273437E+03  0.71381926154E+02 -0.11421686435E+03  0.18977517938E+03  0.00000000000E+00 0.  1.
</event>
<event>
 7    1  0.2490079E-009  0.1489349E+03  0.7561462E-02  0.1201788E+00
         -1   -1    0    0    0  501 -0.00000000000E+00  0.00000000000E+00  0.21609294707E+03  0.21609294707E+03  0.00000000000E+00 0.  1.
          1   -1    0    0  501    0  0.00000000000E+00 -0.00000000000E+00 -0.31039336305E+03  0.31039336305E+03  0.00000000000E+00 0. -1.
         25    2    1    2    0    0  0.14223426217E+03  0.57504624014E+01 -0.24219172803E+03  0.30752356630E+03  0.12510098941E+03 0.  0.
          5    1    3    3  502    0  0.11221490707E+03  0.30355687776E+02 -0.24197616502E+03  0.26848387286E+03  0.41800000000E+01 0.  1.
         -5    1    3    3    0  502  0.30019355101E+02 -0.24605225374E+02 -0.21556301087E+00  0.39039693439E+02  0.41800000000E+01 0.  1.
        -11    1    1    2    0    0 -0.28350291514E+02 -0.38235411693E+01  0.83183655165E+02  0.87965214617E+02  0.00000000000E+00 0.  1.
         11    1    1    2    0    0 -0.11388397065E+03 -0.19269212321E+01  0.64707656888E+02  0.13099752920E+03  0.00000000000E+00 0. -1.
</event>
<event>
 7    1  0.2490079E-009  0.8612610E+02  0.7561462E-02  0.1312514E+00
          2   -1    0    0  501    0  0.00000000000E+00  0.00000000000E+00  0.78336968278E+02  0.78336968278E+02  0.00000000000E+00 0. -1.
         -2   -1    0    0    0  501 -0.00000000000E+00 -0.00000000000E+00 -0.19351920263E+03  0.19351920263E+03  0.00000000000E+00 0.  1.
         25    2    1    2    0    0  0.56325778991E+02  0.13079479293E+02 -0.71500820608E+02  0.15524753150E+03  0.12508302256E+03 0.  0.
          5    1    3    3  502    0  0.50023691557E+02  0.47593337472E+02 -0.91455486804E+02  0.11466941159E+03  0.41800000000E+01 0. -1.
         -5    1    3    3    0  502  0.63020874336E+01 -0.34513858179E+02  0.19954666196E+02  0.40578119910E+02  0.41800000000E+01 0. -1.
        -11    1    1    2    0    0 -0.29859777277E+02  0.11140705489E+02  0.24074318796E+02  0.39941137231E+02  0.00000000000E+00 0. -1.
         11    1    1    2    0    0 -0.26466001714E+02 -0.24220184781E+02 -0.67755732537E+02  0.76667502171E+02  0.00000000000E+00 0.  1.
</event>
<event>
 7    1  0.2490079E-009  0.1064517E+03  0.7561462E-02  0.1267286E+00
         -1   -1    0    0    0  501 -0.00000000000E+00  0.00000000000E+00  0.78214488256E+02  0.78214488256E+02  0.00000000000E+00 0.  1.
          1   -1    0    0  501    0  0.00000000000E+00 -0.00000000000E+00 -0.16017637220E+03  0.16017637220E+03  0.00000000000E+00 0. -1.
         25    2    1    2    0    0  0.78249977835E+01  0.16889398668E+02 -0.69012305585E+02  0.14407233091E+03  0.12509059051E+03 0.  0.
          5    1    3    3  502    0 -0.21133162464E+02 -0.48986228490E+02 -0.37834345073E+02  0.65537555680E+02  0.41800000000E+01 0.  1.
         -5    1    3    3    0  502  0.28958160247E+02  0.65875627158E+02 -0.31177960513E+02  0.78534775228E+02  0.41800000000E+01 0.  1.
        -11    1    1    2    0    0  0.11169286152E+00  0.34907283843E+02 -0.21828296117E+02  0.41170443912E+02  0.00000000000E+00 0. -1.
         11    1    1    2    0    0 -0.79366906450E+01 -0.51796682511E+02  0.88787177597E+01  0.53148085634E+02  0.00000000000E+00 0.  1.
</event>
<event>
 7    1  0.2490079E-009  0.9572566E+02  0.7561462E-02  0.1289550E+00
         -4   -1    0    0    0  501 -0.00000000000E+00  0.00000000000E+00  0.64654878983E+02  0.64654878983E+02  0.00000000000E+00 0.  1.
          4   -1    0    0  501    0  0.00000000000E+00 -0.00000000000E+00 -0.22435864059E+03  0.22435864059E+03  0.00000000000E+00 0. -1.
         25    2    1    2    0    0  0.36657552529E+02  0.33469668194E+02 -0.64127254133E+02  0.14907655809E+03  0.12509004997E+03 0.  0.
          5    1    3    3  502    0  0.65498571732E+02  0.64417373017E+02 -0.46601670164E+02  0.10309630889E+03  0.41800000000E+01 0. -1.
         -5    1    3    3    0  502 -0.28841019203E+02 -0.30947704823E+02 -0.17525583969E+02  0.45980249194E+02  0.41800000000E+01 0. -1.
        -11    1    1    2    0    0 -0.27715148316E+02 -0.63635804304E+01  0.10327739971E+02  0.30253707458E+02  0.00000000000E+00 0.  1.
         11    1    1    2    0    0 -0.89424042129E+01 -0.27106087764E+02 -0.10590424745E+03  0.10968325403E+03  0.00000000000E+00 0. -1.
</event>
<event>
 7    1  0.2490079E-009  0.2215518E+03  0.7561462E-02  0.1132731E+00
          1   -1    0    0  501    0  0.00000000000E+00  0.00000000000E+00  0.31181725285E+03  0.31181725285E+03  0.00000000000E+00 0. -1.
         -1   -1    0    0    0  501 -0.00000000000E+00 -0.00000000000E+00 -0.20348603583E+03  0.20348603583E+03  0.00000000000E+00 0.  1.
         25    2    1    2    0    0 -0.10921055930E+03  0.17379224612E+03  0.15649597228E+03  0.28682336053E+03  0.12508381084E+03 0.  0.
          5    1    3    3  502    0  0.19845536488E+02  0.52997786976E+02  0.69619746005E+02  0.89816436005E+02  0.41800000000E+01 0.  1.
         -5    1    3    3    0  502 -0.12905609579E+03  0.12079445914E+03  0.86876226272E+02  0.19700692452E+03  0.41800000000E+01 0.  1.
        -11    1    1    2    0    0 -0.36510691299E+00 -0.23717162087E+02  0.19516724484E+02  0.30717089951E+02  0.00000000000E+00 0. -1.
         11    1    1    2    0    0  0.10957566621E+03 -0.15007508403E+03 -0.67681479736E+02  0.19776283820E+03  0.00000000000E+00 0.  1.
</event>
<event>
 7    1  0.2490079E-009  0.4113570E+03  0.7561462E-02  0.1039917E+00
          2   -1    0    0  501    0  0.00000000000E+00  0.00000000000E+00  0.10948792957E+04  0.10948792957E+04  0.00000000000E+00 0. -1.
         -2   -1    0    0    0  501 -0.00000000000E+00 -0.00000000000E+00 -0.17648938835E+03  0.17648938835E+03  0.00000000000E+00 0.  1.
         25    2    1    2    0    0 -0.13502760582E+03  0.38179196553E+03  0.27602725767E+03  0.50580175249E+03  0.12508719587E+03 0.  0.
          5    1    3    3  502    0 -0.76470902830E+02  0.27780232556E+03  0.12720670188E+03  0.31499356894E+03  0.41800000000E+01 0. -1.
         -5    1    3    3    0  502 -0.58556702991E+02  0.10398963997E+03  0.14882055579E+03  0.19080818356E+03  0.41800000000E+01 0. -1.
        -11    1    1    2    0    0  0.13930394558E+03 -0.27514461006E+03  0.50320114352E+03  0.59018771297E+03  0.00000000000E+00 0.  1.
         11    1    1    2    0    0 -0.42763397576E+01 -0.10664735547E+03  0.13916150612E+03  0.17537921854E+03  0.00000000000E+00 0. -1.
</event>
<event>
 7    1  0.2751370E-009  0.8582449E+02  0.7561462E-02  0.1313290E+00
          3   -1    0    0  501    0  0.00000000000E+00  0.00000000000E+00  0.36520425630E+03  0.36520425630E+03  0.00000000000E+00 0. -1.
         -3   -1    0    0    0  501 -0.00000000000E+00 -0.00000000000E+00 -0.42669324809E+02  0.42669324809E+02  0.00000000000E+00 0.  1.
         25    2    1    2    0    0 -0.31235032517E+01  0.19670330056E+02  0.85472111271E+02  0.15280534068E+03  0.12508921687E+03 0.  0.
          5    1    3    3  502    0 -0.46090279089E+02  0.25603263552E+02  0.94509942148E+02  0.10830255074E+03  0.41800000000E+01 0. -1.
         -5    1    3    3    0  502  0.42966775838E+02 -0.59329334957E+01 -0.90378308770E+01  0.44502789943E+02  0.41800000000E+01 0. -1.
        -11    1    1    2    0    0  0.34124185936E+02 -0.26780843120E+02  0.54011037876E+02  0.69273846698E+02  0.00000000000E+00 0.  1.
         11    1    1    2    0    0 -0.31000682684E+02  0.71105130632E+01  0.18305178235E+03  0.18579439373E+03  0.00000000000E+00 0. -1.
</event>
<event>
 7    1  0.2490079E-009  0.1072374E+03  0.7561462E-02  0.1265773E+00
         -1   -1    0    0    0  501 -0.00000000000E+00  0.00000000000E+00  0.17285921391E+03  0.17285921391E+03  0.00000000000E+00 0.  1.
          1   -1    0    0  501    0  0.00000000000E+00 -0.00000000000E+00 -0.88165560507E+02  0.88165560507E+02  0.00000000000E+00 0. -1.
         25    2    1    2    0    0 -0.14873408255E+02  0.57011068850E+02  0.42797644229E+02  0.14473741407E+03  0.12508317407E+03 0.  0.
          5    1    3    3  502    0  0.45585274851E+02  0.61476282612E+02  0.15879571197E+02  0.78275052146E+02  0.41800000000E+01 0.  1.
         -5    1    3    3    0  502 -0.60458683106E+02 -0.44652137617E+01  0.26918073031E+02  0.66462361924E+02  0.41800000000E+01 0.  1.
        -11    1    1    2    0    0 -0.17352761120E+02 -0.98905168954E+01  0.54310242180E+02  0.57866597002E+02  0.00000000000E+00 0.  1.
         11    1    1    2    0    0  0.32226169375E+02 -0.47120551955E+02 -0.12414233003E+02  0.58420763348E+02  0.00000000000E+00 0. -1.
</event>
<event>
 7    1  0.2490079E-009  0.1224090E+03  0.7561462E-02  0.1239175E+00
         -1   -1    0    0    0  501 -0.00000000000E+00  0.00000000000E+00  0.26914219713E+03  0.26914219713E+03  0.00000000000E+00 0.  1.
          1   -1    0    0  501    0  0.00000000000E+00 -0.00000000000E+00 -0.89361487506E+02  0.89361487506E+02  0.00000000000E+00 0. -1.
         25    2    1    2    0    0  0.50664246577E+02  0.25098191876E+02 -0.12851407438E+02  0.13787512705E+03  0.12509039479E+03 0.  0.
          5    1    3    3  502    0  0.31524520082E+02  0.76183099174E+02 -0.69795766432E+01  0.82848336472E+02  0.41800000000E+01 0. -1.
         -5    1    3    3    0  502  0.19139726495E+02 -0.51084907298E+02 -0.58718307950E+01  0.55026790574E+02  0.41800000000E+01 0. -1.
        -11    1    1    2    0    0  0.22014218444E+02 -0.27013901801E+02  0.60911148513E+02  0.70175100409E+02  0.00000000000E+00 0.  1.
         11    1    1    2    0    0 -0.72678465021E+02  0.19157099257E+01  0.13172096855E+03  0.15045345718E+03  0.00000000000E+00 0. -1.
</event>
<event>
 7    1  0.2490079E-009  0.2324059E+03  0.7561462E-02  0.1124958E+00
          2   -1    0    0  501    0  0.00000000000E+00  0.00000000000E+00  0.17196668901E+03  0.17196668901E+03  0.00000000000E+00 0. -1.
         -2   -1    0    0    0  501 -0.00000000000E+00 -0.00000000000E+00 -0.33968982016E+03  0.33968982016E+03  0.00000000000E+00 0.  1.
         25    2    1    2    0    0 -0.19810407566E+03 -0.84776845914E+02 -0.82029263481E+02  0.26231299488E+03  0.12508784442E+03 0.  0.
          5    1    3    3  502    0 -0.11196890025E+03  0.18335858224E+02 -0.50400055665E+02  0.12422107845E+03  0.41800000000E+01 0.  1.
         -5    1    3    3    0  502 -0.86135175408E+02 -0.10311270414E+03 -0.31629207816E+02  0.13809191643E+03  0.41800000000E+01 0.  1.
        -11    1    1    2    0    0  0.16632607651E+03  0.60976180862E+02 -0.10421673787E+03  0.20553244710E+03  0.00000000000E+00 0.  1.
         11    1    1    2    0    0  0.31777999148E+02  0.23800665052E+02  0.18522870207E+02  0.43811067180E+02  0.00000000000E+00 0. -1.
</event>
<event>
 7    1  0.2490079E-009  0.2157776E+03  0.7561462E-02  0.1137071E+00
          1   -1    0    0  501    0  0.00000000000E+00  0.00000000000E+00  0.34632303597E+03  0.34632303597E+03  0.00000000000E+00 0. -1.
         -1   -1    0    0    0  501 -0.00000000000E+00 -0.00000000000E+00 -0.24002056364E+03  0.24002056364E+03  0.00000000000E+00 0.  1.
         25    2    1    2    0    0 -0.10068020131E+03 -0.17956227774E+03 -0.11842254575E+03  0.26842204590E+03  0.12508949140E+03 0.  0.
          5    1    3    3  502    0 -0.54387916905E+02 -0.18126534133E+02 -0.75755373167E+02  0.95094509351E+02  0.41800000000E+01 0.  1.
         -5    1    3    3    0  502 -0.46292284408E+02 -0.16143574361E+03 -0.42667172578E+02  0.17332753655E+03  0.41800000000E+01 0.  1.
        -11    1    1    2    0    0  0.58866450318E+02  0.95331594453E+02  0.57178078235E+02  0.12578833215E+03  0.00000000000E+00 0.  1.
         11    1    1    2    0    0  0.41813750995E+02  0.84230683291E+02  0.16754693984E+03  0.19213322157E+03  0.00000000000E+00 0. -1.
</event>
<event>
 7    1  0.2490079E-009  0.1190580E+03  0.7561462E-02  0.1244659E+00
         -3   -1    0    0    0  501 -0.00000000000E+00  0.00000000000E+00  0.10821281165E+04  0.10821281165E+04  0.00000000000E+00 0.  1.
          3   -1    0    0  501    0  0.00000000000E+00 -0.00000000000E+00 -0.22640626903E+02  0.22640626903E+02  0.00000000000E+00 0. -1.
         25    2    1    2    0    0  0.31587092491E+02  0.41665746976E+02  0.91566355712E+03  0.92564687721E+03  0.12509441459E+03 0.  0.
          5    1    3    3  502    0  0.70345947840E+02 -0.86723510203E+01  0.53593533039E+03  0.54061808406E+03  0.41800000000E+01 0. -1.
         -5    1    3    3    0  502 -0.38758855349E+02  0.50338097996E+02  0.37972822673E+03  0.38502879314E+03  0.41800000000E+01 0. -1.
        -11    1    1    2    0    0  0.23428481361E+02  0.12231284084E+02  0.58418922848E+02  0.64119174947E+02  0.00000000000E+00 0.  1.
         11    1    1    2    0    0 -0.55015573852E+02 -0.53897031060E+02  0.85405009604E+02  0.11500269122E+03  0.00000000000E+00 0. -1.
</event>
<event>
 7    1  0.2490079E-009  0.1716816E+03  0.7561462E-02  0.1176105E+00
         -2   -1    0    0    0  501 -0.00000000000E+00  0.00000000000E+00  0.22338140995E+03  0.22338140995E+03  0.00000000000E+00 0.  1.
          2   -1    0    0  501    0  0.00000000000E+00 -0.00000000000E+00 -0.17885840902E+03  0.17885840902E+03  0.00000000000E+00 0. -1.
         25    2    1    2    0    0  0.59872881205E+02  0.15240240369E+03 -0.27250910262E+02  0.20784947710E+03  0.12509012137E+03 0.  0.
          5    1    3    3  502    0  0.12749592188E+02  0.91397594984E+02  0.44427185910E+02  0.10250521800E+03  0.41800000000E+01 0.  1.
         -5    1    3    3    0  502  0.47123289017E+02  0.61004808707E+02 -0.71678096172E+02  0.10534425909E+03  0.41800000000E+01 0.  1.
        -11    1    1    2    0    0 -0.49482285590E+01 -0.92053292990E+02  0.64408063629E+02  0.11245751365E+03  0.00000000000E+00 0.  1.
         11    1    1    2    0    0 -0.54924652646E+02 -0.60349110701E+02  0.73658475634E+01  0.81932828226E+02  0.00000000000E+00 0. -1.
</event>
<event>
 7    1  0.2490079E-009  0.1299746E+03  0.7561462E-02  0.1227493E+00
         -1   -1    0    0    0  501 -0.00000000000E+00  0.00000000000E+00  0.58643448176E+03  0.58643448176E+03  0.00000000000E+00 0.  1.
          1   -1    0    0  501    0  0.00000000000E+00 -0.00000000000E+00 -0.40777270030E+02  0.40777270030E+02  0.00000000000E+00 0. -1.
         25    2    1    2    0    0  0.73104755004E+02 -0.80799617489E+02  0.32249890154E+03  0.36266443880E+03  0.12508825000E+03 0.  0.
          5    1    3    3  502    0  0.66520139107E+02 -0.92355347290E+02  0.14388353693E+03  0.18350581375E+03  0.41800000000E+01 0. -1.
         -5    1    3    3    0  502  0.65846158969E+01  0.11555729801E+02  0.17861536460E+03  0.17915862505E+03  0.41800000000E+01 0. -1.
        -11    1    1    2    0    0 -0.74920619909E+01 -0.14552527705E+02  0.42308075492E+01  0.16905821127E+02  0.00000000000E+00 0. -1.
         11    1    1    2    0    0 -0.65612693013E+02  0.95352145193E+02  0.21892750265E+03  0.24764149186E+03  0.00000000000E+00 0.  1.
</event>
<event>
 7    1  0.2490079E-009  0.9301395E+02  0.7561462E-02  0.1295713E+00
         -1   -1    0    0    0  501 -0.00000000000E+00  0.00000000000E+00  0.14911395466E+03  0.14911395466E+03  0.00000000000E+00 0.  1.
          1   -1    0    0  501    0  0.00000000000E+00 -0.00000000000E+00 -0.10505505107E+03  0.10505505107E+03  0.00000000000E+00 0. -1.
         25    2    1    2    0    0 -0.74442470025E+01 -0.49133112585E+02 -0.10204669188E+02  0.13498735173E+03  0.12509184741E+03 0.  0.
          5    1    3    3  502    0  0.43636632052E+02 -0.48303700560E+01  0.32608101967E+02  0.54847505373E+02  0.41800000000E+01 0.  1.
         -5    1    3    3    0  502 -0.51080879054E+02 -0.44302742529E+02 -0.42812771155E+02  0.80139846360E+02  0.41800000000E+01 0.  1.
        -11    1    1    2    0    0 -0.19738840321E+02  0.41485877762E+02 -0.11716463979E+02  0.47412818932E+02  0.00000000000E+00 0. -1.
         11    1    1    2    0    0  0.27183087324E+02  0.76472348236E+01  0.65980036751E+02  0.71768835065E+02  0.00000000000E+00 0.  1.
</event>
<event>
 7    1  0.2490079E-009  0.1171086E+03  0.7561462E-02  0.1247945E+00
         -1   -1    0    0    0  501 -0.00000000000E+00  0.00000000000E+00  0.85718557593E+02  0.85718557593E+02  0.00000000000E+00 0.  1.
          1   -1    0    0  501    0  0.00000000000E+00 -0.00000000000E+00 -0.26652308052E+03  0.26652308052E+03  0.00000000000E+00 0. -1.
         25    2    1    2    0    0 -0.52295791585E+02 -0.30640938235E+02  0.27147814298E+01  0.13903073688E+03  0.12509380019E+03 0.  0.
          5    1    3    3  502    0  0.75362956145E+01  0.35543679689E+02 -0.26378399855E+02  0.45093694641E+02  0.41800000000E+01 0. -1.
         -5    1    3    3    0  502 -0.59832087199E+02 -0.66184617924E+02  0.29093181285E+02  0.93937042244E+02  0.41800000000E+01 0. -1.
        -11    1    1    2    0    0  0.77465898445E+02  0.30220058464E+02 -0.13510307158E+03  0.15864128500E+03  0.00000000000E+00 0.  1.
         11    1    1    2    0    0 -0.25170106860E+02  0.42087977108E+00 -0.48416232774E+02  0.54569616228E+02  0.00000000000E+00 0. -1.
</event>
<event>
 7    1  0.2490079E-009  0.1225554E+03  0.7561462E-02  0.1238940E+00
          2   -1    0    0  501    0  0.00000000000E+00  0.00000000000E+00  0.81855950854E+03  0.81855950854E+03  0.00000000000E+00 0. -1.
         -2   -1    0    0    0  501 -0.00000000000E+00 -0.00000000000E+00 -0.28683210691E+02  0.28683210691E+02  0.00000000000E+00 0.  1.
         25    2    1    2    0    0 -0.43452910467E+02  0.71583199664E+02  0.61059554121E+03  0.62887645783E+03  0.12508546822E+03 0.  0.
          5    1    3    3  502    0 -0.73384379330E+02  0.89078454956E+02  0.47910890733E+03  0.49283167081E+03  0.41800000000E+01 0. -1.
         -5    1    3    3    0  502  0.29931468863E+02 -0.17495255292E+02  0.13148663388E+03  0.13604478702E+03  0.41800000000E+01 0. -1.
        -11    1    1    2    0    0  0.45202586756E+02 -0.32728547560E+02  0.16923035239E+03  0.17819467962E+03  0.00000000000E+00 0. -1.
         11    1    1    2    0    0 -0.17496762888E+01 -0.38854652104E+02  0.10050404243E+02  0.40171581780E+02  0.00000000000E+00 0.  1.
</event>
<event>
 7    1  0.2490079E-009  0.1279544E+03  0.7561462E-02  0.1230523E+00
          1   -1    0    0  501    0  0.00000000000E+00  0.00000000000E+00  0.77091489373E+02  0.77091489373E+02  0.00000000000E+00 0. -1.
         -1   -1    0    0    0  501 -0.00000000000E+00 -0.00000000000E+00 -0.39791837491E+03  0.39791837491E+03  0.00000000000E+00 0.  1.
         25    2    1    2    0    0 -0.95447357626E+02  0.68126546219E+02 -0.26516068195E+03  0.31576708955E+03  0.12508894122E+03 0.  0.
          5    1    3    3  502    0 -0.73503901812E+01  0.36816895815E+01  0.13564097379E+02  0.16402445296E+02  0.41800000000E+01 0. -1.
         -5    1    3    3    0  502 -0.88096967444E+02  0.64444856638E+02 -0.27872477933E+03  0.29936464426E+03  0.41800000000E+01 0. -1.
        -11    1    1    2    0    0  0.42727743777E+02 -0.72920646491E+02 -0.30004313752E+01  0.84569990903E+02  0.00000000000E+00 0. -1.
         11    1    1    2    0    0  0.52719613849E+02  0.47941002717E+01 -0.52665772215E+02  0.74672783829E+02  0.00000000000E+00 0.  1.
</event>
<event>
 7    1  0.2490079E-009  0.2283644E+03  0.7561462E-02  0.1127796E+00
          1   -1    0    0  501    0  0.00000000000E+00  0.00000000000E+00  0.20410265917E+04  0.20410265917E+04  0.00000000000E+00 0. -1.
         -1   -1    0    0    0  501 -0.00000000000E+00 -0.00000000000E+00 -0.28351627427E+02  0.28351627427E+02  0.00000000000E+00 0.  1.
         25    2    1    2    0    0  0.19374730474E+03 -0.77279218574E+02  0.12505610519E+04  0.12739945733E+04  0.12509649271E+03 0.  0.
          5    1    3    3  502    0  0.23532222180E+02 -0.62559149013E+02  0.24378491016E+03  0.25281607431E+03  0.41800000000E+01 0. -1.
         -5    1    3    3    0  502  0.17021508256E+03 -0.14720069562E+02  0.10067761417E+04  0.10211784990E+04  0.41800000000E+01 0. -1.
        -11    1    1    2    0    0 -0.86865441374E+02 -0.16924984051E+00  0.20123331392E+03  0.21918138649E+03  0.00000000000E+00 0.  1.
         11    1    1    2    0    0 -0.10688186337E+03  0.77448468415E+02  0.56088059843E+03  0.57620225934E+03  0.00000000000E+00 0. -1.
</event>
<event>
 7    1  0.2545340E-009  0.1178210E+03  0.7561462E-02  0.1246736E+00
         -1   -1    0    0    0  501 -0.00000000000E+00  0.00000000000E+00  0.28172267070E+02  0.28172267070E+02  0.00000000000E+00 0.  1.
          1   -1    0    0  501    0  0.00000000000E+00 -0.00000000000E+00 -0.82803849124E+03  0.82803849124E+03  0.00000000000E+00 0. -1.
         25    2    1    2    0    0  0.86107329869E+02  0.61165751972E+02 -0.47224794782E+03  0.49982099976E+03  0.12508871293E+03 0.  0.
          5    1    3    3  502    0 -0.49214418969E+01  0.32469825330E+02 -0.22475666555E+02  0.40014224151E+02  0.41800000000E+01 0. -1.
         -5    1    3    3    0  502  0.91028771766E+02  0.28695926643E+02 -0.44977228127E+03  0.45980677560E+03  0.41800000000E+01 0. -1.
        -11    1    1    2    0    0 -0.60007125730E+02 -0.51794121654E+02 -0.31689216244E+03  0.32665597927E+03  0.00000000000E+00 0. -1.
         11    1    1    2    0    0 -0.26100204139E+02 -0.93716303186E+01 -0.10726113903E+02  0.29733779282E+02  0.00000000000E+00 0.  1.
</event>
<event>
 7    1  0.2490079E-009  0.1225353E+03  0.7561462E-02  0.1238972E+00
         -1   -1    0    0    0  501 -0.00000000000E+00  0.00000000000E+00  0.15224585808E+02  0.15224585808E+02  0.00000000000E+00 0.  1.
          1   -1    0    0  501    0  0.00000000000E+00 -0.00000000000E+00 -0.11458772264E+04  0.11458772264E+04  0.00000000000E+00 0. -1.
         25    2    1    2    0    0 -0.52318267222E+02 -0.23070649441E+02 -0.83209898654E+03  0.84339147418E+03  0.12510395423E+03 0.  0.
          5    1    3    3  502    0  0.11872206631E+02 -0.60852577723E+02 -0.42408056498E+03  0.42860912671E+03  0.41800000000E+01 0. -1.
         -5    1    3    3    0  502 -0.64190473853E+02  0.37781928282E+02 -0.40801842156E+03  0.41478234746E+03  0.41800000000E+01 0. -1.
        -11    1    1    2    0    0  0.71387173106E+02 -0.80405602325E+01 -0.20930143104E+03  0.22128684581E+03  0.00000000000E+00 0. -1.
         11    1    1    2    0    0 -0.19068905884E+02  0.31111209674E+02 -0.89252222970E+02  0.96423492180E+02  0.00000000000E+00 0.  1.
</event>
<event>
 7    1  0.2490079E-009  0.3558180E+03  0.7561462E-02  0.1060252E+00
         -1   -1    0    0    0  501 -0.00000000000E+00  0.00000000000E+00  0.58730830236E+03  0.58730830236E+03  0.00000000000E+00 0.  1.
          1   -1    0    0  501    0  0.00000000000E+00 -0.00000000000E+00 -0.28764310112E+03  0.28764310112E+03  0.00000000000E+00 0. -1.
         25    2    1    2    0    0 -0.17192708936E+03 -0.30280711250E+03  0.35249253098E+03  0.51102827996E+03  0.12509135499E+03 0.  0.
          5    1    3    3  502    0 -0.13261795801E+03 -0.13150886617E+03  0.23215739785E+03  0.29798764143E+03  0.41800000000E+01 0.  1.
         -5    1    3    3    0  502 -0.39309131341E+02 -0.17129824632E+03  0.12033513313E+03  0.21304063853E+03  0.41800000000E+01 0.  1.
        -11    1    1    2    0    0  0.57777656933E+02  0.12529366724E+03  0.22578484122E+02  0.13980897194E+03  0.00000000000E+00 0.  1.
         11    1    1    2    0    0  0.11414943242E+03  0.17751344526E+03 -0.75405813858E+02  0.22411415157E+03  0.00000000000E+00 0. -1.
</event>
<event>
 7    1  0.2490079E-009  0.2290193E+03  0.7561462E-02  0.1127332E+00
          1   -1    0    0  501    0  0.00000000000E+00  0.00000000000E+00  0.75747405213E+02  0.75747405213E+02  0.00000000000E+00 0. -1.
         -1   -1    0    0    0  501 -0.00000000000E+00 -0.00000000000E+00 -0.71458368557E+03  0.71458368557E+03  0.00000000000E+00 0.  1.
         25    2    1    2    0    0 -0.15895885317E+03  0.12939884912E+03 -0.30207703833E+03  0.38588570923E+03  0.12508103111E+03 0.  0.
          5    1    3    3  502    0 -0.47180834909E+02 -0.18718004410E+02 -0.40103092969E+02  0.64823802245E+02  0.41800000000E+01 0.  1.
         -5    1    3    3    0  502 -0.11177801826E+03  0.14811685353E+03 -0.26197394536E+03  0.32106190698E+03  0.41800000000E+01 0.  1.
        -11    1    1    2    0    0  0.15286698830E+03 -0.81538136035E+02 -0.28623427782E+03  0.33458458653E+03  0.00000000000E+00 0. -1.
         11    1    1    2    0    0  0.60918648761E+01 -0.47860713084E+02 -0.50524964201E+02  0.69860795029E+02  0.00000000000E+00 0.  1.
</event>
<event>
 7    1  0.2490079E-009  0.1039480E+03  0.7561462E-02  0.1272206E+00
          4   -1    0    0  501    0  0.00000000000E+00  0.00000000000E+00  0.54983765731E+02  0.54983765731E+02  0.00000000000E+00 0. -1.
         -4   -1    0    0    0  501 -0.00000000000E+00 -0.00000000000E+00 -0.28756698953E+03  0.28756698953E+03  0.00000000000E+00 0.  1.
         25    2    1    2    0    0 -0.56517859729E+02 -0.14702153690E+02 -0.11419933250E+03  0.17916246395E+03  0.12508908488E+03 0.  0.
          5    1    3    3  502    0 -0.65613347833E+02  0.19762539635E+02 -0.10528039834E+02  0.69454887585E+02  0.41800000000E+01 0. -1.
         -5    1    3    3    0  502  0.90954881044E+01 -0.34464693325E+02 -0.10367129266E+03  0.10970757637E+03  0.41800000000E+01 0. -1.
        -11    1    1    2    0    0  0.62418245775E+02  0.42125863296E+02 -0.52548049681E+02  0.91825504569E+02  0.00000000000E+00 0. -1.
         11    1    1    2    0    0 -0.59003860468E+01 -0.27423709606E+02 -0.65835841627E+02  0.71562786745E+02  0.00000000000E+00 0.  1.
</event>
<event>
 7    1  0.2490079E-009  0.1149624E+03  0.7561462E-02  0.1251647E+00
          1   -1    0    0  501    0  0.00000000000E+00  0.00000000000E+00  0.48967629889E+02  0.48967629889E+02  0.00000000000E+00 0. -1.
         -1   -1    0    0    0  501 -0.00000000000E+00 -0.00000000000E+00 -0.63041016035E+03  0.63041016035E+03  0.00000000000E+00 0.  1.
         25    2    1    2    0    0  0.41020655438E+02  0.87500976159E+02 -0.50931423842E+03  0.53327852796E+03  0.12508349181E+03 0.  0.
          5    1    3    3  502    0 -0.82175588124E+01  0.31159072340E+02 -0.39657125549E+03  0.39790030050E+03  0.41800000000E+01 0. -1.
         -5    1    3    3    0  502  0.49238214250E+02  0.56341903819E+02 -0.11274298293E+03  0.13537822745E+03  0.41800000000E+01 0. -1.
        -11    1    1    2    0    0 -0.46435145439E+02 -0.13594774975E+02 -0.48028632787E+02  0.68174703564E+02  0.00000000000E+00 0. -1.
         11    1    1    2    0    0  0.54144900014E+01 -0.73906201184E+02 -0.24099659259E+02  0.77924558721E+02  0.00000000000E+00 0.  1.
</event>
<event>
 7    1  0.2490079E-009  0.1239273E+03  0.7561462E-02  0.1236755E+00
         -2   -1    0    0    0  501 -0.00000000000E+00  0.00000000000E+00  0.19827467784E+04  0.19827467784E+04  0.00000000000E+00 0.  1.
          2   -1    0    0  501    0  0.00000000000E+00 -0.00000000000E+00 -0.21393964296E+02  0.21393964296E+02  0.00000000000E+00 0. -1.
         25    2    1    2    0    0 -0.10564388587E+03 -0.56892567999E+02  0.16435117960E+04  0.16526272372E+04  0.12509343165E+03 0.  0.
          5    1    3    3  502    0 -0.27103242899E+02 -0.14201941868E+01  0.57739572713E+02  0.63936948506E+02  0.41800000000E+01 0. -1.
         -5    1    3    3    0  502 -0.78540642970E+02 -0.55472373812E+02  0.15857722233E+04  0.15886902887E+04  0.41800000000E+01 0. -1.
        -11    1    1    2    0    0  0.85076721965E+02  0.29824705773E+02  0.29973047575E+03  0.31299507950E+03  0.00000000000E+00 0.  1.
         11    1    1    2    0    0  0.20567163904E+02  0.27067862226E+02  0.18110542344E+02  0.38518425987E+02  0.00000000000E+00 0. -1.
</event>
<event>
 7    1  0.2490079E-009  0.1081260E+03  0.7561462E-02  0.1264080E+00
          1   -1    0    0  501    0  0.00000000000E+00  0.00000000000E+00  0.38538795839E+03  0.38538795839E+03  0.00000000000E+00 0. -1.
         -1   -1    0    0    0  501 -0.00000000000E+00 -0.00000000000E+00 -0.44417880995E+02  0.44417880995E+02  0.00000000000E+00 0.  1.
         25    2    1    2    0    0  0.31611655368E+02 -0.22934285417E+02  0.87503912497E+02  0.15757444149E+03  0.12508993448E+03 0.  0.
          5    1    3    3  502    0  0.59872352550E+02  0.29597247046E+02  0.66104126592E+02  0.94063401943E+02  0.41800000000E+01 0.  1.
         -5    1    3    3    0  502 -0.28260697182E+02 -0.52531532464E+02  0.21399785905E+02  0.63511039552E+02  0.41800000000E+01 0.  1.
        -11    1    1    2    0    0  0.19881618861E+02  0.31584403349E+02  0.16785161993E+03  0.17195063134E+03  0.00000000000E+00 0.  1.
         11    1    1    2    0    0 -0.51493274229E+02 -0.86501179315E+01  0.85614544970E+02  0.10028076656E+03  0.00000000000E+00 0. -1.
</event>
<event>
 7    1  0.2490079E-009  0.1219156E+03  0.7561462E-02  0.1239970E+00
          2   -1    0    0  501    0  0.00000000000E+00  0.00000000000E+00  0.45833867664E+03  0.45833867664E+03  0.00000000000E+00 0.  1.
         -2   -1    0    0    0  501 -0.00000000000E+00 -0.00000000000E+00 -0.39086114260E+02  0.39086114260E+02  0.00000000000E+00 0. -1.
         25    2    1    2    0    0 -0.70271109885E+02 -0.35661951845E+02  0.22033628881E+03  0.26534220041E+03  0.12509436221E+03 0.  0.
          5    1    3    3  502    0 -0.94877592511E+02 -0.10337233507E+02  0.93714099109E+02  0.13382234764E+03  0.41800000000E+01 0. -1.
         -5    1    3    3    0  502  0.24606482626E+02 -0.25324718339E+02  0.12662218970E+03  0.13151985277E+03  0.41800000000E+01 0. -1.
        -11    1    1    2    0    0  0.74960399544E+02 -0.18072291250E+01  0.16535843341E+03  0.18156469667E+03  0.00000000000E+00 0.  1.
         11    1    1    2    0    0 -0.46892896590E+01  0.37469180970E+02  0.33557840159E+02  0.50517893822E+02  0.00000000000E+00 0. -1.
</event>
<event>
 7    1  0.2490079E-009  0.9590334E+02  0.7561462E-02  0.1289154E+00
         -2   -1    0    0    0  501 -0.00000000000E+00  0.00000000000E+00  0.35811515969E+03  0.35811515969E+03  0.00000000000E+00 0.  1.
          2   -1    0    0  501    0  0.00000000000E+00 -0.00000000000E+00 -0.41191525217E+02  0.41191525217E+02  0.00000000000E+00 0. -1.
         25    2    1    2    0    0 -0.33269732554E+02  0.27122007543E+02  0.12244939258E+03  0.18023211684E+03  0.12508910345E+03 0.  0.
          5    1    3    3  502    0 -0.62653420884E+02 -0.14831700866E+02  0.23378406844E+02  0.68625453045E+02  0.41800000000E+01 0.  1.
         -5    1    3    3    0  502  0.29383688330E+02  0.41953708410E+02  0.99070985735E+02  0.11160666380E+03  0.41800000000E+01 0.  1.
        -11    1    1    2    0    0  0.26349992617E+02  0.16919092572E+02  0.15913173028E+03  0.16218349295E+03  0.00000000000E+00 0.  1.
         11    1    1    2    0    0  0.69197399372E+01 -0.44041100115E+02  0.35342511609E+02  0.56891075108E+02  0.00000000000E+00 0. -1.
</event>
<event>
 7    1  0.2490079E-009  0.7116963E+02  0.7561462E-02  0.1356160E+00
          4   -1    0    0  501    0  0.00000000000E+00  0.00000000000E+00  0.53219259873E+02  0.53219259873E+02  0.00000000000E+00 0.  1.
         -4   -1    0    0    0  501 -0.00000000000E+00 -0.00000000000E+00 -0.34764674247E+03  0.34764674247E+03  0.00000000000E+00 0. -1.
         25    2    1    2    0    0 -0.47327704718E+02  0.45923865019E+02 -0.90299243684E+02  0.16777660115E+03  0.12508445736E+03 0.  0.
          5    1    3    3  502    0 -0.38419369328E+02  0.25022982432E+02 -0.12093772907E+03  0.12940480788E+03  0.41800000000E+01 0. -1.
         -5    1    3    3    0  502 -0.89083353893E+01  0.20900882587E+02  0.30638485387E+02  0.38371793275E+02  0.41800000000E+01 0. -1.
        -11    1    1    2    0    0  0.71622661068E+01 -0.28552145563E+02 -0.58154972634E+01  0.30005717463E+02  0.00000000000E+00 0.  1.
         11    1    1    2    0    0  0.40165438611E+02 -0.17371719456E+02 -0.19831274165E+03  0.20308368373E+03  0.00000000000E+00 0. -1.
</event>
<event>
 7    1  0.2490079E-009  0.9129897E+02  0.7561462E-02  0.1299736E+00
         -2   -1    0    0    0  501 -0.00000000000E+00  0.00000000000E+00  0.23782739715E+03  0.23782739715E+03  0.00000000000E+00 0.  1.
          2   -1    0    0  501    0  0.00000000000E+00 -0.00000000000E+00 -0.72279406856E+02  0.72279406856E+02  0.00000000000E+00 0. -1.
         25    2    1    2    0    0 -0.68253810042E+02  0.94322545635E+01  0.73279111933E+02  0.16051317601E+03  0.12508837442E+03 0.  0.
          5    1    3    3  502    0 -0.59743047369E+02  0.23372183040E+02  0.10584673991E+03  0.12384060480E+03  0.41800000000E+01 0. -1.
         -5    1    3    3    0  502 -0.85107626727E+01 -0.13939928477E+02 -0.32567627973E+02  0.36672571208E+02  0.41800000000E+01 0. -1.
        -11    1    1    2    0    0  0.27680300734E+02  0.32778136473E+02  0.32219658601E+01  0.43023090816E+02  0.00000000000E+00 0. -1.
         11    1    1    2    0    0  0.40573509308E+02 -0.42210391036E+02  0.89046912498E+02  0.10657053718E+03  0.00000000000E+00 0.  1.
</event>
<event>
 7    1  0.2490079E-009  0.1028383E+03  0.7561462E-02  0.1274438E+00
         -1   -1    0    0    0  501 -0.00000000000E+00  0.00000000000E+00  0.67116704645E+02  0.67116704645E+02  0.00000000000E+00 0.  1.
          1   -1    0    0  501    0  0.00000000000E+00 -0.00000000000E+00 -0.20839120147E+03  0.20839120147E+03  0.00000000000E+00 0. -1.
         25    2    1    2    0    0  0.38191023525E+02  0.32052300707E+02 -0.77370159662E+02  0.15530358175E+03  0.12508859516E+03 0.  0.
          5    1    3    3  502    0  0.20861424438E+02 -0.31980644083E+02 -0.80042344562E+02  0.88781810911E+02  0.41800000000E+01 0. -1.
         -5    1    3    3    0  502  0.17329599087E+02  0.64032944790E+02  0.26721849000E+01  0.66521770836E+02  0.41800000000E+01 0. -1.
        -11    1    1    2    0    0  0.13557363218E+02 -0.45378449529E+02 -0.38506785217E+02  0.61039153720E+02  0.00000000000E+00 0. -1.
         11    1    1    2    0    0 -0.51748386743E+02  0.13326148822E+02 -0.25397551945E+02  0.59165170648E+02  0.00000000000E+00 0.  1.
</event>
<event>
 7    1  0.2490079E-009  0.9275263E+02  0.7561462E-02  0.1296319E+00
         -1   -1    0    0    0  501 -0.00000000000E+00  0.00000000000E+00  0.20833785514E+02  0.20833785514E+02  0.00000000000E+00 0.  1.
          1   -1    0    0  501    0  0.00000000000E+00 -0.00000000000E+00 -0.46842377352E+03  0.46842377352E+03  0.00000000000E+00 0. -1.
         25    2    1    2    0    0  0.11972954780E+02 -0.84067247203E+01 -0.28009059207E+03  0.30710225427E+03  0.12508808953E+03 0.  0.
          5    1    3    3  502    0  0.67235982165E+02 -0.72189492876E+01 -0.12165111431E+03  0.13924531066E+03  0.41800000000E+01 0.  1.
         -5    1    3    3    0  502 -0.55263027385E+02 -0.11877754327E+01 -0.15843947776E+03  0.16785694361E+03  0.41800000000E+01 0.  1.
        -11    1    1    2    0    0 -0.47266155982E+00 -0.26019532330E+02 -0.11763801884E+03  0.12048212709E+03  0.00000000000E+00 0. -1.
         11    1    1    2    0    0 -0.11500293220E+02  0.34426257050E+02 -0.49861377093E+02  0.61673177673E+02  0.00000000000E+00 0.  1.
</event>
<event>
 7    1  0.2490079E-009  0.1031674E+03  0.7561462E-02  0.1273773E+00
          1   -1    0    0  501    0  0.00000000000E+00  0.00000000000E+00  0.13145228095E+04  0.13145228095E+04  0.00000000000E+00 0.  1.
         -1   -1    0    0    0  501 -0.00000000000E+00 -0.00000000000E+00 -0.98883847651E+01  0.98883847651E+01  0.00000000000E+00 0. -1.
         25    2    1    2    0    0 -0.26177264631E+02  0.15230556823E+02  0.91401438416E+03  0.92303145310E+03  0.12509016710E+03 0.  0.
          5    1    3    3  502    0  0.16248127979E+02 -0.44044733206E+02  0.53332801206E+03  0.53540655677E+03  0.41800000000E+01 0. -1.
         -5    1    3    3    0  502 -0.42425392610E+02  0.59275290029E+02  0.38068637210E+03  0.38762489633E+03  0.41800000000E+01 0. -1.
        -11    1    1    2    0    0 -0.15718886748E+02  0.24068365195E+02  0.70309147800E+02  0.75958843252E+02  0.00000000000E+00 0.  1.
         11    1    1    2    0    0  0.41896151380E+02 -0.39298922018E+02  0.32031089273E+03  0.32542089787E+03  0.00000000000E+00 0. -1.
</event>
<event>
 7    1  0.2490079E-009  0.1195599E+03  0.7561462E-02  0.1243825E+00
          1   -1    0    0  501    0  0.00000000000E+00  0.00000000000E+00  0.96268619984E+02  0.96268619984E+02  0.00000000000E+00 0. -1.
         -1   -1    0    0    0  501 -0.00000000000E+00 -0.00000000000E+00 -0.18719764760E+03  0.18719764760E+03  0.00000000000E+00 0.  1.
         25    2    1    2    0    0 -0.63601741207E+02 -0.19803110497E+02 -0.33555850832E+01  0.14176183100E+03  0.12509121514E+03 0.  0.
          5    1    3    3  502    0 -0.87423033177E+02  0.15676246095E+02  0.22396584611E+02  0.91693024946E+02  0.41800000000E+01 0. -1.
         -5    1    3    3    0  502  0.23821291970E+02 -0.35479356593E+02 -0.25752169694E+02  0.50068806050E+02  0.41800000000E+01 0. -1.
        -11    1    1    2    0    0 -0.20321854091E+02 -0.23771997181E+01 -0.33083514951E+01  0.20726167562E+02  0.00000000000E+00 0. -1.
         11    1    1    2    0    0  0.83923595297E+02  0.22180310215E+02 -0.84265091036E+02  0.12097826902E+03  0.00000000000E+00 0.  1.
</event>
<event>
 7    1  0.2554381E-009  0.1300958E+03  0.7561462E-02  0.1227314E+00
         -1   -1    0    0    0  501 -0.00000000000E+00  0.00000000000E+00  0.57111524132E+02  0.57111524132E+02  0.00000000000E+00 0.  1.
          1   -1    0    0  501    0  0.00000000000E+00 -0.00000000000E+00 -0.33621909562E+03  0.33621909562E+03  0.00000000000E+00 0. -1.
         25    2    1    2    0    0 -0.62576577389E+02  0.59047087916E+02 -0.16110416134E+03  0.22136650393E+03  0.12508473781E+03 0.  0.
          5    1    3    3  502    0 -0.94345543504E+02  0.16371577693E+02 -0.12230467703E+03  0.15538666789E+03  0.41800000000E+01 0. -1.
         -5    1    3    3    0  502  0.31768966115E+02  0.42675510223E+02 -0.38799484310E+02  0.65979836038E+02  0.41800000000E+01 0. -1.
        -11    1    1    2    0    0  0.61421212159E+02 -0.10372887341E+02 -0.25260538906E+02  0.67217980635E+02  0.00000000000E+00 0.  1.
         11    1    1    2    0    0  0.11553652302E+01 -0.48674200575E+02 -0.92742871250E+02  0.10474613519E+03  0.00000000000E+00 0. -1.
</event>
<event>
 7    1  0.2490079E-009  0.1102710E+03  0.7561462E-02  0.1260069E+00
          1   -1    0    0  501    0  0.00000000000E+00  0.00000000000E+00  0.98494873012E+02  0.98494873012E+02  0.00000000000E+00 0. -1.
         -1   -1    0    0    0  501 -0.00000000000E+00 -0.00000000000E+00 -0.13379349028E+03  0.13379349028E+03  0.00000000000E+00 0.  1.
         25    2    1    2    0    0  0.13536054956E+02 -0.31486717118E+02 -0.36389767919E+02  0.13471246110E+03  0.12509433972E+03 0.  0.
          5    1    3    3  502    0 -0.46928269302E+02 -0.39975512931E+02  0.31198876981E+01  0.61866874763E+02  0.41800000000E+01 0.  1.
         -5    1    3    3    0  502  0.60464324258E+02  0.84887958123E+01 -0.39509655617E+02  0.72845586340E+02  0.41800000000E+01 0.  1.
        -11    1    1    2    0    0 -0.37798815374E+02 -0.18430052970E+02  0.13511017929E+01  0.42074253079E+02  0.00000000000E+00 0.  1.
         11    1    1    2    0    0  0.24262760418E+02  0.49916770088E+02 -0.25995114163E+00  0.55501649108E+02  0.00000000000E+00 0. -1.
</event>
<event>
 7    1  0.2490079E-009  0.9338268E+02  0.7561462E-02  0.1294861E+00
         -2   -1    0    0    0  501 -0.00000000000E+00  0.00000000000E+00  0.35302821462E+02  0.35302821462E+02  0.00000000000E+00 0.  1.
          2   -1    0    0  501    0  0.00000000000E+00 -0.00000000000E+00 -0.38887472340E+03  0.38887472340E+03  0.00000000000E+00 0. -1.
         25    2    1    2    0    0  0.14374206668E+02  0.30300312971E+02 -0.26223605035E+03  0.29247156281E+03  0.12508853731E+03 0.  0.
          5    1    3    3  502    0  0.69625468339E+02  0.98528145524E+01 -0.14197587853E+03  0.15849102902E+03  0.41800000000E+01 0.  1.
         -5    1    3    3    0  502 -0.55251261671E+02  0.20447498419E+02 -0.12026017183E+03  0.13398053379E+03  0.41800000000E+01 0.  1.
        -11    1    1    2    0    0 -0.10413252066E+02 -0.42851758057E+02 -0.10429518714E+03  0.11323513168E+03  0.00000000000E+00 0. -1.
         11    1    1    2    0    0 -0.39609546021E+01  0.12551445086E+02  0.12959335556E+02  0.18470850364E+02  0.00000000000E+00 0.  1.
</event>
<event>
 7    1  0.2490079E-009  0.1063237E+03  0.7561462E-02  0.1267533E+00
          1   -1    0    0  501    0  0.00000000000E+00  0.00000000000E+00  0.23807138570E+03  0.23807138570E+03  0.00000000000E+00 0. -1.
         -1   -1    0    0    0  501 -0.00000000000E+00 -0.00000000000E+00 -0.69525493466E+02  0.69525493466E+02  0.00000000000E+00 0.  1.
         25    2    1    2    0    0 -0.64854575238E+02 -0.15121082139E+02  0.64948792597E+02  0.15588624554E+03  0.12508961921E+03 0.  0.
          5    1    3    3  502    0  0.20049455890E+02 -0.96490662467E+01  0.66955783711E+02  0.70679802867E+02  0.41800000000E+01 0.  1.
         -5    1    3    3    0  502 -0.84904031128E+02 -0.54720158923E+01 -0.20069911146E+01  0.85206442673E+02  0.41800000000E+01 0.  1.
        -11    1    1    2    0    0  0.69900912770E+02 -0.17302832784E+02  0.92166794954E+02  0.11696257402E+03  0.00000000000E+00 0. -1.
         11    1    1    2    0    0 -0.50463375325E+01  0.32423914923E+02  0.11430304683E+02  0.34748059609E+02  0.00000000000E+00 0.  1.
</event>
<event>
 7    1  0.2490079E-009  0.8034176E+02  0.7561462E-02  0.1328084E+00
         -1   -1    0    0    0  501 -0.00000000000E+00  0.00000000000E+00  0.29534946767E+03  0.29534946767E+03  0.00000000000E+00 0.  1.
          1   -1    0    0  501    0  0.00000000000E+00 -0.00000000000E+00 -0.45746296566E+02  0.45746296566E+02  0.00000000000E+00 0. -1.
         25    2    1    2    0    0 -0.38744180520E+02  0.12477391380E+02  0.12863303725E+03  0.18398610090E+03  0.12509048819E+03 0.  0.
          5    1    3    3  502    0 -0.56081818328E+02 -0.18440396071E+02  0.99020603050E+01  0.60006180953E+02  0.41800000000E+01 0. -1.
         -5    1    3    3    0  502  0.17337637808E+02  0.30917787451E+02  0.11873097694E+03  0.12397991995E+03  0.41800000000E+01 0. -1.
        -11    1    1    2    0    0  0.16566416948E+02  0.20318701767E+02  0.11391788632E+03  0.11689559716E+03  0.00000000000E+00 0.  1.
         11    1    1    2    0    0  0.22177763572E+02 -0.32796093147E+02  0.70522475385E+01  0.40214066172E+02  0.00000000000E+00 0. -1.
</event>
<event>
 7    1  0.2490079E-009  0.1176516E+03  0.7561462E-02  0.1247022E+00
          1   -1    0    0  501    0  0.00000000000E+00  0.00000000000E+00  0.34657840146E+03  0.34657840146E+03  0.00000000000E+00 0. -1.
         -1   -1    0    0    0  501 -0.00000000000E+00 -0.00000000000E+00 -0.61635298535E+02  0.61635298535E+02  0.00000000000E+00 0.  1.
         25    2    1    2    0    0  0.57902714823E+02  0.52929542260E+02  0.23481806871E+03  0.27738186500E+03  0.12508762055E+03 0.  0.
          5    1    3    3  502    0 -0.21960256841E+02  0.12353578774E+01  0.14420903507E+03  0.14593662044E+03  0.41800000000E+01 0. -1.
         -5    1    3    3    0  502  0.79862971663E+02  0.51694184383E+02  0.90609033637E+02  0.13144524456E+03  0.41800000000E+01 0. -1.
        -11    1    1    2    0    0 -0.46433855539E+02  0.15001398541E+02  0.63502588064E+01  0.49208441200E+02  0.00000000000E+00 0.  1.
         11    1    1    2    0    0 -0.11468859284E+02 -0.67930940801E+02  0.43774775410E+02  0.81623393789E+02  0.00000000000E+00 0. -1.
</event>
<event>
 7    1  0.2490079E-009  0.1210919E+03  0.7561462E-02  0.1241307E+00
         -1   -1    0    0    0  501 -0.00000000000E+00  0.00000000000E+00  0.27441852158E+02  0.27441852158E+02  0.00000000000E+00 0.  1.
          1   -1    0    0  501    0  0.00000000000E+00 -0.00000000000E+00 -0.77861482024E+03  0.77861482024E+03  0.00000000000E+00 0. -1.
         25    2    1    2    0    0  0.86010435788E+02 -0.75879746460E+01 -0.54070553005E+03  0.56166204013E+03  0.12508558941E+03 0.  0.
          5    1    3    3  502    0  0.82438703030E+02 -0.55714903413E+02 -0.29894979187E+03  0.31510115943E+03  0.41800000000E+01 0.  1.
         -5    1    3    3    0  502  0.35717327583E+01  0.48126928767E+02 -0.24175573818E+03  0.24656088070E+03  0.41800000000E+01 0.  1.
        -11    1    1    2    0    0 -0.50463088471E+02  0.22943061111E+02 -0.36975607465E+02  0.66634097117E+02  0.00000000000E+00 0.  1.
         11    1    1    2    0    0 -0.35547347318E+02 -0.15355086465E+02 -0.17349183057E+03  0.17776053515E+03  0.00000000000E+00 0. -1.
</event>
