<event>
 6    1  0.7457796E-006  0.1344310E+03  0.7546771E-02  0.1233327E+00
         -4   -1    0    0    0  501 -0.00000000000E+00  0.00000000000E+00  0.12216357154E+03  0.12216357154E+03  0.00000000000E+00 0.  1.
          4   -1    0    0  501    0  0.00000000000E+00 -0.00000000000E+00 -0.11925530153E+03  0.11925530153E+03  0.00000000000E+00 0. -1.
          5    1    1    2  502    0  0.10703895265E+02  0.39372428362E+02 -0.24619983063E+02  0.47885227942E+02  0.47000000000E+01 0. -1.
         -5    1    1    2    0  502 -0.59602873160E+02 -0.46799171803E+02  0.44505699613E+02  0.88008592015E+02  0.47000000000E+01 0. -1.
        -11    1    1    2    0    0  0.51817117507E+02 -0.18529845263E+02 -0.42097310664E+02  0.69286018772E+02  0.00000000000E+00 0. -1.
         11    1    1    2    0    0 -0.29181396122E+01  0.25956588703E+02  0.25119864128E+02  0.36239034337E+02  0.00000000000E+00 0.  1.
<mgrwt>
<rscale>  0 0.12612168E+03</rscale>
<asrwt>0</asrwt>
<pdfrwt beam="2">  1        4 0.18346969E-01 0.13443098E+03</pdfrwt>
<pdfrwt beam="1">  1       -4 0.18794396E-01 0.13443098E+03</pdfrwt>
<totfact> 0.10954488E+03</totfact>
</mgrwt>
</event>
<event>
 6    1  0.7457796E-006  0.1369669E+03  0.7546771E-02  0.1229725E+00
         -2   -1    0    0    0  501 -0.00000000000E+00  0.00000000000E+00  0.15947941109E+02  0.15947941109E+02  0.00000000000E+00 0.  1.
          2   -1    0    0  501    0  0.00000000000E+00 -0.00000000000E+00 -0.97927237210E+03  0.97927237210E+03  0.00000000000E+00 0. -1.
          5    1    1    2  502    0 -0.47517829840E+02  0.68628299727E+02 -0.18806204074E+03  0.20580867048E+03  0.47000000000E+01 0. -1.
         -5    1    1    2    0  502  0.40228068573E+02 -0.13299766147E+02 -0.23614899680E+03  0.23996587251E+03  0.47000000000E+01 0. -1.
        -11    1    1    2    0    0  0.42568752843E+02 -0.36417370498E+01 -0.18740017025E+03  0.19220870110E+03  0.00000000000E+00 0. -1.
         11    1    1    2    0    0 -0.35278991577E+02 -0.51686796530E+02 -0.35171322319E+03  0.35723706912E+03  0.00000000000E+00 0.  1.
<mgrwt>
<rscale>  0 0.12848230E+03</rscale>
<asrwt>0</asrwt>
<pdfrwt beam="2">  1        2 0.15065725E+00 0.13696693E+03</pdfrwt>
<pdfrwt beam="1">  1       -2 0.24535300E-02 0.13696693E+03</pdfrwt>
<totfact> 0.14809003E+04</totfact>
</mgrwt>
</event>
<event>
 6    1  0.7457796E-006  0.1353190E+03  0.7546771E-02  0.1231970E+00
          1   -1    0    0  501    0  0.00000000000E+00  0.00000000000E+00  0.26212434871E+03  0.26212434871E+03  0.00000000000E+00 0. -1.
         -1   -1    0    0    0  501 -0.00000000000E+00 -0.00000000000E+00 -0.57350821303E+02  0.57350821303E+02  0.00000000000E+00 0.  1.
          5    1    1    2  502    0 -0.73637707986E+02  0.50509159413E+02  0.37173151185E+02  0.96838114351E+02  0.47000000000E+01 0.  1.
         -5    1    1    2    0  502  0.24441578226E+02 -0.33252909279E+02  0.46094108104E+02  0.62047590796E+02  0.47000000000E+01 0.  1.
        -11    1    1    2    0    0  0.35485171698E+02 -0.31339393944E+02  0.11338111093E+02  0.48681698680E+02  0.00000000000E+00 0.  1.
         11    1    1    2    0    0  0.13710958062E+02  0.14083143809E+02  0.11016815703E+03  0.11190776619E+03  0.00000000000E+00 0. -1.
<mgrwt>
<rscale>  0 0.12700400E+03</rscale>
<asrwt>0</asrwt>
<pdfrwt beam="1">  1        1 0.40326822E-01 0.13531900E+03</pdfrwt>
<pdfrwt beam="2">  1       -1 0.88232034E-02 0.13531900E+03</pdfrwt>
<totfact> 0.73156033E+03</totfact>
</mgrwt>
</event>
<event>
 6    1  0.7457796E-006  0.3554946E+03  0.7546771E-02  0.1061463E+00
         -2   -1    0    0    0  501 -0.00000000000E+00  0.00000000000E+00  0.41534310943E+03  0.41534310943E+03  0.00000000000E+00 0. -1.
          2   -1    0    0  501    0  0.00000000000E+00 -0.00000000000E+00 -0.30375682275E+03  0.30375682275E+03  0.00000000000E+00 0.  1.
          5    1    1    2  502    0  0.15788969677E+03 -0.30814894521E+02  0.51515632371E+01  0.16101969654E+03  0.47000000000E+01 0. -1.
         -5    1    1    2    0  502  0.14236291508E+03 -0.11270418370E+03  0.11148148220E+03  0.21311884827E+03  0.47000000000E+01 0. -1.
        -11    1    1    2    0    0 -0.16598921992E+03  0.12798707702E+03 -0.82509832159E+01  0.20976461031E+03  0.00000000000E+00 0. -1.
         11    1    1    2    0    0 -0.13426339193E+03  0.15532001197E+02  0.32042244524E+01  0.13519677706E+03  0.00000000000E+00 0.  1.
<mgrwt>
<rscale>  0 0.35282205E+03</rscale>
<asrwt>0</asrwt>
<pdfrwt beam="2">  1        2 0.46731819E-01 0.35549456E+03</pdfrwt>
<pdfrwt beam="1">  1       -2 0.63898940E-01 0.35549456E+03</pdfrwt>
<totfact> 0.25065336E+02</totfact>
</mgrwt>
</event>
<event>
 6    1  0.7457796E-006  0.1339087E+03  0.7546771E-02  0.1234171E+00
          1   -1    0    0  501    0  0.00000000000E+00  0.00000000000E+00  0.60692288022E+03  0.60692288022E+03  0.00000000000E+00 0. -1.
         -1   -1    0    0    0  501 -0.00000000000E+00 -0.00000000000E+00 -0.24894250478E+02  0.24894250478E+02  0.00000000000E+00 0.  1.
          5    1    1    2  502    0 -0.76017034162E+02  0.13074164245E+02  0.18195737295E+03  0.19768687064E+03  0.47000000000E+01 0. -1.
         -5    1    1    2    0  502  0.45468827770E+02  0.23988125781E+02  0.62677506738E+02  0.81199780346E+02  0.47000000000E+01 0. -1.
        -11    1    1    2    0    0 -0.24304806484E+02 -0.27398236819E+02  0.62412506524E+02  0.72365101877E+02  0.00000000000E+00 0.  1.
         11    1    1    2    0    0  0.54853012876E+02 -0.96640532073E+01  0.27498124354E+03  0.28056537784E+03  0.00000000000E+00 0. -1.
<mgrwt>
<rscale>  0 0.12557645E+03</rscale>
<asrwt>0</asrwt>
<pdfrwt beam="1">  1        1 0.93372739E-01 0.13390870E+03</pdfrwt>
<pdfrwt beam="2">  1       -1 0.38298852E-02 0.13390870E+03</pdfrwt>
<totfact> 0.86907059E+03</totfact>
</mgrwt>
</event>
<event>
 6    1  0.7457796E-006  0.1337779E+03  0.7546771E-02  0.1233200E+00
          1   -1    0    0  501    0  0.00000000000E+00  0.00000000000E+00  0.51003263274E+02  0.51003263274E+02  0.00000000000E+00 0. -1.
         -1   -1    0    0    0  501 -0.00000000000E+00 -0.00000000000E+00 -0.32086333922E+03  0.32086333922E+03  0.00000000000E+00 0.  1.
          5    1    1    2  502    0  0.15636776022E+02 -0.67946184537E+02 -0.48262454455E+02  0.84926717042E+02  0.47000000000E+01 0. -1.
         -5    1    1    2    0  502 -0.13009035585E+02  0.20358655550E+02 -0.16497419009E+03  0.16680012967E+03  0.47000000000E+01 0. -1.
        -11    1    1    2    0    0 -0.21614425649E+02  0.71918710725E+02 -0.40067350037E+02  0.85116842561E+02  0.00000000000E+00 0. -1.
         11    1    1    2    0    0  0.18986685212E+02 -0.24331181737E+02 -0.16556081359E+02  0.35022913215E+02  0.00000000000E+00 0.  1.
<mgrwt>
<rscale>  0 0.12620398E+03</rscale>
<asrwt>0</asrwt>
<pdfrwt beam="1">  1        1 0.78466559E-02 0.13377795E+03</pdfrwt>
<pdfrwt beam="2">  1       -1 0.49363591E-01 0.13377795E+03</pdfrwt>
<totfact> 0.36048224E+03</totfact>
</mgrwt>
</event>
<event>
 6    1  0.7457796E-006  0.1288098E+03  0.7546771E-02  0.1243366E+00
         -1   -1    0    0    0  501 -0.00000000000E+00  0.00000000000E+00  0.77747231291E+02  0.77747231291E+02  0.00000000000E+00 0.  1.
          1   -1    0    0  501    0  0.00000000000E+00 -0.00000000000E+00 -0.16381063963E+03  0.16381063963E+03  0.00000000000E+00 0. -1.
          5    1    1    2  502    0 -0.97116214253E+01 -0.58888836001E+02 -0.24226466598E+02  0.64585000427E+02  0.47000000000E+01 0. -1.
         -5    1    1    2    0  502  0.41263114241E+02  0.54965998705E+02 -0.32055703853E+02  0.75983970415E+02  0.47000000000E+01 0. -1.
        -11    1    1    2    0    0 -0.16024304088E+02  0.23547682270E+02  0.26807379170E+02  0.39114028682E+02  0.00000000000E+00 0.  1.
         11    1    1    2    0    0 -0.15527188727E+02 -0.19624844974E+02 -0.56588617056E+02  0.61874871397E+02  0.00000000000E+00 0. -1.
<mgrwt>
<rscale>  0 0.11983701E+03</rscale>
<asrwt>0</asrwt>
<pdfrwt beam="2">  1        1 0.25201637E-01 0.12880975E+03</pdfrwt>
<pdfrwt beam="1">  1       -1 0.11961113E-01 0.12880975E+03</pdfrwt>
<totfact> 0.82095348E+03</totfact>
</mgrwt>
</event>
<event>
 6    1  0.7457796E-006  0.1637805E+03  0.7546771E-02  0.1201262E+00
          2   -1    0    0  501    0  0.00000000000E+00  0.00000000000E+00  0.11922023559E+04  0.11922023559E+04  0.00000000000E+00 0. -1.
         -2   -1    0    0    0  501 -0.00000000000E+00 -0.00000000000E+00 -0.16603392855E+02  0.16603392855E+02  0.00000000000E+00 0.  1.
          5    1    1    2  502    0 -0.61957466306E+02  0.44608559451E+02  0.57584557426E+03  0.58090349164E+03  0.47000000000E+01 0. -1.
         -5    1    1    2    0  502  0.23573234130E+02  0.11708638262E+02  0.11955584170E+02  0.29288488697E+02  0.47000000000E+01 0.  1.
        -11    1    1    2    0    0  0.52518081043E+02 -0.73764937424E+02  0.45350470052E+03  0.46245640683E+03  0.00000000000E+00 0.  1.
         11    1    1    2    0    0 -0.14133848867E+02  0.17447739712E+02  0.13429310408E+03  0.13615736156E+03  0.00000000000E+00 0. -1.
<mgrwt>
<rscale>  0 0.14935997E+03</rscale>
<asrwt>0</asrwt>
<pdfrwt beam="1">  1        2 0.18341568E+00 0.16378050E+03</pdfrwt>
<pdfrwt beam="2">  1       -2 0.25543691E-02 0.16378050E+03</pdfrwt>
<totfact> 0.10615721E+04</totfact>
</mgrwt>
</event>
<event>
 6    1  0.7457796E-006  0.1459076E+03  0.7546771E-02  0.1214808E+00
          3   -1    0    0  501    0  0.00000000000E+00  0.00000000000E+00  0.81061932184E+02  0.81061932184E+02  0.00000000000E+00 0. -1.
         -3   -1    0    0    0  501 -0.00000000000E+00 -0.00000000000E+00 -0.43171542475E+03  0.43171542475E+03  0.00000000000E+00 0.  1.
          5    1    1    2  502    0  0.37321437503E+02  0.11660074146E+02 -0.33766891811E+03  0.33995769631E+03  0.47000000000E+01 0. -1.
         -5    1    1    2    0  502  0.37239068251E+02 -0.24970397051E+02 -0.26358140828E+02  0.52221743757E+02  0.47000000000E+01 0. -1.
        -11    1    1    2    0    0 -0.13676905790E+02  0.20421618411E+02  0.45259825911E+02  0.51502932849E+02  0.00000000000E+00 0. -1.
         11    1    1    2    0    0 -0.60883599964E+02 -0.71112955061E+01 -0.31886259539E+02  0.69094984013E+02  0.00000000000E+00 0.  1.
<mgrwt>
<rscale>  0 0.13890617E+03</rscale>
<asrwt>0</asrwt>
<pdfrwt beam="1">  1        3 0.12471066E-01 0.14590755E+03</pdfrwt>
<pdfrwt beam="2">  1       -3 0.66417758E-01 0.14590755E+03</pdfrwt>
<totfact> 0.26645883E+02</totfact>
</mgrwt>
</event>
<event>
 6    1  0.7457796E-006  0.2833266E+03  0.7546771E-02  0.1095705E+00
          2   -1    0    0  501    0  0.00000000000E+00  0.00000000000E+00  0.17576938970E+04  0.17576938970E+04  0.00000000000E+00 0.  1.
         -2   -1    0    0    0  501 -0.00000000000E+00 -0.00000000000E+00 -0.45851611234E+02  0.45851611234E+02  0.00000000000E+00 0. -1.
          5    1    1    2  502    0  0.16767189471E+03 -0.35441962581E+02  0.53792573925E+03  0.56458496963E+03  0.47000000000E+01 0. -1.
         -5    1    1    2    0  502  0.86512987278E+02  0.41464358519E+02  0.13621999797E+03  0.16667863643E+03  0.47000000000E+01 0. -1.
        -11    1    1    2    0    0 -0.10363038647E+03 -0.43490713602E+02  0.36417769604E+03  0.38112477414E+03  0.00000000000E+00 0. -1.
         11    1    1    2    0    0 -0.15055449551E+03  0.37468317664E+02  0.67351885246E+03  0.69115712799E+03  0.00000000000E+00 0.  1.
<mgrwt>
<rscale>  0 0.27997022E+03</rscale>
<asrwt>0</asrwt>
<pdfrwt beam="1">  1        2 0.27041439E+00 0.28332664E+03</pdfrwt>
<pdfrwt beam="2">  1       -2 0.70540954E-02 0.28332664E+03</pdfrwt>
<totfact> 0.11463988E+03</totfact>
</mgrwt>
</event>
<event>
 6    1  0.7457796E-006  0.1293268E+03  0.7546771E-02  0.1234756E+00
         -2   -1    0    0    0  501 -0.00000000000E+00  0.00000000000E+00  0.78990978134E+02  0.78990978134E+02  0.00000000000E+00 0.  1.
          2   -1    0    0  501    0  0.00000000000E+00 -0.00000000000E+00 -0.21091906271E+03  0.21091906271E+03  0.00000000000E+00 0. -1.
          5    1    1    2  502    0 -0.25075441900E+02 -0.60834060478E+02 -0.31588872740E+02  0.73140328012E+02  0.47000000000E+01 0. -1.
         -5    1    1    2    0  502 -0.37543657251E+02  0.42401287486E+02  0.10802767752E+02  0.57846220026E+02  0.47000000000E+01 0.  1.
        -11    1    1    2    0    0  0.75113875905E+02  0.27655455877E+02 -0.46772201625E+02  0.92706835984E+02  0.00000000000E+00 0.  1.
         11    1    1    2    0    0 -0.12494776754E+02 -0.92226828856E+01 -0.64369777959E+02  0.66216656818E+02  0.00000000000E+00 0. -1.
<mgrwt>
<rscale>  0 0.12520090E+03</rscale>
<asrwt>0</asrwt>
<pdfrwt beam="2">  1        2 0.32449087E-01 0.12932677E+03</pdfrwt>
<pdfrwt beam="1">  1       -2 0.12152458E-01 0.12932677E+03</pdfrwt>
<totfact> 0.73640339E+03</totfact>
</mgrwt>
</event>
<event>
 6    1  0.7457796E-006  0.1331559E+03  0.7546771E-02  0.1236201E+00
          2   -1    0    0  501    0  0.00000000000E+00  0.00000000000E+00  0.25223740041E+03  0.25223740041E+03  0.00000000000E+00 0. -1.
         -2   -1    0    0    0  501 -0.00000000000E+00 -0.00000000000E+00 -0.56801505888E+02  0.56801505888E+02  0.00000000000E+00 0.  1.
          5    1    1    2  502    0 -0.32754235017E+02  0.62341171288E+02  0.80381782658E+02  0.10697000763E+03  0.47000000000E+01 0. -1.
         -5    1    1    2    0  502  0.44027643720E+02 -0.17836964942E+02 -0.15700493262E+01  0.47761341949E+02  0.47000000000E+01 0. -1.
        -11    1    1    2    0    0  0.29994140469E+02 -0.14669304745E+02  0.91745508556E+02  0.97632347633E+02  0.00000000000E+00 0. -1.
         11    1    1    2    0    0 -0.41267549172E+02 -0.29834901601E+02  0.24878652636E+02  0.56675209088E+02  0.00000000000E+00 0.  1.
<mgrwt>
<rscale>  0 0.12427868E+03</rscale>
<asrwt>0</asrwt>
<pdfrwt beam="1">  1        2 0.38805753E-01 0.13315593E+03</pdfrwt>
<pdfrwt beam="2">  1       -2 0.87386933E-02 0.13315593E+03</pdfrwt>
<totfact> 0.10243724E+04</totfact>
</mgrwt>
</event>
<event>
 6    1  0.7457796E-006  0.1413157E+03  0.7546771E-02  0.1223477E+00
         -1   -1    0    0    0  501 -0.00000000000E+00  0.00000000000E+00  0.70742460957E+02  0.70742460957E+02  0.00000000000E+00 0.  1.
          1   -1    0    0  501    0  0.00000000000E+00 -0.00000000000E+00 -0.22986017919E+03  0.22986017919E+03  0.00000000000E+00 0. -1.
          5    1    1    2  502    0 -0.53527187529E+02 -0.27420832828E+01 -0.34037032687E+02  0.63665441329E+02  0.47000000000E+01 0. -1.
         -5    1    1    2    0  502  0.52233664907E+02  0.68643284689E+02 -0.29572496521E+02  0.91306510354E+02  0.47000000000E+01 0. -1.
        -11    1    1    2    0    0  0.19198581573E+02 -0.53840240246E+02 -0.10745548995E+02  0.58162047998E+02  0.00000000000E+00 0.  1.
         11    1    1    2    0    0 -0.17905058951E+02 -0.12060961160E+02 -0.84762640025E+02  0.87468640461E+02  0.00000000000E+00 0. -1.
<mgrwt>
<rscale>  0 0.13271816E+03</rscale>
<asrwt>0</asrwt>
<pdfrwt beam="2">  1        1 0.35363105E-01 0.14131572E+03</pdfrwt>
<pdfrwt beam="1">  1       -1 0.10883455E-01 0.14131572E+03</pdfrwt>
<totfact> 0.62669650E+03</totfact>
</mgrwt>
</event>
<event>
 6    1  0.7457796E-006  0.2939140E+03  0.7546771E-02  0.1089998E+00
         -1   -1    0    0    0  501 -0.00000000000E+00  0.00000000000E+00  0.58554238498E+02  0.58554238498E+02  0.00000000000E+00 0.  1.
          1   -1    0    0  501    0  0.00000000000E+00 -0.00000000000E+00 -0.14131605104E+04  0.14131605104E+04  0.00000000000E+00 0. -1.
          5    1    1    2  502    0  0.13331506102E+03  0.46334767154E+02 -0.23665001335E+03  0.27558144887E+03  0.47000000000E+01 0. -1.
         -5    1    1    2    0  502  0.72936674585E+02  0.12166771735E+03 -0.43477899845E+03  0.45735944227E+03  0.47000000000E+01 0. -1.
        -11    1    1    2    0    0 -0.59168475362E+02 -0.12467217301E+02 -0.92574104515E+02  0.11057262234E+03  0.00000000000E+00 0.  1.
         11    1    1    2    0    0 -0.14708326025E+03 -0.15553526721E+03 -0.59060315562E+03  0.62820123545E+03  0.00000000000E+00 0. -1.
<mgrwt>
<rscale>  0 0.29067441E+03</rscale>
<asrwt>0</asrwt>
<pdfrwt beam="2">  1        1 0.21740931E+00 0.29391399E+03</pdfrwt>
<pdfrwt beam="1">  1       -1 0.90083445E-02 0.29391399E+03</pdfrwt>
<totfact> 0.58610243E+02</totfact>
</mgrwt>
</event>
<event>
 6    1  0.7457796E-006  0.2353562E+03  0.7546771E-02  0.1125962E+00
         -2   -1    0    0    0  501 -0.00000000000E+00  0.00000000000E+00  0.30876482739E+03  0.30876482739E+03  0.00000000000E+00 0.  1.
          2   -1    0    0  501    0  0.00000000000E+00 -0.00000000000E+00 -0.16663641081E+03  0.16663641081E+03  0.00000000000E+00 0. -1.
          5    1    1    2  502    0  0.98824442812E+01  0.45627094865E+01  0.29651801298E+02  0.31934312942E+02  0.47000000000E+01 0. -1.
         -5    1    1    2    0  502 -0.20762160311E+03 -0.30373322977E+02  0.41560745396E+02  0.21395946902E+03  0.47000000000E+01 0. -1.
        -11    1    1    2    0    0  0.13648664497E+03 -0.24322327936E+02  0.52468213236E+02  0.14823323950E+03  0.00000000000E+00 0.  1.
         11    1    1    2    0    0  0.61252513857E+02  0.50132941427E+02  0.18447656653E+02  0.81274216735E+02  0.00000000000E+00 0. -1.
<mgrwt>
<rscale>  0 0.23096486E+03</rscale>
<asrwt>0</asrwt>
<pdfrwt beam="2">  1        2 0.25636371E-01 0.23535617E+03</pdfrwt>
<pdfrwt beam="1">  1       -2 0.47502281E-01 0.23535617E+03</pdfrwt>
<totfact> 0.88864670E+02</totfact>
</mgrwt>
</event>
<event>
 6    1  0.7457796E-006  0.1310202E+03  0.7546771E-02  0.1237450E+00
          1   -1    0    0  501    0  0.00000000000E+00  0.00000000000E+00  0.35731099521E+03  0.35731099521E+03  0.00000000000E+00 0. -1.
         -1   -1    0    0    0  501 -0.00000000000E+00 -0.00000000000E+00 -0.38597212972E+02  0.38597212972E+02  0.00000000000E+00 0.  1.
          5    1    1    2  502    0 -0.48236408774E+02 -0.46779754645E+02  0.43521127097E+02  0.80195231029E+02  0.47000000000E+01 0.  1.
         -5    1    1    2    0  502  0.89898398225E+01  0.46248905750E+02  0.12226801875E+03  0.13111573862E+03  0.47000000000E+01 0.  1.
        -11    1    1    2    0    0  0.54496309132E+02  0.35391950043E+02  0.10376311755E+03  0.12243047987E+03  0.00000000000E+00 0. -1.
         11    1    1    2    0    0 -0.15249740180E+02 -0.34861101148E+02  0.49161518834E+02  0.62166758665E+02  0.00000000000E+00 0.  1.
<mgrwt>
<rscale>  0 0.12348859E+03</rscale>
<asrwt>0</asrwt>
<pdfrwt beam="1">  1        1 0.54970920E-01 0.13102017E+03</pdfrwt>
<pdfrwt beam="2">  1       -1 0.59380330E-02 0.13102017E+03</pdfrwt>
<totfact> 0.90100645E+03</totfact>
</mgrwt>
</event>
<event>
 6    1  0.7457796E-006  0.3004585E+03  0.7546771E-02  0.1085012E+00
          1   -1    0    0  501    0  0.00000000000E+00  0.00000000000E+00  0.43712197179E+02  0.43712197179E+02  0.00000000000E+00 0. -1.
         -1   -1    0    0    0  501 -0.00000000000E+00 -0.00000000000E+00 -0.51630501609E+03  0.51630501609E+03  0.00000000000E+00 0.  1.
          5    1    1    2  502    0  0.89815769616E+01 -0.84120840120E+01 -0.20149346151E+03  0.20192359177E+03  0.47000000000E+01 0. -1.
         -5    1    1    2    0  502  0.93683368747E+02  0.10211995094E+02 -0.84554323084E+02  0.12669799515E+03  0.47000000000E+01 0. -1.
        -11    1    1    2    0    0 -0.76146323320E+02 -0.27680171791E+02 -0.63641093380E+02  0.10302739069E+03  0.00000000000E+00 0. -1.
         11    1    1    2    0    0 -0.26518622389E+02  0.25880260709E+02 -0.12290394093E+03  0.12836823565E+03  0.00000000000E+00 0.  1.
<mgrwt>
<rscale>  0 0.30045849E+03</rscale>
<asrwt>0</asrwt>
<pdfrwt beam="1">  1        1 0.67249532E-02 0.30045849E+03</pdfrwt>
<pdfrwt beam="2">  1       -1 0.79431543E-01 0.30045849E+03</pdfrwt>
<totfact> 0.18289342E+03</totfact>
</mgrwt>
</event>
<event>
 6    1  0.7457796E-006  0.1262305E+03  0.7546771E-02  0.1247437E+00
          1   -1    0    0  501    0  0.00000000000E+00  0.00000000000E+00  0.15252923265E+03  0.15252923265E+03  0.00000000000E+00 0. -1.
         -1   -1    0    0    0  501 -0.00000000000E+00 -0.00000000000E+00 -0.80361562596E+02  0.80361562596E+02  0.00000000000E+00 0.  1.
          5    1    1    2  502    0 -0.47740146722E+02 -0.65373003856E+01 -0.17688872486E+02  0.51544583762E+02  0.47000000000E+01 0. -1.
         -5    1    1    2    0  502  0.56957463991E+02  0.21477804069E+02  0.49587374898E+02  0.78653966977E+02  0.47000000000E+01 0. -1.
        -11    1    1    2    0    0  0.29344194884E+02  0.22314566300E+02  0.31234844053E+02  0.48318082801E+02  0.00000000000E+00 0. -1.
         11    1    1    2    0    0 -0.38561512153E+02 -0.37255069983E+02  0.90343235917E+01  0.54374161710E+02  0.00000000000E+00 0.  1.
<mgrwt>
<rscale>  0 0.11740695E+03</rscale>
<asrwt>0</asrwt>
<pdfrwt beam="1">  1        1 0.23466036E-01 0.12623054E+03</pdfrwt>
<pdfrwt beam="2">  1       -1 0.12363317E-01 0.12623054E+03</pdfrwt>
<totfact> 0.85186915E+03</totfact>
</mgrwt>
</event>
<event>
 6    1  0.7457796E-006  0.2431476E+03  0.7546771E-02  0.1138572E+00
         -1   -1    0    0    0  501 -0.00000000000E+00  0.00000000000E+00  0.90617190218E+02  0.90617190218E+02  0.00000000000E+00 0.  1.
          1   -1    0    0  501    0  0.00000000000E+00 -0.00000000000E+00 -0.41764473768E+03  0.41764473768E+03  0.00000000000E+00 0. -1.
          5    1    1    2  502    0 -0.61699156035E+02 -0.46383061003E+02 -0.37366414258E+02  0.85886629448E+02  0.47000000000E+01 0. -1.
         -5    1    1    2    0  502  0.16179669571E+03 -0.58839371245E+01 -0.15454149397E+03  0.22387039737E+03  0.47000000000E+01 0.  1.
        -11    1    1    2    0    0 -0.87959932250E+02  0.77487655597E+02 -0.10477656700E+03  0.15722409308E+03  0.00000000000E+00 0. -1.
         11    1    1    2    0    0 -0.12137607424E+02 -0.25220657469E+02 -0.30343072227E+02  0.41280808002E+02  0.00000000000E+00 0.  1.
<mgrwt>
<rscale>  0 0.21382492E+03</rscale>
<asrwt>0</asrwt>
<pdfrwt beam="2">  1        1 0.64253038E-01 0.24314763E+03</pdfrwt>
<pdfrwt beam="1">  1       -1 0.13941106E-01 0.24314763E+03</pdfrwt>
<totfact> 0.20599970E+03</totfact>
</mgrwt>
</event>
<event>
 6    1  0.7457796E-006  0.2828829E+03  0.7546771E-02  0.1094125E+00
          2   -1    0    0  501    0  0.00000000000E+00  0.00000000000E+00  0.33226721741E+03  0.33226721741E+03  0.00000000000E+00 0. -1.
         -2   -1    0    0    0  501 -0.00000000000E+00 -0.00000000000E+00 -0.60209601511E+02  0.60209601511E+02  0.00000000000E+00 0.  1.
          5    1    1    2  502    0 -0.40266997302E+01 -0.35159087089E+02  0.22642266303E+02  0.42274554273E+02  0.47000000000E+01 0.  1.
         -5    1    1    2    0  502  0.17244770897E+02  0.10765074576E+03  0.50581140594E+02  0.12027720885E+03  0.47000000000E+01 0.  1.
        -11    1    1    2    0    0 -0.26865101957E+02 -0.39910177813E+02  0.28396275012E+02  0.55865055542E+02  0.00000000000E+00 0.  1.
         11    1    1    2    0    0  0.13647030790E+02 -0.32581480858E+02  0.17043793399E+03  0.17406000025E+03  0.00000000000E+00 0. -1.
<mgrwt>
<rscale>  0 0.28288285E+03</rscale>
<asrwt>0</asrwt>
<pdfrwt beam="1">  1        2 0.51118032E-01 0.28288285E+03</pdfrwt>
<pdfrwt beam="2">  1       -2 0.92630158E-02 0.28288285E+03</pdfrwt>
<totfact> 0.72935867E+03</totfact>
</mgrwt>
</event>
<event>
 6    1  0.7457796E-006  0.1440902E+03  0.7546771E-02  0.1217221E+00
         -1   -1    0    0    0  501 -0.00000000000E+00  0.00000000000E+00  0.52215463712E+02  0.52215463712E+02  0.00000000000E+00 0.  1.
          1   -1    0    0  501    0  0.00000000000E+00 -0.00000000000E+00 -0.38953812429E+03  0.38953812429E+03  0.00000000000E+00 0. -1.
          5    1    1    2  502    0  0.13351277757E+02  0.73360685072E+02 -0.11472279575E+03  0.13690674416E+03  0.47000000000E+01 0.  1.
         -5    1    1    2    0  502  0.27551146931E+02 -0.14506109806E+02  0.18346072012E+02  0.36443947058E+02  0.47000000000E+01 0.  1.
        -11    1    1    2    0    0 -0.38864334080E+02 -0.37383191411E+02 -0.24087240662E+03  0.24683487544E+03  0.00000000000E+00 0. -1.
         11    1    1    2    0    0 -0.20380906077E+01 -0.21471383856E+02 -0.73530221487E-01  0.21568021344E+02  0.00000000000E+00 0.  1.
<mgrwt>
<rscale>  0 0.13714637E+03</rscale>
<asrwt>0</asrwt>
<pdfrwt beam="2">  1        1 0.59928942E-01 0.14409021E+03</pdfrwt>
<pdfrwt beam="1">  1       -1 0.80331483E-02 0.14409021E+03</pdfrwt>
<totfact> 0.51708921E+03</totfact>
</mgrwt>
</event>
<event>
 6    1  0.7457796E-006  0.1277729E+03  0.7546771E-02  0.1246760E+00
          1   -1    0    0  501    0  0.00000000000E+00  0.00000000000E+00  0.12549771134E+03  0.12549771134E+03  0.00000000000E+00 0. -1.
         -1   -1    0    0    0  501 -0.00000000000E+00 -0.00000000000E+00 -0.10617997758E+03  0.10617997758E+03  0.00000000000E+00 0.  1.
          5    1    1    2  502    0 -0.53726901821E+02 -0.32641610156E+02 -0.10540965313E+02  0.63916012412E+02  0.47000000000E+01 0.  1.
         -5    1    1    2    0  502  0.61781883866E+02  0.18682161147E+02 -0.12929952503E+02  0.65994681534E+02  0.47000000000E+01 0.  1.
        -11    1    1    2    0    0 -0.31240949072E+02  0.29627812922E+02 -0.79872912728E+01  0.43790421548E+02  0.00000000000E+00 0.  1.
         11    1    1    2    0    0  0.23185967027E+02 -0.15668363913E+02  0.50775942840E+02  0.57976573424E+02  0.00000000000E+00 0. -1.
<mgrwt>
<rscale>  0 0.11780668E+03</rscale>
<asrwt>0</asrwt>
<pdfrwt beam="1">  1        1 0.19307340E-01 0.12777286E+03</pdfrwt>
<pdfrwt beam="2">  1       -1 0.16335381E-01 0.12777286E+03</pdfrwt>
<totfact> 0.70679032E+03</totfact>
</mgrwt>
</event>
<event>
 6    1  0.7457796E-006  0.1300586E+03  0.7546771E-02  0.1243529E+00
         -1   -1    0    0    0  501 -0.00000000000E+00  0.00000000000E+00  0.43303205969E+03  0.43303205969E+03  0.00000000000E+00 0.  1.
          1   -1    0    0  501    0  0.00000000000E+00 -0.00000000000E+00 -0.49633458389E+02  0.49633458389E+02  0.00000000000E+00 0. -1.
          5    1    1    2  502    0  0.18679411586E+02 -0.35986132778E+01 -0.10590777174E+01  0.19623508360E+02  0.47000000000E+01 0.  1.
         -5    1    1    2    0  502 -0.30096097470E+01  0.35914850158E+02  0.36599855394E+03  0.36779881144E+03  0.47000000000E+01 0.  1.
        -11    1    1    2    0    0 -0.19913371901E+01 -0.18973408773E+02  0.52691471759E+02  0.56038797814E+02  0.00000000000E+00 0.  1.
         11    1    1    2    0    0 -0.13678464649E+02 -0.13342828107E+02 -0.34232346676E+02  0.39204400467E+02  0.00000000000E+00 0. -1.
<mgrwt>
<rscale>  0 0.11973863E+03</rscale>
<asrwt>0</asrwt>
<pdfrwt beam="2">  1        1 0.76359170E-02 0.13005857E+03</pdfrwt>
<pdfrwt beam="1">  1       -1 0.66620314E-01 0.13005857E+03</pdfrwt>
<totfact> 0.21249394E+03</totfact>
</mgrwt>
</event>
<event>
 6    1  0.7457796E-006  0.1282792E+03  0.7546771E-02  0.1244334E+00
         -1   -1    0    0    0  501 -0.00000000000E+00  0.00000000000E+00  0.26446441419E+03  0.26446441419E+03  0.00000000000E+00 0.  1.
          1   -1    0    0  501    0  0.00000000000E+00 -0.00000000000E+00 -0.54045955931E+02  0.54045955931E+02  0.00000000000E+00 0. -1.
          5    1    1    2  502    0  0.37580811493E+02 -0.14610535184E+02  0.18586058055E+03  0.19024203146E+03  0.47000000000E+01 0. -1.
         -5    1    1    2    0  502 -0.20416666519E+02 -0.83125988434E+01 -0.12223607845E+02  0.25640712939E+02  0.47000000000E+01 0. -1.
        -11    1    1    2    0    0 -0.82433569968E+01 -0.14881642585E+02 -0.24647279791E+02  0.29948365927E+02  0.00000000000E+00 0. -1.
         11    1    1    2    0    0 -0.89207879779E+01  0.37804776612E+02  0.61428765345E+02  0.72679259797E+02  0.00000000000E+00 0.  1.
<mgrwt>
<rscale>  0 0.11925317E+03</rscale>
<asrwt>0</asrwt>
<pdfrwt beam="2">  1        1 0.83147626E-02 0.12827923E+03</pdfrwt>
<pdfrwt beam="1">  1       -1 0.40686832E-01 0.12827923E+03</pdfrwt>
<totfact> 0.46993916E+03</totfact>
</mgrwt>
</event>
<event>
 6    1  0.7457796E-006  0.1643954E+03  0.7546771E-02  0.1190919E+00
          2   -1    0    0  501    0  0.00000000000E+00  0.00000000000E+00  0.17526144141E+03  0.17526144141E+03  0.00000000000E+00 0. -1.
         -2   -1    0    0    0  501 -0.00000000000E+00 -0.00000000000E+00 -0.13254810301E+03  0.13254810301E+03  0.00000000000E+00 0.  1.
          5    1    1    2  502    0 -0.66011490407E+02  0.47973199864E+02  0.69152024078E+02  0.10706557432E+03  0.47000000000E+01 0. -1.
         -5    1    1    2    0  502 -0.47988919331E-01  0.35913536316E+02 -0.46436630636E+02  0.58891723175E+02  0.47000000000E+01 0. -1.
        -11    1    1    2    0    0  0.14706095985E+02 -0.19433721082E+02 -0.35092135430E+02  0.42724662002E+02  0.00000000000E+00 0.  1.
         11    1    1    2    0    0  0.51353383342E+02 -0.64453015098E+02  0.55090080388E+02  0.99127584925E+02  0.00000000000E+00 0. -1.
<mgrwt>
<rscale>  0 0.15804706E+03</rscale>
<asrwt>0</asrwt>
<pdfrwt beam="1">  1        2 0.26963299E-01 0.16439536E+03</pdfrwt>
<pdfrwt beam="2">  1       -2 0.20392016E-01 0.16439536E+03</pdfrwt>
<totfact> 0.38966467E+03</totfact>
</mgrwt>
</event>
<event>
 6    1  0.7457796E-006  0.2117585E+03  0.7546771E-02  0.1143650E+00
          2   -1    0    0  501    0  0.00000000000E+00  0.00000000000E+00  0.81740149650E+03  0.81740149650E+03  0.00000000000E+00 0. -1.
         -2   -1    0    0    0  501 -0.00000000000E+00 -0.00000000000E+00 -0.67925691298E+02  0.67925691298E+02  0.00000000000E+00 0.  1.
          5    1    1    2  502    0  0.53692195791E+02  0.87177356202E+02  0.16058615744E+03  0.19050655444E+03  0.47000000000E+01 0. -1.
         -5    1    1    2    0  502  0.69740129101E+02  0.31062438307E+02  0.20802971693E+01  0.76517830059E+02  0.47000000000E+01 0. -1.
        -11    1    1    2    0    0 -0.64217199251E+02 -0.74359596180E+02  0.47019628759E+03  0.48035169104E+03  0.00000000000E+00 0. -1.
         11    1    1    2    0    0 -0.59215125641E+02 -0.43880198329E+02  0.11661306300E+03  0.13795111226E+03  0.00000000000E+00 0.  1.
<mgrwt>
<rscale>  0 0.20738940E+03</rscale>
<asrwt>0</asrwt>
<pdfrwt beam="1">  1        2 0.12575407E+00 0.21175846E+03</pdfrwt>
<pdfrwt beam="2">  1       -2 0.10450107E-01 0.21175846E+03</pdfrwt>
<totfact> 0.21240506E+03</totfact>
</mgrwt>
</event>
<event>
 6    1  0.7457796E-006  0.1517447E+03  0.7546771E-02  0.1207043E+00
         -2   -1    0    0    0  501 -0.00000000000E+00  0.00000000000E+00  0.66235271400E+02  0.66235271400E+02  0.00000000000E+00 0.  1.
          2   -1    0    0  501    0  0.00000000000E+00 -0.00000000000E+00 -0.29060869049E+03  0.29060869049E+03  0.00000000000E+00 0. -1.
          5    1    1    2  502    0  0.48508015336E+02  0.95065615845E+02 -0.81646031268E+02  0.13445691983E+03  0.47000000000E+01 0. -1.
         -5    1    1    2    0  502  0.18103650888E+02 -0.40619880307E+02 -0.40674595572E+02  0.60450223958E+02  0.47000000000E+01 0. -1.
        -11    1    1    2    0    0 -0.51011917448E+02 -0.57840755215E+02 -0.11695753978E+03  0.14009580578E+03  0.00000000000E+00 0. -1.
         11    1    1    2    0    0 -0.15599748776E+02  0.33950196765E+01  0.14904747530E+02  0.21841012326E+02  0.00000000000E+00 0.  1.
<mgrwt>
<rscale>  0 0.14477628E+03</rscale>
<asrwt>0</asrwt>
<pdfrwt beam="2">  1        2 0.44709029E-01 0.15174472E+03</pdfrwt>
<pdfrwt beam="1">  1       -2 0.10190042E-01 0.15174472E+03</pdfrwt>
<totfact> 0.69914457E+03</totfact>
</mgrwt>
</event>
<event>
 6    1  0.7457796E-006  0.3556050E+03  0.7546771E-02  0.1060338E+00
         -2   -1    0    0    0  501 -0.00000000000E+00  0.00000000000E+00  0.51243736033E+03  0.51243736033E+03  0.00000000000E+00 0.  1.
          2   -1    0    0  501    0  0.00000000000E+00 -0.00000000000E+00 -0.61692861295E+02  0.61692861295E+02  0.00000000000E+00 0. -1.
          5    1    1    2  502    0  0.45558357757E+01  0.23409198643E+02  0.17612727072E+02  0.30017401213E+02  0.47000000000E+01 0. -1.
         -5    1    1    2    0  502  0.94114075768E+02 -0.88181130142E+02  0.30925994556E+03  0.33510770642E+03  0.47000000000E+01 0.  1.
        -11    1    1    2    0    0 -0.12499482721E+03  0.54495991580E+02  0.84070102080E+02  0.16019145418E+03  0.00000000000E+00 0.  1.
         11    1    1    2    0    0  0.26324915665E+02  0.10275939920E+02  0.39801724321E+02  0.48813659819E+02  0.00000000000E+00 0. -1.
<mgrwt>
<rscale>  0 0.35560499E+03</rscale>
<asrwt>0</asrwt>
<pdfrwt beam="2">  1        2 0.94912098E-02 0.35560499E+03</pdfrwt>
<pdfrwt beam="1">  1       -2 0.78836514E-01 0.35560499E+03</pdfrwt>
<totfact> 0.10125208E+03</totfact>
</mgrwt>
</event>
<event>
 6    1  0.7457796E-006  0.4040690E+03  0.7546771E-02  0.1043163E+00
         -1   -1    0    0    0  501 -0.00000000000E+00  0.00000000000E+00  0.98156559748E+03  0.98156559748E+03  0.00000000000E+00 0.  1.
          1   -1    0    0  501    0  0.00000000000E+00 -0.00000000000E+00 -0.19326003099E+03  0.19326003099E+03  0.00000000000E+00 0. -1.
          5    1    1    2  502    0 -0.60692063602E+02 -0.16009372414E+03  0.38733302513E+03  0.42351208891E+03  0.47000000000E+01 0. -1.
         -5    1    1    2    0  502 -0.21854712762E+02 -0.21517936164E+03  0.24440847931E+03  0.32640064477E+03  0.47000000000E+01 0. -1.
        -11    1    1    2    0    0 -0.16714132602E+02  0.24279130142E+02  0.49053774845E+01  0.29881451059E+02  0.00000000000E+00 0. -1.
         11    1    1    2    0    0  0.99260908965E+02  0.35099395564E+03  0.15165868455E+03  0.39503144374E+03  0.00000000000E+00 0.  1.
<mgrwt>
<rscale>  0 0.40178683E+03</rscale>
<asrwt>0</asrwt>
<pdfrwt beam="2">  1        1 0.29732313E-01 0.40406903E+03</pdfrwt>
<pdfrwt beam="1">  1       -1 0.15101009E+00 0.40406903E+03</pdfrwt>
<totfact> 0.56175330E+01</totfact>
</mgrwt>
</event>
<event>
 6    1  0.7457796E-006  0.2366076E+03  0.7546771E-02  0.1160615E+00
         -2   -1    0    0    0  501 -0.00000000000E+00  0.00000000000E+00  0.23465268391E+03  0.23465268391E+03  0.00000000000E+00 0.  1.
          2   -1    0    0  501    0  0.00000000000E+00 -0.00000000000E+00 -0.14945988791E+03  0.14945988791E+03  0.00000000000E+00 0. -1.
          5    1    1    2  502    0 -0.32767938864E+02 -0.68822017641E+02 -0.30855468692E+02  0.82367213609E+02  0.47000000000E+01 0. -1.
         -5    1    1    2    0  502  0.31532230255E+02  0.82237650828E+02  0.17159006613E+03  0.19293147372E+03  0.47000000000E+01 0.  1.
        -11    1    1    2    0    0  0.67431223707E+01  0.32720237324E+02 -0.52529429002E+02  0.62252907893E+02  0.00000000000E+00 0.  1.
         11    1    1    2    0    0 -0.55074137616E+01 -0.46135870511E+02 -0.30123724382E+01  0.46560976599E+02  0.00000000000E+00 0. -1.
<mgrwt>
<rscale>  0 0.18763205E+03</rscale>
<asrwt>0</asrwt>
<pdfrwt beam="2">  1        2 0.22993829E-01 0.23660757E+03</pdfrwt>
<pdfrwt beam="1">  1       -2 0.36100413E-01 0.23660757E+03</pdfrwt>
<totfact> 0.17038933E+03</totfact>
</mgrwt>
</event>
<event>
 6    1  0.7457796E-006  0.1262105E+03  0.7546771E-02  0.1251530E+00
         -2   -1    0    0    0  501 -0.00000000000E+00  0.00000000000E+00  0.27165865635E+03  0.27165865635E+03  0.00000000000E+00 0.  1.
          2   -1    0    0  501    0  0.00000000000E+00 -0.00000000000E+00 -0.44583883420E+02  0.44583883420E+02  0.00000000000E+00 0. -1.
          5    1    1    2  502    0 -0.21098629437E+02  0.46576347306E+02  0.41172378120E+02  0.65816130337E+02  0.47000000000E+01 0.  1.
         -5    1    1    2    0  502  0.23372467955E+02 -0.63955949894E+02  0.13032616876E+03  0.14711776252E+03  0.47000000000E+01 0.  1.
        -11    1    1    2    0    0 -0.10384110525E+02  0.42899080729E+02  0.61678811197E+02  0.75844819398E+02  0.00000000000E+00 0.  1.
         11    1    1    2    0    0  0.81102720067E+01 -0.25519478141E+02 -0.61025851434E+01  0.27463827520E+02  0.00000000000E+00 0. -1.
<mgrwt>
<rscale>  0 0.11502934E+03</rscale>
<asrwt>0</asrwt>
<pdfrwt beam="2">  1        2 0.68590592E-02 0.12621050E+03</pdfrwt>
<pdfrwt beam="1">  1       -2 0.41793638E-01 0.12621050E+03</pdfrwt>
<totfact> 0.53531192E+03</totfact>
</mgrwt>
</event>
<event>
 6    1  0.7457796E-006  0.1330854E+03  0.7546771E-02  0.1236061E+00
          1   -1    0    0  501    0  0.00000000000E+00  0.00000000000E+00  0.37821229670E+03  0.37821229670E+03  0.00000000000E+00 0. -1.
         -1   -1    0    0    0  501 -0.00000000000E+00 -0.00000000000E+00 -0.39900683203E+02  0.39900683203E+02  0.00000000000E+00 0.  1.
          5    1    1    2  502    0  0.23778309902E+02 -0.35120784154E+01 -0.19407277314E+02  0.31248602038E+02  0.47000000000E+01 0.  1.
         -5    1    1    2    0  502 -0.10454158785E+02 -0.40605268913E+02  0.14768724123E+03  0.15359586101E+03  0.47000000000E+01 0.  1.
        -11    1    1    2    0    0 -0.46008126710E+02  0.36829605762E+02  0.82329004618E+02  0.10124837078E+03  0.00000000000E+00 0.  1.
         11    1    1    2    0    0  0.32683975594E+02  0.72877415663E+01  0.12770264497E+03  0.13202014607E+03  0.00000000000E+00 0. -1.
<mgrwt>
<rscale>  0 0.12436760E+03</rscale>
<asrwt>0</asrwt>
<pdfrwt beam="1">  1        1 0.58186505E-01 0.13308541E+03</pdfrwt>
<pdfrwt beam="2">  1       -1 0.61385669E-02 0.13308541E+03</pdfrwt>
<totfact> 0.79957528E+03</totfact>
</mgrwt>
</event>
<event>
 6    1  0.7457796E-006  0.3148273E+03  0.7546771E-02  0.1078055E+00
         -1   -1    0    0    0  501 -0.00000000000E+00  0.00000000000E+00  0.90402146557E+03  0.90402146557E+03  0.00000000000E+00 0.  1.
          1   -1    0    0  501    0  0.00000000000E+00 -0.00000000000E+00 -0.27409814216E+02  0.27409814216E+02  0.00000000000E+00 0. -1.
          5    1    1    2  502    0  0.13023059258E+02 -0.67037666486E+01  0.39983266416E+01  0.15893935184E+02  0.47000000000E+01 0. -1.
         -5    1    1    2    0  502 -0.19142360622E+02 -0.82481155206E+02  0.67330220161E+03  0.67862177657E+03  0.47000000000E+01 0. -1.
        -11    1    1    2    0    0 -0.23151726352E+02  0.86893071974E+02  0.18155178830E+03  0.20260172809E+03  0.00000000000E+00 0.  1.
         11    1    1    2    0    0  0.29271027716E+02  0.22918498804E+01  0.17759334806E+02  0.34313839951E+02  0.00000000000E+00 0. -1.
<mgrwt>
<rscale>  0 0.31482732E+03</rscale>
<asrwt>0</asrwt>
<pdfrwt beam="2">  1        1 0.42168952E-02 0.31482732E+03</pdfrwt>
<pdfrwt beam="1">  1       -1 0.13908020E+00 0.31482732E+03</pdfrwt>
<totfact> 0.97269630E+02</totfact>
</mgrwt>
</event>
<event>
 6    1  0.7457796E-006  0.1681060E+03  0.7546771E-02  0.1186560E+00
         -1   -1    0    0    0  501 -0.00000000000E+00  0.00000000000E+00  0.12061058492E+03  0.12061058492E+03  0.00000000000E+00 0.  1.
          1   -1    0    0  501    0  0.00000000000E+00 -0.00000000000E+00 -0.20715743854E+03  0.20715743854E+03  0.00000000000E+00 0. -1.
          5    1    1    2  502    0  0.72212719759E+02 -0.97508511726E+02 -0.47574752187E+02  0.13041485268E+03  0.47000000000E+01 0. -1.
         -5    1    1    2    0  502  0.14571928131E+02  0.26070519340E+02  0.24959362224E+02  0.39205520412E+02  0.47000000000E+01 0. -1.
        -11    1    1    2    0    0 -0.89610432706E+02  0.57431156750E+02 -0.15383814819E+02  0.10754082561E+03  0.00000000000E+00 0.  1.
         11    1    1    2    0    0  0.28257848152E+01  0.14006835636E+02 -0.48547648834E+02  0.50606824754E+02  0.00000000000E+00 0. -1.
<mgrwt>
<rscale>  0 0.16190732E+03</rscale>
<asrwt>0</asrwt>
<pdfrwt beam="2">  1        1 0.31870375E-01 0.16810596E+03</pdfrwt>
<pdfrwt beam="1">  1       -1 0.18555475E-01 0.16810596E+03</pdfrwt>
<totfact> 0.31208016E+03</totfact>
</mgrwt>
</event>
<event>
 6    1  0.7457796E-006  0.2874653E+03  0.7546771E-02  0.1091680E+00
         -2   -1    0    0    0  501 -0.00000000000E+00  0.00000000000E+00  0.13756206392E+03  0.13756206392E+03  0.00000000000E+00 0.  1.
          2   -1    0    0  501    0  0.00000000000E+00 -0.00000000000E+00 -0.15017998973E+03  0.15017998973E+03  0.00000000000E+00 0. -1.
          5    1    1    2  502    0 -0.18172462647E+02 -0.14481483769E+02  0.66604840700E+02  0.70698278447E+02  0.47000000000E+01 0. -1.
         -5    1    1    2    0  502  0.82749296589E+02  0.41646584713E+01 -0.52287482475E+01  0.83151790567E+02  0.47000000000E+01 0. -1.
        -11    1    1    2    0    0 -0.31983188304E+02 -0.67519194122E+01  0.16200046977E+02  0.36482245982E+02  0.00000000000E+00 0.  1.
         11    1    1    2    0    0 -0.32593645638E+02  0.17068744710E+02 -0.90194065238E+02  0.97409738661E+02  0.00000000000E+00 0. -1.
<mgrwt>
<rscale>  0 0.28746526E+03</rscale>
<asrwt>0</asrwt>
<pdfrwt beam="2">  1        2 0.23104614E-01 0.28746526E+03</pdfrwt>
<pdfrwt beam="1">  1       -2 0.21163394E-01 0.28746526E+03</pdfrwt>
<totfact> 0.44644874E+03</totfact>
</mgrwt>
</event>
<event>
 6    1  0.7457796E-006  0.3356551E+03  0.7546771E-02  0.1068662E+00
          2   -1    0    0  501    0  0.00000000000E+00  0.00000000000E+00  0.55116816315E+03  0.55116816315E+03  0.00000000000E+00 0. -1.
         -2   -1    0    0    0  501 -0.00000000000E+00 -0.00000000000E+00 -0.51102525040E+02  0.51102525040E+02  0.00000000000E+00 0.  1.
          5    1    1    2  502    0  0.42381050625E+02  0.13517134092E+03  0.25615576158E+03  0.29275469091E+03  0.47000000000E+01 0. -1.
         -5    1    1    2    0  502 -0.47544270566E+01 -0.13372738255E+02 -0.46727155095E+01  0.15663938691E+02  0.47000000000E+01 0. -1.
        -11    1    1    2    0    0 -0.68051146776E+02 -0.87541435900E+02  0.17698404251E+03  0.20884877994E+03  0.00000000000E+00 0. -1.
         11    1    1    2    0    0  0.30424523207E+02 -0.34257166766E+02  0.71598549518E+02  0.85003278645E+02  0.00000000000E+00 0.  1.
<mgrwt>
<rscale>  0 0.33565509E+03</rscale>
<asrwt>0</asrwt>
<pdfrwt beam="1">  1        2 0.84795097E-01 0.33565509E+03</pdfrwt>
<pdfrwt beam="2">  1       -2 0.78619273E-02 0.33565509E+03</pdfrwt>
<totfact> 0.54274160E+03</totfact>
</mgrwt>
</event>
<event>
 6    1  0.7457796E-006  0.2389241E+03  0.7546771E-02  0.1123520E+00
         -1   -1    0    0    0  501 -0.00000000000E+00  0.00000000000E+00  0.15434725339E+03  0.15434725339E+03  0.00000000000E+00 0.  1.
          1   -1    0    0  501    0  0.00000000000E+00 -0.00000000000E+00 -0.34371898170E+03  0.34371898170E+03  0.00000000000E+00 0. -1.
          5    1    1    2  502    0 -0.21531286122E+03  0.42280179308E+02 -0.10077831651E+03  0.24150693747E+03  0.47000000000E+01 0. -1.
         -5    1    1    2    0  502  0.14148062715E+02 -0.10740911447E+02 -0.16534124143E+01  0.18448811070E+02  0.47000000000E+01 0. -1.
        -11    1    1    2    0    0  0.14387178477E+03  0.67955328430E+01 -0.26538144463E+02  0.14645662440E+03  0.00000000000E+00 0.  1.
         11    1    1    2    0    0  0.57293013727E+02 -0.38334800704E+02 -0.60401854933E+02  0.91653862146E+02  0.00000000000E+00 0. -1.
<mgrwt>
<rscale>  0 0.23448886E+03</rscale>
<asrwt>0</asrwt>
<pdfrwt beam="2">  1        1 0.52879843E-01 0.23892411E+03</pdfrwt>
<pdfrwt beam="1">  1       -1 0.23745731E-01 0.23892411E+03</pdfrwt>
<totfact> 0.11175508E+03</totfact>
</mgrwt>
</event>
<event>
 6    1  0.7457796E-006  0.1385632E+03  0.7546771E-02  0.1230434E+00
         -2   -1    0    0    0  501 -0.00000000000E+00  0.00000000000E+00  0.42052376367E+02  0.42052376367E+02  0.00000000000E+00 0. -1.
          2   -1    0    0  501    0  0.00000000000E+00 -0.00000000000E+00 -0.34153269647E+03  0.34153269647E+03  0.00000000000E+00 0.  1.
          5    1    1    2  502    0 -0.20028799990E+02  0.55285692377E+02 -0.93810150628E+02  0.11081558993E+03  0.47000000000E+01 0.  1.
         -5    1    1    2    0  502 -0.38367865402E+02 -0.67962028892E+02 -0.86750005597E+02  0.11678434800E+03  0.47000000000E+01 0.  1.
        -11    1    1    2    0    0  0.62885570752E+02 -0.20017056096E+02 -0.64110842918E+02  0.92008030754E+02  0.00000000000E+00 0.  1.
         11    1    1    2    0    0 -0.44889053594E+01  0.32693392611E+02 -0.54809320963E+02  0.63977104156E+02  0.00000000000E+00 0. -1.
<mgrwt>
<rscale>  0 0.12801306E+03</rscale>
<asrwt>0</asrwt>
<pdfrwt beam="2">  1        2 0.52543490E-01 0.13856320E+03</pdfrwt>
<pdfrwt beam="1">  1       -2 0.64695966E-02 0.13856320E+03</pdfrwt>
<totfact> 0.11830151E+04</totfact>
</mgrwt>
</event>
<event>
 6    1  0.7457796E-006  0.1337168E+03  0.7546771E-02  0.1252336E+00
          1   -1    0    0  501    0  0.00000000000E+00  0.00000000000E+00  0.10839593087E+02  0.10839593087E+02  0.00000000000E+00 0. -1.
         -1   -1    0    0    0  501 -0.00000000000E+00 -0.00000000000E+00 -0.10620424315E+04  0.10620424315E+04  0.00000000000E+00 0.  1.
          5    1    1    2  502    0 -0.19713323556E+02 -0.44253568328E+02 -0.11873767644E+03  0.12832661159E+03  0.47000000000E+01 0.  1.
         -5    1    1    2    0  502  0.42152123534E+02  0.24185009627E+01 -0.69739610186E+03  0.69868881740E+03  0.47000000000E+01 0.  1.
        -11    1    1    2    0    0 -0.66165413814E+01  0.49709649170E+02 -0.13029472265E+03  0.13961211477E+03  0.00000000000E+00 0. -1.
         11    1    1    2    0    0 -0.15822258597E+02 -0.78745818045E+01 -0.10477433744E+03  0.10625448081E+03  0.00000000000E+00 0.  1.
<mgrwt>
<rscale>  0 0.11456867E+03</rscale>
<asrwt>0</asrwt>
<pdfrwt beam="1">  1        1 0.16676293E-02 0.13371677E+03</pdfrwt>
<pdfrwt beam="2">  1       -1 0.16339118E+00 0.13371677E+03</pdfrwt>
<totfact> 0.22737061E+03</totfact>
</mgrwt>
</event>
<event>
 6    1  0.7457796E-006  0.3052803E+03  0.7546771E-02  0.1082630E+00
          2   -1    0    0  501    0  0.00000000000E+00  0.00000000000E+00  0.56899741621E+03  0.56899741621E+03  0.00000000000E+00 0. -1.
         -2   -1    0    0    0  501 -0.00000000000E+00 -0.00000000000E+00 -0.40947489822E+02  0.40947489822E+02  0.00000000000E+00 0.  1.
          5    1    1    2  502    0 -0.16507934735E+02  0.98269601177E+01 -0.12888189513E+02  0.23606704202E+02  0.47000000000E+01 0. -1.
         -5    1    1    2    0  502  0.17684128157E+02  0.88953111376E+02  0.21769251355E+03  0.23587603708E+03  0.47000000000E+01 0. -1.
        -11    1    1    2    0    0 -0.17072841779E-01 -0.30284598315E+02  0.13370093769E+02  0.33104631004E+02  0.00000000000E+00 0.  1.
         11    1    1    2    0    0 -0.11591205803E+01 -0.68495473179E+02  0.30987550857E+03  0.31735753374E+03  0.00000000000E+00 0. -1.
<mgrwt>
<rscale>  0 0.30528030E+03</rscale>
<asrwt>0</asrwt>
<pdfrwt beam="1">  1        2 0.87538058E-01 0.30528030E+03</pdfrwt>
<pdfrwt beam="2">  1       -2 0.62996142E-02 0.30528030E+03</pdfrwt>
<totfact> 0.73665179E+03</totfact>
</mgrwt>
</event>
<event>
 6    1  0.7457796E-006  0.1760034E+03  0.7546771E-02  0.1178123E+00
          2   -1    0    0  501    0  0.00000000000E+00  0.00000000000E+00  0.69290528117E+02  0.69290528117E+02  0.00000000000E+00 0.  1.
         -2   -1    0    0    0  501 -0.00000000000E+00 -0.00000000000E+00 -0.38918166480E+03  0.38918166480E+03  0.00000000000E+00 0. -1.
          5    1    1    2  502    0  0.47055969975E+02  0.43921842632E+02 -0.41387097480E+02  0.76670557636E+02  0.47000000000E+01 0.  1.
         -5    1    1    2    0  502  0.70608953430E+02 -0.82605036384E+02 -0.12248910239E+03  0.16381357253E+03  0.47000000000E+01 0.  1.
        -11    1    1    2    0    0 -0.13370157679E+02 -0.21606577076E+02 -0.55704189531E+02  0.61225501391E+02  0.00000000000E+00 0.  1.
         11    1    1    2    0    0 -0.10429476573E+03  0.60289770828E+02 -0.10031074728E+03  0.15676256136E+03  0.00000000000E+00 0. -1.
<mgrwt>
<rscale>  0 0.16973666E+03</rscale>
<asrwt>0</asrwt>
<pdfrwt beam="1">  1        2 0.10660081E-01 0.17600343E+03</pdfrwt>
<pdfrwt beam="2">  1       -2 0.59874103E-01 0.17600343E+03</pdfrwt>
<totfact> 0.15427569E+03</totfact>
</mgrwt>
</event>
<event>
 6    1  0.7457796E-006  0.1266499E+03  0.7546771E-02  0.1247317E+00
          1   -1    0    0  501    0  0.00000000000E+00  0.00000000000E+00  0.94315279964E+03  0.94315279964E+03  0.00000000000E+00 0. -1.
         -1   -1    0    0    0  501 -0.00000000000E+00 -0.00000000000E+00 -0.13103766772E+02  0.13103766772E+02  0.00000000000E+00 0.  1.
          5    1    1    2  502    0 -0.59254655738E+02 -0.35328210212E+02  0.33870984331E+03  0.34569588459E+03  0.47000000000E+01 0. -1.
         -5    1    1    2    0  502  0.48104223910E+02  0.18360483891E+02  0.13229246014E+03  0.14203699777E+03  0.47000000000E+01 0. -1.
        -11    1    1    2    0    0  0.38176376712E+02  0.41449687057E+02  0.24537607596E+03  0.25176364104E+03  0.00000000000E+00 0.  1.
         11    1    1    2    0    0 -0.27025944884E+02 -0.24481960737E+02  0.21367065347E+03  0.21676004302E+03  0.00000000000E+00 0. -1.
<mgrwt>
<rscale>  0 0.11747774E+03</rscale>
<asrwt>0</asrwt>
<pdfrwt beam="1">  1        1 0.14510038E+00 0.12664989E+03</pdfrwt>
<pdfrwt beam="2">  1       -1 0.20159649E-02 0.12664989E+03</pdfrwt>
<totfact> 0.11459384E+04</totfact>
</mgrwt>
</event>
<event>
 6    1  0.7457796E-006  0.2502861E+03  0.7546771E-02  0.1113124E+00
          2   -1    0    0  501    0  0.00000000000E+00  0.00000000000E+00  0.83543690756E+02  0.83543690756E+02  0.00000000000E+00 0. -1.
         -2   -1    0    0    0  501 -0.00000000000E+00 -0.00000000000E+00 -0.18745623730E+03  0.18745623730E+03  0.00000000000E+00 0.  1.
          5    1    1    2  502    0  0.35982002266E+02 -0.46515699667E+02 -0.36684251396E+01  0.59109746621E+02  0.47000000000E+01 0. -1.
         -5    1    1    2    0  502 -0.19063687892E+02  0.17837851927E+02 -0.10982560715E+03  0.11298392427E+03  0.47000000000E+01 0. -1.
        -11    1    1    2    0    0 -0.49095392497E+02 -0.62433820034E+01 -0.36111814975E+01  0.49622353986E+02  0.00000000000E+00 0.  1.
         11    1    1    2    0    0  0.32177078123E+02  0.34921229743E+02  0.13192667245E+02  0.49283903177E+02  0.00000000000E+00 0. -1.
<mgrwt>
<rscale>  0 0.25028612E+03</rscale>
<asrwt>0</asrwt>
<pdfrwt beam="1">  1        2 0.12852876E-01 0.25028612E+03</pdfrwt>
<pdfrwt beam="2">  1       -2 0.28839421E-01 0.25028612E+03</pdfrwt>
<totfact> 0.51026390E+03</totfact>
</mgrwt>
</event>
<event>
 6    1  0.7457796E-006  0.1416659E+03  0.7546771E-02  0.1219996E+00
         -2   -1    0    0    0  501 -0.00000000000E+00  0.00000000000E+00  0.30329426902E+02  0.30329426902E+02  0.00000000000E+00 0.  1.
          2   -1    0    0  501    0  0.00000000000E+00 -0.00000000000E+00 -0.58035075617E+03  0.58035075617E+03  0.00000000000E+00 0. -1.
          5    1    1    2  502    0  0.59200789798E+02  0.21919964815E+02 -0.44543383331E+02  0.77404272290E+02  0.47000000000E+01 0. -1.
         -5    1    1    2    0  502  0.95931087756E+00 -0.50648655626E+02 -0.18917743802E+03  0.19589895266E+03  0.47000000000E+01 0. -1.
        -11    1    1    2    0    0 -0.45210094176E+02 -0.13177655861E+02 -0.26636201553E+03  0.27049274768E+03  0.00000000000E+00 0. -1.
         11    1    1    2    0    0 -0.14950006499E+02  0.41906346672E+02 -0.49938492382E+02  0.66884210447E+02  0.00000000000E+00 0.  1.
<mgrwt>
<rscale>  0 0.13515874E+03</rscale>
<asrwt>0</asrwt>
<pdfrwt beam="2">  1        2 0.89284730E-01 0.14166591E+03</pdfrwt>
<pdfrwt beam="1">  1       -2 0.46660658E-02 0.14166591E+03</pdfrwt>
<totfact> 0.10910437E+04</totfact>
</mgrwt>
</event>
<event>
 6    1  0.7457796E-006  0.1879746E+03  0.7546771E-02  0.1165143E+00
         -2   -1    0    0    0  501 -0.00000000000E+00  0.00000000000E+00  0.38912537282E+03  0.38912537282E+03  0.00000000000E+00 0.  1.
          2   -1    0    0  501    0  0.00000000000E+00 -0.00000000000E+00 -0.82268201116E+02  0.82268201116E+02  0.00000000000E+00 0. -1.
          5    1    1    2  502    0  0.24374816033E+02  0.21264542953E+02  0.99425491549E+02  0.10466055042E+03  0.47000000000E+01 0.  1.
         -5    1    1    2    0  502  0.95659495139E+02 -0.94080812808E+02  0.86352675065E+02  0.15962710559E+03  0.47000000000E+01 0.  1.
        -11    1    1    2    0    0 -0.12889935447E+03  0.80644379246E+02  0.12241725346E+03  0.19520385096E+03  0.00000000000E+00 0.  1.
         11    1    1    2    0    0  0.88650433006E+01 -0.78281093915E+01 -0.13382483647E+01  0.11902066966E+02  0.00000000000E+00 0. -1.
<mgrwt>
<rscale>  0 0.18277569E+03</rscale>
<asrwt>0</asrwt>
<pdfrwt beam="2">  1        2 0.12656646E-01 0.18797457E+03</pdfrwt>
<pdfrwt beam="1">  1       -2 0.59865441E-01 0.18797457E+03</pdfrwt>
<totfact> 0.12554899E+03</totfact>
</mgrwt>
</event>
<event>
 6    1  0.7457796E-006  0.3186797E+03  0.7546771E-02  0.1076259E+00
         -4   -1    0    0    0  501 -0.00000000000E+00  0.00000000000E+00  0.10787220414E+04  0.10787220414E+04  0.00000000000E+00 0. -1.
          4   -1    0    0  501    0  0.00000000000E+00 -0.00000000000E+00 -0.23536355386E+02  0.23536355386E+02  0.00000000000E+00 0.  1.
          5    1    1    2  502    0 -0.83896632905E+02 -0.23790209330E+02  0.35860247152E+03  0.36908324489E+03  0.47000000000E+01 0. -1.
         -5    1    1    2    0  502  0.27820171276E+02 -0.18720067444E+02  0.52467121532E+03  0.52576266228E+03  0.47000000000E+01 0. -1.
        -11    1    1    2    0    0  0.42583418906E+02 -0.23014295893E+02  0.83887281070E+02  0.96850819854E+02  0.00000000000E+00 0.  1.
         11    1    1    2    0    0  0.13493042723E+02  0.65524572666E+02  0.88024718073E+02  0.11056166975E+03  0.00000000000E+00 0. -1.
<mgrwt>
<rscale>  0 0.31867968E+03</rscale>
<asrwt>0</asrwt>
<pdfrwt beam="2">  1        4 0.36209786E-02 0.31867968E+03</pdfrwt>
<pdfrwt beam="1">  1       -4 0.16595720E+00 0.31867968E+03</pdfrwt>
<totfact> 0.18400243E+02</totfact>
</mgrwt>
</event>
<event>
 6    1  0.7457796E-006  0.1191602E+03  0.7546771E-02  0.1256218E+00
          4   -1    0    0  501    0  0.00000000000E+00  0.00000000000E+00  0.18671640908E+03  0.18671640908E+03  0.00000000000E+00 0. -1.
         -4   -1    0    0    0  501 -0.00000000000E+00 -0.00000000000E+00 -0.13355394416E+03  0.13355394416E+03  0.00000000000E+00 0.  1.
          5    1    1    2  502    0  0.52784745724E+01  0.57202139114E+02 -0.84200229990E+01  0.58248895272E+02  0.47000000000E+01 0. -1.
         -5    1    1    2    0  502 -0.14771402990E+02 -0.37652245090E+02 -0.81248072709E+02  0.90880279629E+02  0.47000000000E+01 0.  1.
        -11    1    1    2    0    0  0.15547242694E+02  0.19613773308E+02  0.23044254699E+01  0.25134184600E+02  0.00000000000E+00 0.  1.
         11    1    1    2    0    0 -0.60543142765E+01 -0.39163667333E+02  0.14052613515E+03  0.14600699374E+03  0.00000000000E+00 0. -1.
<mgrwt>
<rscale>  0 0.11238369E+03</rscale>
<asrwt>0</asrwt>
<pdfrwt beam="1">  1        4 0.28725601E-01 0.11916016E+03</pdfrwt>
<pdfrwt beam="2">  1       -4 0.20546761E-01 0.11916016E+03</pdfrwt>
<totfact> 0.40160392E+02</totfact>
</mgrwt>
</event>
<event>
 6    1  0.7457796E-006  0.1509481E+03  0.7546771E-02  0.1209583E+00
         -2   -1    0    0    0  501 -0.00000000000E+00  0.00000000000E+00  0.15358979939E+03  0.15358979939E+03  0.00000000000E+00 0.  1.
          2   -1    0    0  501    0  0.00000000000E+00 -0.00000000000E+00 -0.15169750969E+03  0.15169750969E+03  0.00000000000E+00 0. -1.
          5    1    1    2  502    0  0.11344578075E+02 -0.74338742324E+02 -0.15734530058E+02  0.76971510951E+02  0.47000000000E+01 0. -1.
         -5    1    1    2    0  502 -0.24795143509E+02 -0.80787947873E+00  0.85813014909E+02  0.89450630734E+02  0.47000000000E+01 0.  1.
        -11    1    1    2    0    0 -0.29697970907E+02 -0.19062884833E+01 -0.47610298713E+01  0.30137531704E+02  0.00000000000E+00 0.  1.
         11    1    1    2    0    0  0.43148536341E+02  0.77052910286E+02 -0.63425165286E+02  0.10872763569E+03  0.00000000000E+00 0. -1.
<mgrwt>
<rscale>  0 0.14282092E+03</rscale>
<asrwt>0</asrwt>
<pdfrwt beam="2">  1        2 0.23338078E-01 0.15094812E+03</pdfrwt>
<pdfrwt beam="1">  1       -2 0.23629200E-01 0.15094812E+03</pdfrwt>
<totfact> 0.35331144E+03</totfact>
</mgrwt>
</event>
<event>
 6    1  0.7457796E-006  0.1364071E+03  0.7546771E-02  0.1229981E+00
          1   -1    0    0  501    0  0.00000000000E+00  0.00000000000E+00  0.14733042757E+03  0.14733042757E+03  0.00000000000E+00 0. -1.
         -1   -1    0    0    0  501 -0.00000000000E+00 -0.00000000000E+00 -0.13443253385E+03  0.13443253385E+03  0.00000000000E+00 0.  1.
          5    1    1    2  502    0  0.35687443890E+02 -0.58092135049E+01 -0.55878217510E+02  0.66721854029E+02  0.47000000000E+01 0. -1.
         -5    1    1    2    0  502 -0.65231747360E+02  0.51735852426E+02 -0.76103542798E+01  0.83736412523E+02  0.47000000000E+01 0. -1.
        -11    1    1    2    0    0  0.59465590592E+02 -0.18838816396E+02  0.63311098256E+02  0.88878302358E+02  0.00000000000E+00 0. -1.
         11    1    1    2    0    0 -0.29921287122E+02 -0.27087822526E+02  0.13075367259E+02  0.42426392507E+02  0.00000000000E+00 0.  1.
<mgrwt>
<rscale>  0 0.12831266E+03</rscale>
<asrwt>0</asrwt>
<pdfrwt beam="1">  1        1 0.22666220E-01 0.13640708E+03</pdfrwt>
<pdfrwt beam="2">  1       -1 0.20681928E-01 0.13640708E+03</pdfrwt>
<totfact> 0.39787738E+03</totfact>
</mgrwt>
</event>
<event>
 6    1  0.4134046E-005  0.3858007E+03  0.7546771E-02  0.1048810E+00
          1   -1    0    0  501    0  0.00000000000E+00  0.00000000000E+00  0.67577509000E+03  0.67577509000E+03  0.00000000000E+00 0. -1.
         -1   -1    0    0    0  501 -0.00000000000E+00 -0.00000000000E+00 -0.55063510397E+02  0.55063510397E+02  0.00000000000E+00 0.  1.
          5    1    1    2  502    0 -0.47355277511E+01 -0.34340610633E+02  0.49038759906E+02  0.60237801544E+02  0.47000000000E+01 0. -1.
         -5    1    1    2    0  502  0.14884735357E+03  0.42431172816E+02  0.15031357896E+03  0.21580593392E+03  0.47000000000E+01 0. -1.
        -11    1    1    2    0    0 -0.90502425489E+02  0.37778842427E+02  0.20559143403E+03  0.22778447642E+03  0.00000000000E+00 0. -1.
         11    1    1    2    0    0 -0.53609400331E+02 -0.45869404611E+02  0.21576780671E+03  0.22701038852E+03  0.00000000000E+00 0.  1.
<mgrwt>
<rscale>  0 0.38580072E+03</rscale>
<asrwt>0</asrwt>
<pdfrwt beam="1">  1        1 0.10396539E+00 0.38580072E+03</pdfrwt>
<pdfrwt beam="2">  1       -1 0.84713097E-02 0.38580072E+03</pdfrwt>
<totfact> 0.23476781E+03</totfact>
</mgrwt>
</event>
<event>
 6    1  0.7457796E-006  0.2111997E+03  0.7546771E-02  0.1143766E+00
         -2   -1    0    0    0  501 -0.00000000000E+00  0.00000000000E+00  0.22708814422E+03  0.22708814422E+03  0.00000000000E+00 0.  1.
          2   -1    0    0  501    0  0.00000000000E+00 -0.00000000000E+00 -0.19639195982E+03  0.19639195982E+03  0.00000000000E+00 0. -1.
          5    1    1    2  502    0  0.10603318342E+03 -0.55679334831E+02  0.10271762601E+02  0.12029473563E+03  0.47000000000E+01 0.  1.
         -5    1    1    2    0  502  0.64137954801E+02  0.51058229180E+02  0.62130909605E+02  0.10297067515E+03  0.47000000000E+01 0.  1.
        -11    1    1    2    0    0 -0.48657034112E+02 -0.10948659900E+02  0.30061784337E+02  0.58233074792E+02  0.00000000000E+00 0.  1.
         11    1    1    2    0    0 -0.12151410410E+03  0.15569765551E+02 -0.71768272148E+02  0.14198161847E+03  0.00000000000E+00 0. -1.
<mgrwt>
<rscale>  0 0.20724574E+03</rscale>
<asrwt>0</asrwt>
<pdfrwt beam="2">  1        2 0.30214148E-01 0.21119966E+03</pdfrwt>
<pdfrwt beam="1">  1       -2 0.34936637E-01 0.21119966E+03</pdfrwt>
<totfact> 0.13326001E+03</totfact>
</mgrwt>
</event>
<event>
 6    1  0.7457796E-006  0.1573142E+03  0.7546771E-02  0.1199883E+00
         -3   -1    0    0    0  501 -0.00000000000E+00  0.00000000000E+00  0.80704673497E+03  0.80704673497E+03  0.00000000000E+00 0.  1.
          3   -1    0    0  501    0  0.00000000000E+00 -0.00000000000E+00 -0.31950630418E+02  0.31950630418E+02  0.00000000000E+00 0. -1.
          5    1    1    2  502    0  0.59787097277E+00  0.31698842818E+02  0.49917082951E+03  0.50019874162E+03  0.47000000000E+01 0.  1.
         -5    1    1    2    0  502 -0.15039148488E+02  0.62713557131E+02  0.98495277021E+02  0.11782434312E+03  0.47000000000E+01 0.  1.
        -11    1    1    2    0    0  0.12475239695E+02 -0.56863706733E+02  0.17369236656E+03  0.18318883959E+03  0.00000000000E+00 0.  1.
         11    1    1    2    0    0  0.19660378205E+01 -0.37548693216E+02  0.37376314558E+01  0.37785441056E+02  0.00000000000E+00 0. -1.
<mgrwt>
<rscale>  0 0.15048141E+03</rscale>
<asrwt>0</asrwt>
<pdfrwt beam="2">  1        3 0.49154822E-02 0.15731420E+03</pdfrwt>
<pdfrwt beam="1">  1       -3 0.12416102E+00 0.15731420E+03</pdfrwt>
<totfact> 0.30328461E+02</totfact>
</mgrwt>
</event>
<event>
 6    1  0.7457796E-006  0.1520339E+03  0.7546771E-02  0.1207443E+00
          1   -1    0    0  501    0  0.00000000000E+00  0.00000000000E+00  0.19795678661E+03  0.19795678661E+03  0.00000000000E+00 0. -1.
         -1   -1    0    0    0  501 -0.00000000000E+00 -0.00000000000E+00 -0.11170289989E+03  0.11170289989E+03  0.00000000000E+00 0.  1.
          5    1    1    2  502    0 -0.20159028111E+02  0.84406591526E+02 -0.42483671739E+02  0.96735781755E+02  0.47000000000E+01 0. -1.
         -5    1    1    2    0  502  0.45309454064E+02 -0.15942912391E+01  0.31949195390E+02  0.55662639878E+02  0.47000000000E+01 0. -1.
        -11    1    1    2    0    0 -0.52764616862E+02 -0.63577121872E+02  0.41306738032E+02  0.92371000996E+02  0.00000000000E+00 0.  1.
         11    1    1    2    0    0  0.27614190909E+02 -0.19235178415E+02  0.55481625041E+02  0.64890263872E+02  0.00000000000E+00 0. -1.
<mgrwt>
<rscale>  0 0.14446586E+03</rscale>
<asrwt>0</asrwt>
<pdfrwt beam="1">  1        1 0.30454890E-01 0.15203389E+03</pdfrwt>
<pdfrwt beam="2">  1       -1 0.17185062E-01 0.15203389E+03</pdfrwt>
<totfact> 0.37154598E+03</totfact>
</mgrwt>
</event>
<event>
 6    1  0.7457796E-006  0.3187582E+03  0.7546771E-02  0.1076222E+00
         -2   -1    0    0    0  501 -0.00000000000E+00  0.00000000000E+00  0.40959868180E+02  0.40959868180E+02  0.00000000000E+00 0.  1.
          2   -1    0    0  501    0  0.00000000000E+00 -0.00000000000E+00 -0.62016047079E+03  0.62016047079E+03  0.00000000000E+00 0. -1.
          5    1    1    2  502    0 -0.12579145349E+03  0.65793762815E-01 -0.17543929100E+03  0.21592713800E+03  0.47000000000E+01 0. -1.
         -5    1    1    2    0  502  0.19900014636E+02  0.35715841452E+02 -0.73118985032E+02  0.83905350754E+02  0.47000000000E+01 0. -1.
        -11    1    1    2    0    0  0.78249576475E+02  0.27712054332E+01 -0.28462029746E+03  0.29519381688E+03  0.00000000000E+00 0. -1.
         11    1    1    2    0    0  0.27641862379E+02 -0.38552840648E+02 -0.46022029113E+02  0.66094033327E+02  0.00000000000E+00 0.  1.
<mgrwt>
<rscale>  0 0.31875816E+03</rscale>
<asrwt>0</asrwt>
<pdfrwt beam="2">  1        2 0.95409300E-01 0.31875816E+03</pdfrwt>
<pdfrwt beam="1">  1       -2 0.63015184E-02 0.31875816E+03</pdfrwt>
<totfact> 0.66685210E+03</totfact>
</mgrwt>
</event>
<event>
 6    1  0.7457796E-006  0.1871962E+03  0.7546771E-02  0.1165748E+00
         -2   -1    0    0    0  501 -0.00000000000E+00  0.00000000000E+00  0.26656116167E+03  0.26656116167E+03  0.00000000000E+00 0.  1.
          2   -1    0    0  501    0  0.00000000000E+00 -0.00000000000E+00 -0.13014616635E+03  0.13014616635E+03  0.00000000000E+00 0. -1.
          5    1    1    2  502    0 -0.22349222925E+02  0.53041661216E+02  0.24248376569E+02  0.62633691861E+02  0.47000000000E+01 0.  1.
         -5    1    1    2    0  502 -0.11693802109E+03 -0.48959191538E+02  0.10742183885E+03  0.16623190029E+03  0.47000000000E+01 0.  1.
        -11    1    1    2    0    0  0.33852195471E+02 -0.39014617197E+02  0.20667556037E+02  0.55635055188E+02  0.00000000000E+00 0. -1.
         11    1    1    2    0    0  0.10543504854E+03  0.34932147519E+02 -0.15922776137E+02  0.11220668069E+03  0.00000000000E+00 0.  1.
<mgrwt>
<rscale>  0 0.18213959E+03</rscale>
<asrwt>0</asrwt>
<pdfrwt beam="2">  1        2 0.20022487E-01 0.18719619E+03</pdfrwt>
<pdfrwt beam="1">  1       -2 0.41009409E-01 0.18719619E+03</pdfrwt>
<totfact> 0.15542992E+03</totfact>
</mgrwt>
</event>
<event>
 6    1  0.7457796E-006  0.1254898E+03  0.7546771E-02  0.1250898E+00
         -1   -1    0    0    0  501 -0.00000000000E+00  0.00000000000E+00  0.94855456110E+02  0.94855456110E+02  0.00000000000E+00 0.  1.
          1   -1    0    0  501    0  0.00000000000E+00 -0.00000000000E+00 -0.13473982039E+03  0.13473982039E+03  0.00000000000E+00 0. -1.
          5    1    1    2  502    0 -0.18174961187E+02  0.12744179144E+02 -0.50489117051E+02  0.55353267806E+02  0.47000000000E+01 0.  1.
         -5    1    1    2    0  502  0.26062002816E+02 -0.20336134534E+02  0.62309563223E+02  0.70691994084E+02  0.47000000000E+01 0.  1.
        -11    1    1    2    0    0  0.29873197644E+02 -0.14404787988E+00 -0.57282224579E+02  0.64604039657E+02  0.00000000000E+00 0. -1.
         11    1    1    2    0    0 -0.37760239273E+02  0.77360032690E+01  0.55774141299E+01  0.38945974951E+02  0.00000000000E+00 0.  1.
<mgrwt>
<rscale>  0 0.11539194E+03</rscale>
<asrwt>0</asrwt>
<pdfrwt beam="2">  1        1 0.20729203E-01 0.12548978E+03</pdfrwt>
<pdfrwt beam="1">  1       -1 0.14593147E-01 0.12548978E+03</pdfrwt>
<totfact> 0.76974036E+03</totfact>
</mgrwt>
</event>
<event>
 6    1  0.7457796E-006  0.1272357E+03  0.7546771E-02  0.1245228E+00
         -1   -1    0    0    0  501 -0.00000000000E+00  0.00000000000E+00  0.34752793420E+02  0.34752793420E+02  0.00000000000E+00 0.  1.
          1   -1    0    0  501    0  0.00000000000E+00 -0.00000000000E+00 -0.52065843389E+03  0.52065843389E+03  0.00000000000E+00 0. -1.
          5    1    1    2  502    0 -0.57026584224E+02  0.26838419565E+02 -0.25649784570E+02  0.68208016549E+02  0.47000000000E+01 0. -1.
         -5    1    1    2    0  502  0.52337648608E+02 -0.36982499869E+01 -0.87127033041E+02  0.10181412673E+03  0.47000000000E+01 0. -1.
        -11    1    1    2    0    0  0.41187845634E+02 -0.36962044132E+02 -0.17835414820E+03  0.18674269333E+03  0.00000000000E+00 0.  1.
         11    1    1    2    0    0 -0.36498910018E+02  0.13821874553E+02 -0.19477467466E+03  0.19864639070E+03  0.00000000000E+00 0. -1.
<mgrwt>
<rscale>  0 0.11871754E+03</rscale>
<asrwt>0</asrwt>
<pdfrwt beam="2">  1        1 0.80101294E-01 0.12723568E+03</pdfrwt>
<pdfrwt beam="1">  1       -1 0.53465838E-02 0.12723568E+03</pdfrwt>
<totfact> 0.65055948E+03</totfact>
</mgrwt>
</event>
<event>
 6    1  0.7457796E-006  0.1443360E+03  0.7546771E-02  0.1217960E+00
          1   -1    0    0  501    0  0.00000000000E+00  0.00000000000E+00  0.20167112192E+03  0.20167112192E+03  0.00000000000E+00 0. -1.
         -1   -1    0    0    0  501 -0.00000000000E+00 -0.00000000000E+00 -0.93367365138E+02  0.93367365138E+02  0.00000000000E+00 0.  1.
          5    1    1    2  502    0 -0.53051822703E+02  0.19284130508E+01  0.23342329290E+02  0.58182205232E+02  0.47000000000E+01 0. -1.
         -5    1    1    2    0  502  0.49644482772E+02  0.70158679437E+02 -0.10551867942E+02  0.86719357049E+02  0.47000000000E+01 0. -1.
        -11    1    1    2    0    0  0.28271628732E+02  0.18121465001E+00  0.60009436813E+00  0.28278577460E+02  0.00000000000E+00 0.  1.
         11    1    1    2    0    0 -0.24864288801E+02 -0.72268307137E+02  0.94913201063E+02  0.12185834731E+03  0.00000000000E+00 0. -1.
<mgrwt>
<rscale>  0 0.13661334E+03</rscale>
<asrwt>0</asrwt>
<pdfrwt beam="1">  1        1 0.31026326E-01 0.14433595E+03</pdfrwt>
<pdfrwt beam="2">  1       -1 0.14364210E-01 0.14433595E+03</pdfrwt>
<totfact> 0.48024831E+03</totfact>
</mgrwt>
</event>
<event>
 6    1  0.7457796E-006  0.1425914E+03  0.7546771E-02  0.1220857E+00
          4   -1    0    0  501    0  0.00000000000E+00  0.00000000000E+00  0.39626057654E+03  0.39626057654E+03  0.00000000000E+00 0.  1.
         -4   -1    0    0    0  501 -0.00000000000E+00 -0.00000000000E+00 -0.42873243002E+02  0.42873243002E+02  0.00000000000E+00 0. -1.
          5    1    1    2  502    0  0.33452497422E+02  0.31451233443E+02 -0.57201129252E+01  0.46508701989E+02  0.47000000000E+01 0. -1.
         -5    1    1    2    0  502 -0.99405623829E+01  0.33000832564E+02  0.15932693426E+03  0.16307983233E+03  0.47000000000E+01 0. -1.
        -11    1    1    2    0    0 -0.61364824651E+01 -0.72745058303E+02  0.19700105875E+03  0.21009263927E+03  0.00000000000E+00 0.  1.
         11    1    1    2    0    0 -0.17375452574E+02  0.82929922968E+01  0.27794534488E+01  0.19452645960E+02  0.00000000000E+00 0. -1.
<mgrwt>
<rscale>  0 0.13454920E+03</rscale>
<asrwt>0</asrwt>
<pdfrwt beam="1">  1        4 0.60963163E-01 0.14259137E+03</pdfrwt>
<pdfrwt beam="2">  1       -4 0.65958838E-02 0.14259137E+03</pdfrwt>
<totfact> 0.65254047E+02</totfact>
</mgrwt>
</event>
<event>
 6    1  0.1384330E-005  0.1805040E+03  0.7546771E-02  0.1172729E+00
          1   -1    0    0  501    0  0.00000000000E+00  0.00000000000E+00  0.15711308040E+04  0.15711308040E+04  0.00000000000E+00 0. -1.
         -1   -1    0    0    0  501 -0.00000000000E+00 -0.00000000000E+00 -0.18828404864E+02  0.18828404864E+02  0.00000000000E+00 0.  1.
          5    1    1    2  502    0  0.32854723374E+02  0.51920155011E+02  0.15435120985E+03  0.16619723622E+03  0.47000000000E+01 0. -1.
         -5    1    1    2    0  502  0.97363193064E+02 -0.51477592941E+02  0.54804665695E+03  0.55902304258E+03  0.47000000000E+01 0. -1.
        -11    1    1    2    0    0 -0.51710271521E+02  0.45181107959E+02  0.37204720970E+03  0.37833108641E+03  0.00000000000E+00 0. -1.
         11    1    1    2    0    0 -0.78507644916E+02 -0.45623670029E+02  0.47785732259E+03  0.48640784362E+03  0.00000000000E+00 0.  1.
<mgrwt>
<rscale>  0 0.17500303E+03</rscale>
<asrwt>0</asrwt>
<pdfrwt beam="1">  1        1 0.24171233E+00 0.18050399E+03</pdfrwt>
<pdfrwt beam="2">  1       -1 0.28966789E-02 0.18050399E+03</pdfrwt>
<totfact> 0.25464959E+03</totfact>
</mgrwt>
</event>
<event>
 6    1  0.7457796E-006  0.2256337E+03  0.7546771E-02  0.1132859E+00
         -1   -1    0    0    0  501 -0.00000000000E+00  0.00000000000E+00  0.53379168629E+02  0.53379168629E+02  0.00000000000E+00 0.  1.
          1   -1    0    0  501    0  0.00000000000E+00 -0.00000000000E+00 -0.89201457479E+03  0.89201457479E+03  0.00000000000E+00 0. -1.
          5    1    1    2  502    0  0.84793690273E+02  0.29692630832E+02 -0.94221018058E+02  0.13027399003E+03  0.47000000000E+01 0. -1.
         -5    1    1    2    0  502  0.63080031046E+02  0.86139071710E+02 -0.38247517957E+03  0.39712514776E+03  0.47000000000E+01 0. -1.
        -11    1    1    2    0    0 -0.56621638461E+02 -0.86954828472E+02 -0.12501663301E+03  0.16246941456E+03  0.00000000000E+00 0.  1.
         11    1    1    2    0    0 -0.91252082858E+02 -0.28876874069E+02 -0.23692257551E+03  0.25552519107E+03  0.00000000000E+00 0. -1.
<mgrwt>
<rscale>  0 0.22137952E+03</rscale>
<asrwt>0</asrwt>
<pdfrwt beam="2">  1        1 0.13723301E+00 0.22563374E+03</pdfrwt>
<pdfrwt beam="1">  1       -1 0.82121798E-02 0.22563374E+03</pdfrwt>
<totfact> 0.16010706E+03</totfact>
</mgrwt>
</event>
<event>
 6    1  0.1548400E-005  0.3556717E+03  0.7546771E-02  0.1061360E+00
          1   -1    0    0  501    0  0.00000000000E+00  0.00000000000E+00  0.11300412775E+04  0.11300412775E+04  0.00000000000E+00 0. -1.
         -1   -1    0    0    0  501 -0.00000000000E+00 -0.00000000000E+00 -0.11062323637E+03  0.11062323637E+03  0.00000000000E+00 0.  1.
          5    1    1    2  502    0  0.31646984382E+01  0.11146087441E+02 -0.81081004362E+00  0.12529884053E+02  0.47000000000E+01 0. -1.
         -5    1    1    2    0  502 -0.26911985490E+03  0.18921728537E+03  0.59890506982E+03  0.68332865449E+03  0.47000000000E+01 0. -1.
        -11    1    1    2    0    0  0.15130444790E+03 -0.16404527837E+03  0.24537021546E+03  0.33167820542E+03  0.00000000000E+00 0.  1.
         11    1    1    2    0    0  0.11465070856E+03 -0.36318094436E+02  0.17595356585E+03  0.21312776988E+03  0.00000000000E+00 0. -1.
<mgrwt>
<rscale>  0 0.35307500E+03</rscale>
<asrwt>0</asrwt>
<pdfrwt beam="1">  1        1 0.17385250E+00 0.35567171E+03</pdfrwt>
<pdfrwt beam="2">  1       -1 0.17018960E-01 0.35567171E+03</pdfrwt>
<totfact> 0.33535453E+02</totfact>
</mgrwt>
</event>
<event>
 6    1  0.7457796E-006  0.1301616E+03  0.7546771E-02  0.1243933E+00
          1   -1    0    0  501    0  0.00000000000E+00  0.00000000000E+00  0.47851239211E+03  0.47851239211E+03  0.00000000000E+00 0. -1.
         -1   -1    0    0    0  501 -0.00000000000E+00 -0.00000000000E+00 -0.27816508920E+02  0.27816508920E+02  0.00000000000E+00 0.  1.
          5    1    1    2  502    0  0.58806435753E+02  0.31984358217E+02  0.61330589768E+02  0.90910545582E+02  0.47000000000E+01 0. -1.
         -5    1    1    2    0  502 -0.51916996390E+02  0.36502125251E+01  0.13385878963E+03  0.14369747433E+03  0.47000000000E+01 0. -1.
        -11    1    1    2    0    0  0.33322368707E+02  0.40991605729E+01  0.12635015340E+03  0.13073463443E+03  0.00000000000E+00 0. -1.
         11    1    1    2    0    0 -0.40211808070E+02 -0.39733731315E+02  0.12915635038E+03  0.14098624669E+03  0.00000000000E+00 0.  1.
<mgrwt>
<rscale>  0 0.11949488E+03</rscale>
<asrwt>0</asrwt>
<pdfrwt beam="1">  1        1 0.73617285E-01 0.13016155E+03</pdfrwt>
<pdfrwt beam="2">  1       -1 0.42794633E-02 0.13016155E+03</pdfrwt>
<totfact> 0.10098791E+04</totfact>
</mgrwt>
</event>
<event>
 6    1  0.7457796E-006  0.1339951E+03  0.7546771E-02  0.1233116E+00
          1   -1    0    0  501    0  0.00000000000E+00  0.00000000000E+00  0.67711406810E+03  0.67711406810E+03  0.00000000000E+00 0.  1.
         -1   -1    0    0    0  501 -0.00000000000E+00 -0.00000000000E+00 -0.21518811360E+02  0.21518811360E+02  0.00000000000E+00 0. -1.
          5    1    1    2  502    0 -0.85535397777E+02  0.84452889460E+01  0.34438346905E+03  0.35497843728E+03  0.47000000000E+01 0. -1.
         -5    1    1    2    0  502  0.38411959847E+02  0.19652135031E+01  0.63895694692E+02  0.74726772468E+02  0.47000000000E+01 0. -1.
        -11    1    1    2    0    0 -0.11312999187E+02 -0.35929273418E+02  0.57974361285E+02  0.69136988691E+02  0.00000000000E+00 0.  1.
         11    1    1    2    0    0  0.58436437117E+02  0.25518770969E+02  0.18934173171E+03  0.19979068102E+03  0.00000000000E+00 0. -1.
<mgrwt>
<rscale>  0 0.12625814E+03</rscale>
<asrwt>0</asrwt>
<pdfrwt beam="1">  1        1 0.10417138E+00 0.13399512E+03</pdfrwt>
<pdfrwt beam="2">  1       -1 0.33105869E-02 0.13399512E+03</pdfrwt>
<totfact> 0.92399054E+03</totfact>
</mgrwt>
</event>
<event>
 6    1  0.7550963E-006  0.2033830E+03  0.7546771E-02  0.1153002E+00
         -1   -1    0    0    0  501 -0.00000000000E+00  0.00000000000E+00  0.17004173364E+03  0.17004173364E+03  0.00000000000E+00 0.  1.
          1   -1    0    0  501    0  0.00000000000E+00 -0.00000000000E+00 -0.21633757378E+03  0.21633757378E+03  0.00000000000E+00 0. -1.
          5    1    1    2  502    0  0.76076859904E+02 -0.89772540124E+02 -0.52674093048E+02  0.12900948667E+03  0.47000000000E+01 0. -1.
         -5    1    1    2    0  502  0.56886310103E+01 -0.48264471418E+02  0.56141810164E+02  0.74403041420E+02  0.47000000000E+01 0. -1.
        -11    1    1    2    0    0 -0.77406843797E+02  0.60225969073E+02 -0.25356298073E+02  0.10130117803E+03  0.00000000000E+00 0.  1.
         11    1    1    2    0    0 -0.43586471178E+01  0.77811042470E+02 -0.24407259181E+02  0.81665601300E+02  0.00000000000E+00 0. -1.
<mgrwt>
<rscale>  0 0.19618098E+03</rscale>
<asrwt>0</asrwt>
<pdfrwt beam="2">  1        1 0.33282704E-01 0.20338297E+03</pdfrwt>
<pdfrwt beam="1">  1       -1 0.26160267E-01 0.20338297E+03</pdfrwt>
<totfact> 0.16974734E+03</totfact>
</mgrwt>
</event>
<event>
 6    1  0.7457796E-006  0.1255514E+03  0.7546771E-02  0.1249553E+00
         -2   -1    0    0    0  501 -0.00000000000E+00  0.00000000000E+00  0.22914002746E+02  0.22914002746E+02  0.00000000000E+00 0.  1.
          2   -1    0    0  501    0  0.00000000000E+00 -0.00000000000E+00 -0.51662707335E+03  0.51662707335E+03  0.00000000000E+00 0. -1.
          5    1    1    2  502    0  0.43035237577E+02 -0.26020585032E+02 -0.24326045231E+03  0.24844886834E+03  0.47000000000E+01 0. -1.
         -5    1    1    2    0  502 -0.43087515249E+02  0.14249470094E+02 -0.37332493709E+02  0.58952408389E+02  0.47000000000E+01 0. -1.
        -11    1    1    2    0    0  0.81593745943E+01 -0.35323803161E+02 -0.47447242233E+02  0.59712538541E+02  0.00000000000E+00 0. -1.
         11    1    1    2    0    0 -0.81070969220E+01  0.47094918098E+02 -0.16567288235E+03  0.17242726083E+03  0.00000000000E+00 0.  1.
<mgrwt>
<rscale>  0 0.11616978E+03</rscale>
<asrwt>0</asrwt>
<pdfrwt beam="2">  1        2 0.79481088E-01 0.12555136E+03</pdfrwt>
<pdfrwt beam="1">  1       -2 0.35252312E-02 0.12555136E+03</pdfrwt>
<totfact> 0.18668965E+04</totfact>
</mgrwt>
</event>
<event>
 6    1  0.7457796E-006  0.1588141E+03  0.7546771E-02  0.1197924E+00
          2   -1    0    0  501    0  0.00000000000E+00  0.00000000000E+00  0.67953507833E+03  0.67953507833E+03  0.00000000000E+00 0. -1.
         -2   -1    0    0    0  501 -0.00000000000E+00 -0.00000000000E+00 -0.34201930959E+02  0.34201930959E+02  0.00000000000E+00 0.  1.
          5    1    1    2  502    0 -0.28737071085E+02 -0.10756473514E+02 -0.29493763172E+00  0.31043485068E+02  0.47000000000E+01 0.  1.
         -5    1    1    2    0  502  0.16755493033E+02 -0.86483934818E+02  0.24777984242E+03  0.26301550874E+03  0.47000000000E+01 0.  1.
        -11    1    1    2    0    0 -0.15692373387E+02 -0.67069208057E+01  0.17630818473E+02  0.24537300773E+02  0.00000000000E+00 0.  1.
         11    1    1    2    0    0  0.27673951438E+02  0.10394732914E+03  0.38021742410E+03  0.39514071470E+03  0.00000000000E+00 0. -1.
<mgrwt>
<rscale>  0 0.15209349E+03</rscale>
<asrwt>0</asrwt>
<pdfrwt beam="1">  1        2 0.10454385E+00 0.15881409E+03</pdfrwt>
<pdfrwt beam="2">  1       -2 0.52618360E-02 0.15881409E+03</pdfrwt>
<totfact> 0.76404550E+03</totfact>
</mgrwt>
</event>
<event>
 6    1  0.7457796E-006  0.1355067E+03  0.7546771E-02  0.1231417E+00
          1   -1    0    0  501    0  0.00000000000E+00  0.00000000000E+00  0.52887348013E+03  0.52887348013E+03  0.00000000000E+00 0. -1.
         -1   -1    0    0    0  501 -0.00000000000E+00 -0.00000000000E+00 -0.27742817958E+02  0.27742817958E+02  0.00000000000E+00 0.  1.
          5    1    1    2  502    0 -0.71485204349E+01  0.71908259209E+02  0.92718090857E+02  0.11764622161E+03  0.47000000000E+01 0. -1.
         -5    1    1    2    0  502  0.42356359152E+02 -0.33209599995E+02  0.16354126174E+03  0.17223464514E+03  0.47000000000E+01 0. -1.
        -11    1    1    2    0    0 -0.65310853302E+02 -0.34481805017E+02  0.19250820716E+03  0.20618902071E+03  0.00000000000E+00 0. -1.
         11    1    1    2    0    0  0.30103014585E+02 -0.42168541972E+01  0.52363102406E+02  0.60546410628E+02  0.00000000000E+00 0.  1.
<mgrwt>
<rscale>  0 0.12736617E+03</rscale>
<asrwt>0</asrwt>
<pdfrwt beam="1">  1        1 0.81365144E-01 0.13550668E+03</pdfrwt>
<pdfrwt beam="2">  1       -1 0.42681262E-02 0.13550668E+03</pdfrwt>
<totfact> 0.89220275E+03</totfact>
</mgrwt>
</event>
<event>
 6    1  0.7457796E-006  0.1951896E+03  0.7546771E-02  0.1158272E+00
          2   -1    0    0  501    0  0.00000000000E+00  0.00000000000E+00  0.56787978584E+03  0.56787978584E+03  0.00000000000E+00 0. -1.
         -2   -1    0    0    0  501 -0.00000000000E+00 -0.00000000000E+00 -0.69529680530E+02  0.69529680530E+02  0.00000000000E+00 0.  1.
          5    1    1    2  502    0  0.42432333641E+02 -0.21820893493E+02  0.27613012390E+03  0.28026164500E+03  0.47000000000E+01 0.  1.
         -5    1    1    2    0  502  0.93643169867E+02 -0.41085721899E+02  0.97951755503E+02  0.14168174269E+03  0.47000000000E+01 0.  1.
        -11    1    1    2    0    0 -0.24336671446E+02 -0.17405767743E+02 -0.19578871371E+00  0.29921107283E+02  0.00000000000E+00 0.  1.
         11    1    1    2    0    0 -0.11173883206E+03  0.80312383135E+02  0.12446401462E+03  0.18554497140E+03  0.00000000000E+00 0. -1.
<mgrwt>
<rscale>  0 0.19020983E+03</rscale>
<asrwt>0</asrwt>
<pdfrwt beam="1">  1        2 0.87366118E-01 0.19518957E+03</pdfrwt>
<pdfrwt beam="2">  1       -2 0.10696874E-01 0.19518957E+03</pdfrwt>
<totfact> 0.31629865E+03</totfact>
</mgrwt>
</event>
<event>
 6    1  0.7457796E-006  0.3318695E+03  0.7546771E-02  0.1070313E+00
         -3   -1    0    0    0  501 -0.00000000000E+00  0.00000000000E+00  0.82146941766E+03  0.82146941766E+03  0.00000000000E+00 0. -1.
          3   -1    0    0  501    0  0.00000000000E+00 -0.00000000000E+00 -0.33518395803E+02  0.33518395803E+02  0.00000000000E+00 0.  1.
          5    1    1    2  502    0  0.39062329321E+02  0.10248583539E+02  0.14216193802E+03  0.14786144074E+03  0.47000000000E+01 0. -1.
         -5    1    1    2    0  502 -0.91346888000E+02 -0.28784068458E+01  0.53283522737E+03  0.54063666977E+03  0.47000000000E+01 0. -1.
        -11    1    1    2    0    0  0.26865821398E+02  0.50854186553E+02  0.41793312694E+02  0.71095721638E+02  0.00000000000E+00 0.  1.
         11    1    1    2    0    0  0.25418737281E+02 -0.58224363246E+02  0.71160543765E+02  0.95393981306E+02  0.00000000000E+00 0. -1.
<mgrwt>
<rscale>  0 0.33186947E+03</rscale>
<asrwt>0</asrwt>
<pdfrwt beam="2">  1        3 0.51566769E-02 0.33186947E+03</pdfrwt>
<pdfrwt beam="1">  1       -3 0.12637990E+00 0.33186947E+03</pdfrwt>
<totfact> 0.29099654E+02</totfact>
</mgrwt>
</event>
<event>
 6    1  0.7457796E-006  0.1379800E+03  0.7546771E-02  0.1227479E+00
          1   -1    0    0  501    0  0.00000000000E+00  0.00000000000E+00  0.12274880762E+03  0.12274880762E+03  0.00000000000E+00 0. -1.
         -1   -1    0    0    0  501 -0.00000000000E+00 -0.00000000000E+00 -0.12415861623E+03  0.12415861623E+03  0.00000000000E+00 0.  1.
          5    1    1    2  502    0 -0.32767898960E+02 -0.45346441651E+01 -0.35191517610E+02  0.48526602103E+02  0.47000000000E+01 0.  1.
         -5    1    1    2    0  502  0.78458153050E+02 -0.31887209384E+02  0.28866788006E+02  0.89598311100E+02  0.47000000000E+01 0.  1.
        -11    1    1    2    0    0 -0.45580976789E+02  0.17972039166E+02 -0.38042159722E+02  0.62030843563E+02  0.00000000000E+00 0.  1.
         11    1    1    2    0    0 -0.10927730115E+00  0.18449814383E+02  0.42957080715E+02  0.46751667092E+02  0.00000000000E+00 0. -1.
<mgrwt>
<rscale>  0 0.12998434E+03</rscale>
<asrwt>0</asrwt>
<pdfrwt beam="1">  1        1 0.18884432E-01 0.13798003E+03</pdfrwt>
<pdfrwt beam="2">  1       -1 0.19101326E-01 0.13798003E+03</pdfrwt>
<totfact> 0.57024259E+03</totfact>
</mgrwt>
</event>
<event>
 6    1  0.7457796E-006  0.1302886E+03  0.7546771E-02  0.1240610E+00
         -2   -1    0    0    0  501 -0.00000000000E+00  0.00000000000E+00  0.55179197447E+02  0.55179197447E+02  0.00000000000E+00 0.  1.
          2   -1    0    0  501    0  0.00000000000E+00 -0.00000000000E+00 -0.23880446397E+03  0.23880446397E+03  0.00000000000E+00 0. -1.
          5    1    1    2  502    0  0.25036386009E+02 -0.52638221272E+02 -0.70046077172E+01  0.58896158554E+02  0.47000000000E+01 0.  1.
         -5    1    1    2    0  502 -0.47512018819E+02  0.23566781378E+02 -0.86126526576E+02  0.10125538848E+03  0.47000000000E+01 0.  1.
        -11    1    1    2    0    0  0.10733298872E+02  0.55515862037E+02 -0.24211608014E+02  0.61509483862E+02  0.00000000000E+00 0.  1.
         11    1    1    2    0    0  0.11742333938E+02 -0.26444422143E+02 -0.66282524216E+02  0.72322630520E+02  0.00000000000E+00 0. -1.
<mgrwt>
<rscale>  0 0.12152016E+03</rscale>
<asrwt>0</asrwt>
<pdfrwt beam="2">  1        2 0.36739148E-01 0.13028856E+03</pdfrwt>
<pdfrwt beam="1">  1       -2 0.84891073E-02 0.13028856E+03</pdfrwt>
<totfact> 0.11338489E+04</totfact>
</mgrwt>
</event>
<event>
 6    1  0.7457796E-006  0.1257728E+03  0.7546771E-02  0.1243591E+00
         -2   -1    0    0    0  501 -0.00000000000E+00  0.00000000000E+00  0.71815731072E+02  0.71815731072E+02  0.00000000000E+00 0.  1.
          2   -1    0    0  501    0  0.00000000000E+00 -0.00000000000E+00 -0.26016799633E+03  0.26016799633E+03  0.00000000000E+00 0. -1.
          5    1    1    2  502    0 -0.14474208561E+02 -0.20097853584E+02 -0.49507519878E+02  0.55556376381E+02  0.47000000000E+01 0. -1.
         -5    1    1    2    0  502  0.58570062589E+02 -0.44770977191E+00  0.39203932745E+02  0.70637744998E+02  0.47000000000E+01 0.  1.
        -11    1    1    2    0    0  0.10957623844E+02 -0.65179136631E+01  0.42551585910E+01  0.13440948384E+02  0.00000000000E+00 0.  1.
         11    1    1    2    0    0 -0.55053477871E+02  0.27063477019E+02 -0.18230383671E+03  0.19234865763E+03  0.00000000000E+00 0. -1.
<mgrwt>
<rscale>  0 0.11970124E+03</rscale>
<asrwt>0</asrwt>
<pdfrwt beam="2">  1        2 0.40025846E-01 0.12577278E+03</pdfrwt>
<pdfrwt beam="1">  1       -2 0.11048574E-01 0.12577278E+03</pdfrwt>
<totfact> 0.68343879E+03</totfact>
</mgrwt>
</event>
<event>
 6    1  0.7457796E-006  0.1345445E+03  0.7546771E-02  0.1233660E+00
          2   -1    0    0  501    0  0.00000000000E+00  0.00000000000E+00  0.55362819289E+02  0.55362819289E+02  0.00000000000E+00 0. -1.
         -2   -1    0    0    0  501 -0.00000000000E+00 -0.00000000000E+00 -0.27247460188E+03  0.27247460188E+03  0.00000000000E+00 0.  1.
          5    1    1    2  502    0  0.66343885518E+02 -0.49773782359E+01 -0.10464650275E+03  0.12409377897E+03  0.47000000000E+01 0. -1.
         -5    1    1    2    0  502 -0.42584090517E+02  0.48708198532E+02 -0.58268585449E+02  0.87196395681E+02  0.47000000000E+01 0. -1.
        -11    1    1    2    0    0  0.17629698604E+02  0.14295807862E+02  0.57495303608E+01  0.23414386490E+02  0.00000000000E+00 0. -1.
         11    1    1    2    0    0 -0.41389493605E+02 -0.58026628159E+02 -0.59946224752E+02  0.93132860035E+02  0.00000000000E+00 0.  1.
<mgrwt>
<rscale>  0 0.12590633E+03</rscale>
<asrwt>0</asrwt>
<pdfrwt beam="1">  1        2 0.85173568E-02 0.13454446E+03</pdfrwt>
<pdfrwt beam="2">  1       -2 0.41919170E-01 0.13454446E+03</pdfrwt>
<totfact> 0.40715621E+03</totfact>
</mgrwt>
</event>
<event>
 6    1  0.7457796E-006  0.1304062E+03  0.7546771E-02  0.1241055E+00
          2   -1    0    0  501    0  0.00000000000E+00  0.00000000000E+00  0.32109175578E+03  0.32109175578E+03  0.00000000000E+00 0. -1.
         -2   -1    0    0    0  501 -0.00000000000E+00 -0.00000000000E+00 -0.40678255241E+02  0.40678255241E+02  0.00000000000E+00 0.  1.
          5    1    1    2  502    0  0.29827070993E+02  0.70548424578E+02  0.10072576133E+03  0.12662741950E+03  0.47000000000E+01 0.  1.
         -5    1    1    2    0  502  0.23908043646E+01 -0.52000449999E+02  0.45463619000E+02  0.69273323857E+02  0.47000000000E+01 0.  1.
        -11    1    1    2    0    0 -0.33765047744E+02  0.30934635015E+02  0.47299371682E+02  0.65835101991E+02  0.00000000000E+00 0.  1.
         11    1    1    2    0    0  0.15471723867E+01 -0.49482609594E+02  0.86924748529E+02  0.10003416567E+03  0.00000000000E+00 0. -1.
<mgrwt>
<rscale>  0 0.12124645E+03</rscale>
<asrwt>0</asrwt>
<pdfrwt beam="1">  1        2 0.49398730E-01 0.13040616E+03</pdfrwt>
<pdfrwt beam="2">  1       -2 0.62581934E-02 0.13040616E+03</pdfrwt>
<totfact> 0.13221389E+04</totfact>
</mgrwt>
</event>
<event>
 6    1  0.7457796E-006  0.1340117E+03  0.7546771E-02  0.1234728E+00
         -1   -1    0    0    0  501 -0.00000000000E+00  0.00000000000E+00  0.14087593844E+03  0.14087593844E+03  0.00000000000E+00 0.  1.
          1   -1    0    0  501    0  0.00000000000E+00 -0.00000000000E+00 -0.10533833242E+03  0.10533833242E+03  0.00000000000E+00 0. -1.
          5    1    1    2  502    0  0.31614815328E+02 -0.26596311807E+02  0.29145953450E+01  0.41682672851E+02  0.47000000000E+01 0. -1.
         -5    1    1    2    0  502 -0.67777549934E+02  0.58644015605E+02  0.47099880088E+02  0.10135780950E+03  0.47000000000E+01 0. -1.
        -11    1    1    2    0    0  0.30839426765E+02 -0.50244338560E+02  0.21300029076E+02  0.62683770141E+02  0.00000000000E+00 0.  1.
         11    1    1    2    0    0  0.53233078410E+01  0.18196634761E+02 -0.35776898484E+02  0.40490018377E+02  0.00000000000E+00 0. -1.
<mgrwt>
<rscale>  0 0.12521889E+03</rscale>
<asrwt>0</asrwt>
<pdfrwt beam="2">  1        1 0.16205897E-01 0.13401169E+03</pdfrwt>
<pdfrwt beam="1">  1       -1 0.21673221E-01 0.13401169E+03</pdfrwt>
<totfact> 0.56516015E+03</totfact>
</mgrwt>
</event>
<event>
 6    1  0.7457796E-006  0.2507407E+03  0.7546771E-02  0.1112838E+00
          2   -1    0    0  501    0  0.00000000000E+00  0.00000000000E+00  0.21003354991E+03  0.21003354991E+03  0.00000000000E+00 0.  1.
         -2   -1    0    0    0  501 -0.00000000000E+00 -0.00000000000E+00 -0.74834336444E+02  0.74834336444E+02  0.00000000000E+00 0. -1.
          5    1    1    2  502    0  0.27265061284E+01 -0.40610908662E+02  0.19305237078E+02  0.45293066982E+02  0.47000000000E+01 0.  1.
         -5    1    1    2    0  502  0.14466334654E+02  0.94650662205E+02  0.26520856871E+02  0.99465916491E+02  0.47000000000E+01 0.  1.
        -11    1    1    2    0    0 -0.37965769706E+02 -0.14744764957E+02  0.86451667729E+02  0.95565153776E+02  0.00000000000E+00 0.  1.
         11    1    1    2    0    0  0.20772928923E+02 -0.39294988586E+02  0.29214517903E+01  0.44543749108E+02  0.00000000000E+00 0. -1.
<mgrwt>
<rscale>  0 0.25074067E+03</rscale>
<asrwt>0</asrwt>
<pdfrwt beam="1">  1        2 0.32312854E-01 0.25074067E+03</pdfrwt>
<pdfrwt beam="2">  1       -2 0.11512975E-01 0.25074067E+03</pdfrwt>
<totfact> 0.84214351E+03</totfact>
</mgrwt>
</event>
<event>
 6    1  0.7457796E-006  0.1273000E+03  0.7546771E-02  0.1246819E+00
          1   -1    0    0  501    0  0.00000000000E+00  0.00000000000E+00  0.75152899472E+03  0.75152899472E+03  0.00000000000E+00 0. -1.
         -1   -1    0    0    0  501 -0.00000000000E+00 -0.00000000000E+00 -0.16273040151E+02  0.16273040151E+02  0.00000000000E+00 0.  1.
          5    1    1    2  502    0 -0.38948667871E+02 -0.60456888647E+02  0.18183712714E+03  0.19559873445E+03  0.47000000000E+01 0.  1.
         -5    1    1    2    0  502  0.36735431983E+02  0.36385241911E+02  0.21383394820E+03  0.22004641600E+03  0.47000000000E+01 0.  1.
        -11    1    1    2    0    0  0.24502099758E+02 -0.27643648288E+02  0.13564758580E+03  0.14058730995E+03  0.00000000000E+00 0.  1.
         11    1    1    2    0    0 -0.22288863871E+02  0.51715295024E+02  0.20393729343E+03  0.21156957447E+03  0.00000000000E+00 0. -1.
<mgrwt>
<rscale>  0 0.11777141E+03</rscale>
<asrwt>0</asrwt>
<pdfrwt beam="1">  1        1 0.11561982E+00 0.12730000E+03</pdfrwt>
<pdfrwt beam="2">  1       -1 0.25035452E-02 0.12730000E+03</pdfrwt>
<totfact> 0.11896981E+04</totfact>
</mgrwt>
</event>
<event>
 6    1  0.7457796E-006  0.1412218E+03  0.7546771E-02  0.1222804E+00
         -2   -1    0    0    0  501 -0.00000000000E+00  0.00000000000E+00  0.15523587380E+03  0.15523587380E+03  0.00000000000E+00 0.  1.
          2   -1    0    0  501    0  0.00000000000E+00 -0.00000000000E+00 -0.10335460843E+03  0.10335460843E+03  0.00000000000E+00 0. -1.
          5    1    1    2  502    0 -0.85496715042E+02 -0.52977773633E+02  0.12276149020E+02  0.10143533219E+03  0.47000000000E+01 0. -1.
         -5    1    1    2    0  502  0.39638505981E+02  0.59011249826E+01  0.95291122671E+01  0.41459961566E+02  0.47000000000E+01 0. -1.
        -11    1    1    2    0    0  0.47659919894E+02  0.32479415293E+02  0.59459568269E+02  0.82836107108E+02  0.00000000000E+00 0.  1.
         11    1    1    2    0    0 -0.18017108323E+01  0.14597233358E+02 -0.29383564191E+02  0.32859081366E+02  0.00000000000E+00 0. -1.
<mgrwt>
<rscale>  0 0.13318541E+03</rscale>
<asrwt>0</asrwt>
<pdfrwt beam="2">  1        2 0.15900709E-01 0.14122180E+03</pdfrwt>
<pdfrwt beam="1">  1       -2 0.23882442E-01 0.14122180E+03</pdfrwt>
<totfact> 0.53472489E+03</totfact>
</mgrwt>
</event>
<event>
 6    1  0.7457796E-006  0.1283222E+03  0.7546771E-02  0.1244301E+00
          2   -1    0    0  501    0  0.00000000000E+00  0.00000000000E+00  0.10918761205E+03  0.10918761205E+03  0.00000000000E+00 0. -1.
         -2   -1    0    0    0  501 -0.00000000000E+00 -0.00000000000E+00 -0.12433568562E+03  0.12433568562E+03  0.00000000000E+00 0.  1.
          5    1    1    2  502    0 -0.19206356534E+02  0.17138770083E+02 -0.75099748524E+02  0.79527880644E+02  0.47000000000E+01 0. -1.
         -5    1    1    2    0  502  0.42286326012E+02  0.38445844438E+00  0.34806754833E+02  0.54971641397E+02  0.47000000000E+01 0. -1.
        -11    1    1    2    0    0  0.29259097874E+02  0.16214060998E+02  0.10413721627E+02  0.35034785293E+02  0.00000000000E+00 0. -1.
         11    1    1    2    0    0 -0.52339067352E+02 -0.33737289526E+02  0.14731198493E+02  0.63988990341E+02  0.00000000000E+00 0.  1.
<mgrwt>
<rscale>  0 0.11927323E+03</rscale>
<asrwt>0</asrwt>
<pdfrwt beam="1">  1        2 0.16798094E-01 0.12832224E+03</pdfrwt>
<pdfrwt beam="2">  1       -2 0.19128567E-01 0.12832224E+03</pdfrwt>
<totfact> 0.72804331E+03</totfact>
</mgrwt>
</event>
<event>
 6    1  0.7457796E-006  0.1449480E+03  0.7546771E-02  0.1217429E+00
          1   -1    0    0  501    0  0.00000000000E+00  0.00000000000E+00  0.83385079161E+02  0.83385079161E+02  0.00000000000E+00 0. -1.
         -1   -1    0    0    0  501 -0.00000000000E+00 -0.00000000000E+00 -0.20436716933E+03  0.20436716933E+03  0.00000000000E+00 0.  1.
          5    1    1    2  502    0 -0.32382932149E+01  0.19239014894E+02  0.34373770032E+02  0.39802918276E+02  0.47000000000E+01 0. -1.
         -5    1    1    2    0  502  0.21659368337E+02  0.51806133273E+02 -0.11022356684E+03  0.12379147131E+03  0.47000000000E+01 0. -1.
        -11    1    1    2    0    0 -0.22043658139E+02  0.69087854958E+01  0.13310896159E+02  0.26661472910E+02  0.00000000000E+00 0. -1.
         11    1    1    2    0    0  0.36225830163E+01 -0.77953933663E+02 -0.58443189512E+02  0.97496385992E+02  0.00000000000E+00 0.  1.
<mgrwt>
<rscale>  0 0.13699640E+03</rscale>
<asrwt>0</asrwt>
<pdfrwt beam="1">  1        1 0.12828474E-01 0.14494803E+03</pdfrwt>
<pdfrwt beam="2">  1       -1 0.31441103E-01 0.14494803E+03</pdfrwt>
<totfact> 0.41587360E+03</totfact>
</mgrwt>
</event>
<event>
 6    1  0.7457796E-006  0.2079287E+03  0.7546771E-02  0.1146973E+00
         -2   -1    0    0    0  501 -0.00000000000E+00  0.00000000000E+00  0.23338043846E+02  0.23338043846E+02  0.00000000000E+00 0. -1.
          2   -1    0    0  501    0  0.00000000000E+00 -0.00000000000E+00 -0.17218951126E+04  0.17218951126E+04  0.00000000000E+00 0.  1.
          5    1    1    2  502    0  0.70986134226E+02  0.19329085666E+02 -0.46263009209E+03  0.46846700728E+03  0.47000000000E+01 0. -1.
         -5    1    1    2    0  502  0.25911607837E+02  0.11568904798E+03 -0.31912301643E+03  0.34046579396E+03  0.47000000000E+01 0. -1.
        -11    1    1    2    0    0 -0.98772795620E+02 -0.11575228806E+03 -0.89175137072E+03  0.90464090363E+03  0.00000000000E+00 0.  1.
         11    1    1    2    0    0  0.18750535567E+01 -0.19265845583E+02 -0.25052589485E+02  0.31659451539E+02  0.00000000000E+00 0. -1.
<mgrwt>
<rscale>  0 0.20331417E+03</rscale>
<asrwt>0</asrwt>
<pdfrwt beam="2">  1        2 0.26490702E+00 0.20792872E+03</pdfrwt>
<pdfrwt beam="1">  1       -2 0.35904672E-02 0.20792872E+03</pdfrwt>
<totfact> 0.33618869E+03</totfact>
</mgrwt>
</event>
<event>
 6    1  0.7457796E-006  0.1434439E+03  0.7546771E-02  0.1220283E+00
          1   -1    0    0  501    0  0.00000000000E+00  0.00000000000E+00  0.18440550084E+02  0.18440550084E+02  0.00000000000E+00 0. -1.
         -1   -1    0    0    0  501 -0.00000000000E+00 -0.00000000000E+00 -0.11341769349E+04  0.11341769349E+04  0.00000000000E+00 0.  1.
          5    1    1    2  502    0  0.18918290428E+02 -0.30965121131E+01 -0.55747602649E+03  0.55782533127E+03  0.47000000000E+01 0.  1.
         -5    1    1    2    0  502 -0.63814288083E+02  0.57216412818E+02 -0.32069704841E+03  0.33198594566E+03  0.47000000000E+01 0.  1.
        -11    1    1    2    0    0 -0.46478637588E+00 -0.14801820420E+02  0.27903178996E+01  0.15069697677E+02  0.00000000000E+00 0. -1.
         11    1    1    2    0    0  0.45360784031E+02 -0.39318080285E+02 -0.24035362780E+03  0.24773651035E+03  0.00000000000E+00 0.  1.
<mgrwt>
<rscale>  0 0.13495543E+03</rscale>
<asrwt>0</asrwt>
<pdfrwt beam="1">  1        1 0.28370084E-02 0.14344392E+03</pdfrwt>
<pdfrwt beam="2">  1       -1 0.17448872E+00 0.14344392E+03</pdfrwt>
<totfact> 0.90799789E+02</totfact>
</mgrwt>
</event>
<event>
 6    1  0.7457796E-006  0.1754518E+03  0.7546771E-02  0.1176377E+00
         -1   -1    0    0    0  501 -0.00000000000E+00  0.00000000000E+00  0.36283392271E+02  0.36283392271E+02  0.00000000000E+00 0.  1.
          1   -1    0    0  501    0  0.00000000000E+00 -0.00000000000E+00 -0.79324923368E+03  0.79324923368E+03  0.00000000000E+00 0. -1.
          5    1    1    2  502    0  0.11777087091E+03 -0.23661766023E+02 -0.18638885267E+03  0.22179439038E+03  0.47000000000E+01 0. -1.
         -5    1    1    2    0  502 -0.64875249131E+01 -0.48530840236E+02 -0.14593430681E+03  0.15400078681E+03  0.47000000000E+01 0.  1.
        -11    1    1    2    0    0 -0.11824241489E+03  0.39885402564E+02 -0.30312914488E+03  0.32780999450E+03  0.00000000000E+00 0.  1.
         11    1    1    2    0    0  0.69590688971E+01  0.32307203695E+02 -0.12151353704E+03  0.12592745426E+03  0.00000000000E+00 0. -1.
<mgrwt>
<rscale>  0 0.17141765E+03</rscale>
<asrwt>0</asrwt>
<pdfrwt beam="2">  1        1 0.12203835E+00 0.17545180E+03</pdfrwt>
<pdfrwt beam="1">  1       -1 0.55820599E-02 0.17545180E+03</pdfrwt>
<totfact> 0.34325743E+03</totfact>
</mgrwt>
</event>
<event>
 6    1  0.7457796E-006  0.2455251E+03  0.7546771E-02  0.1118835E+00
         -1   -1    0    0    0  501 -0.00000000000E+00  0.00000000000E+00  0.57377634575E+02  0.57377634575E+02  0.00000000000E+00 0.  1.
          1   -1    0    0  501    0  0.00000000000E+00 -0.00000000000E+00 -0.98358534823E+03  0.98358534823E+03  0.00000000000E+00 0. -1.
          5    1    1    2  502    0  0.65005044174E+02 -0.87333696655E+02 -0.16374787227E+03  0.19669338070E+03  0.47000000000E+01 0.  1.
         -5    1    1    2    0  502  0.13121027827E+03  0.88488374388E+01 -0.31379038285E+03  0.34026597452E+03  0.47000000000E+01 0.  1.
        -11    1    1    2    0    0 -0.47467863390E+02 -0.22881370740E+01 -0.41647959814E+02  0.63190079781E+02  0.00000000000E+00 0.  1.
         11    1    1    2    0    0 -0.14874745905E+03  0.80772996290E+02 -0.40702149873E+03  0.44081354781E+03  0.00000000000E+00 0. -1.
<mgrwt>
<rscale>  0 0.24144269E+03</rscale>
<asrwt>0</asrwt>
<pdfrwt beam="2">  1        1 0.15132081E+00 0.24552508E+03</pdfrwt>
<pdfrwt beam="1">  1       -1 0.88273291E-02 0.24552508E+03</pdfrwt>
<totfact> 0.12186920E+03</totfact>
</mgrwt>
</event>
<event>
 6    1  0.7457796E-006  0.1282141E+03  0.7546771E-02  0.1245553E+00
          1   -1    0    0  501    0  0.00000000000E+00  0.00000000000E+00  0.55131968249E+02  0.55131968249E+02  0.00000000000E+00 0. -1.
         -1   -1    0    0    0  501 -0.00000000000E+00 -0.00000000000E+00 -0.26265519686E+03  0.26265519686E+03  0.00000000000E+00 0.  1.
          5    1    1    2  502    0  0.51301803224E+02 -0.16836068429E+02 -0.11966067703E+03  0.13136245979E+03  0.47000000000E+01 0. -1.
         -5    1    1    2    0  502 -0.65395005565E+02 -0.74523907325E+01 -0.58816290353E+02  0.88393952799E+02  0.47000000000E+01 0. -1.
        -11    1    1    2    0    0 -0.55009489519E+01  0.11691452558E+02 -0.58822827848E+02  0.60225207168E+02  0.00000000000E+00 0.  1.
         11    1    1    2    0    0  0.19594151292E+02  0.12597006604E+02  0.29776566618E+02  0.37805545358E+02  0.00000000000E+00 0. -1.
<mgrwt>
<rscale>  0 0.11852341E+03</rscale>
<asrwt>0</asrwt>
<pdfrwt beam="1">  1        1 0.84818414E-02 0.12821409E+03</pdfrwt>
<pdfrwt beam="2">  1       -1 0.40408491E-01 0.12821409E+03</pdfrwt>
<totfact> 0.46314536E+03</totfact>
</mgrwt>
</event>
<event>
 6    1  0.7457796E-006  0.1575600E+03  0.7546771E-02  0.1199424E+00
         -1   -1    0    0    0  501 -0.00000000000E+00  0.00000000000E+00  0.40998008531E+02  0.40998008531E+02  0.00000000000E+00 0.  1.
          1   -1    0    0  501    0  0.00000000000E+00 -0.00000000000E+00 -0.52075349047E+03  0.52075349047E+03  0.00000000000E+00 0. -1.
          5    1    1    2  502    0 -0.66054391780E+02  0.77310726389E+02 -0.15967420793E+03  0.18936228179E+03  0.47000000000E+01 0.  1.
         -5    1    1    2    0  502  0.51835666679E+02  0.17563245419E+02 -0.65939048454E+02  0.85822211815E+02  0.47000000000E+01 0.  1.
        -11    1    1    2    0    0 -0.28524151465E+02 -0.74978033432E+02 -0.11967809093E+03  0.14407698693E+03  0.00000000000E+00 0. -1.
         11    1    1    2    0    0  0.42742876565E+02 -0.19895938376E+02 -0.13446413462E+03  0.14249001846E+03  0.00000000000E+00 0.  1.
<mgrwt>
<rscale>  0 0.15085672E+03</rscale>
<asrwt>0</asrwt>
<pdfrwt beam="2">  1        1 0.80115920E-01 0.15756003E+03</pdfrwt>
<pdfrwt beam="1">  1       -1 0.63073861E-02 0.15756003E+03</pdfrwt>
<totfact> 0.51445857E+03</totfact>
</mgrwt>
</event>
<event>
 6    1  0.7457796E-006  0.1271641E+03  0.7546771E-02  0.1246751E+00
          1   -1    0    0  501    0  0.00000000000E+00  0.00000000000E+00  0.53819793957E+03  0.53819793957E+03  0.00000000000E+00 0. -1.
         -1   -1    0    0    0  501 -0.00000000000E+00 -0.00000000000E+00 -0.22669334215E+02  0.22669334215E+02  0.00000000000E+00 0.  1.
          5    1    1    2  502    0 -0.39466082720E+02 -0.19239015411E+02  0.21805529228E+03  0.22248126189E+03  0.47000000000E+01 0.  1.
         -5    1    1    2    0  502  0.43454391710E+02  0.42241306124E+02  0.72012954006E+02  0.94236763774E+02  0.47000000000E+01 0.  1.
        -11    1    1    2    0    0  0.27226750859E+02 -0.30716522576E+02  0.45251104314E+02  0.61093888100E+02  0.00000000000E+00 0.  1.
         11    1    1    2    0    0 -0.31215059848E+02  0.77142318631E+01  0.18020925475E+03  0.18305536002E+03  0.00000000000E+00 0. -1.
<mgrwt>
<rscale>  0 0.11781174E+03</rscale>
<asrwt>0</asrwt>
<pdfrwt beam="1">  1        1 0.82799673E-01 0.12716415E+03</pdfrwt>
<pdfrwt beam="2">  1       -1 0.34875903E-02 0.12716415E+03</pdfrwt>
<totfact> 0.11668444E+04</totfact>
</mgrwt>
</event>
<event>
 6    1  0.7457796E-006  0.2929590E+03  0.7546771E-02  0.1088814E+00
         -4   -1    0    0    0  501 -0.00000000000E+00  0.00000000000E+00  0.28155440784E+03  0.28155440784E+03  0.00000000000E+00 0.  1.
          4   -1    0    0  501    0  0.00000000000E+00 -0.00000000000E+00 -0.76206404987E+02  0.76206404987E+02  0.00000000000E+00 0. -1.
          5    1    1    2  502    0  0.21620713424E+02  0.19481211230E+01 -0.25958637062E+02  0.34164180994E+02  0.47000000000E+01 0. -1.
         -5    1    1    2    0  502  0.52412021906E+02  0.62079494749E+02  0.13778350045E+03  0.16002270685E+03  0.47000000000E+01 0. -1.
        -11    1    1    2    0    0 -0.62625887759E+02  0.52372371250E+01  0.54928496054E+02  0.83465981987E+02  0.00000000000E+00 0.  1.
         11    1    1    2    0    0 -0.11406847571E+02 -0.69264852997E+02  0.38594643406E+02  0.80107943001E+02  0.00000000000E+00 0. -1.
<mgrwt>
<rscale>  0 0.29295904E+03</rscale>
<asrwt>0</asrwt>
<pdfrwt beam="2">  1        4 0.11724062E-01 0.29295904E+03</pdfrwt>
<pdfrwt beam="1">  1       -4 0.43316062E-01 0.29295904E+03</pdfrwt>
<totfact> 0.56703998E+02</totfact>
</mgrwt>
</event>
<event>
 6    1  0.7457796E-006  0.4305759E+03  0.7546771E-02  0.1033678E+00
          1   -1    0    0  501    0  0.00000000000E+00  0.00000000000E+00  0.91803882073E+02  0.91803882073E+02  0.00000000000E+00 0. -1.
         -1   -1    0    0    0  501 -0.00000000000E+00 -0.00000000000E+00 -0.50486859531E+03  0.50486859531E+03  0.00000000000E+00 0.  1.
          5    1    1    2  502    0  0.91198642255E+02 -0.10116511203E+03 -0.38981451865E+03  0.41295159667E+03  0.47000000000E+01 0.  1.
         -5    1    1    2    0  502 -0.23237911972E+02 -0.53428123640E+01 -0.13530549864E+02  0.27815678607E+02  0.47000000000E+01 0.  1.
        -11    1    1    2    0    0 -0.57575904273E+02  0.30975049660E+02  0.27662646117E+02  0.70990565884E+02  0.00000000000E+00 0. -1.
         11    1    1    2    0    0 -0.10384826010E+02  0.75532874730E+02 -0.37382290839E+02  0.84914636222E+02  0.00000000000E+00 0.  1.
<mgrwt>
<rscale>  0 0.43057588E+03</rscale>
<asrwt>0</asrwt>
<pdfrwt beam="1">  1        1 0.14123674E-01 0.43057588E+03</pdfrwt>
<pdfrwt beam="2">  1       -1 0.77672093E-01 0.43057588E+03</pdfrwt>
<totfact> 0.70145169E+02</totfact>
</mgrwt>
</event>
<event>
 6    1  0.7457796E-006  0.1461197E+03  0.7546771E-02  0.1215746E+00
          1   -1    0    0  501    0  0.00000000000E+00  0.00000000000E+00  0.29651372276E+03  0.29651372276E+03  0.00000000000E+00 0. -1.
         -1   -1    0    0    0  501 -0.00000000000E+00 -0.00000000000E+00 -0.58372317603E+02  0.58372317603E+02  0.00000000000E+00 0.  1.
          5    1    1    2  502    0  0.26985571095E+02  0.89364585389E+02  0.68858734076E+02  0.11609420928E+03  0.47000000000E+01 0. -1.
         -5    1    1    2    0  502 -0.47063028189E+02 -0.16420606547E+02  0.65201336098E+02  0.82206259924E+02  0.47000000000E+01 0. -1.
        -11    1    1    2    0    0 -0.33705794033E+02 -0.33978636221E+02  0.27429353158E+02  0.55163372680E+02  0.00000000000E+00 0.  1.
         11    1    1    2    0    0  0.53783251127E+02 -0.38965342621E+02  0.76651981829E+02  0.10142219849E+03  0.00000000000E+00 0. -1.
<mgrwt>
<rscale>  0 0.13821865E+03</rscale>
<asrwt>0</asrwt>
<pdfrwt beam="1">  1        1 0.45617495E-01 0.14611972E+03</pdfrwt>
<pdfrwt beam="2">  1       -1 0.89803567E-02 0.14611972E+03</pdfrwt>
<totfact> 0.61447446E+03</totfact>
</mgrwt>
</event>
<event>
 6    1  0.7457796E-006  0.1264349E+03  0.7546771E-02  0.1248383E+00
         -2   -1    0    0    0  501 -0.00000000000E+00  0.00000000000E+00  0.79498662445E+03  0.79498662445E+03  0.00000000000E+00 0. -1.
          2   -1    0    0  501    0  0.00000000000E+00 -0.00000000000E+00 -0.15251222162E+02  0.15251222162E+02  0.00000000000E+00 0.  1.
          5    1    1    2  502    0 -0.19192050030E+02 -0.53683564661E+02  0.27844260123E+03  0.28425803784E+03  0.47000000000E+01 0. -1.
         -5    1    1    2    0  502  0.38146910978E+02  0.54792325731E+02  0.21882741402E+03  0.22883381067E+03  0.47000000000E+01 0. -1.
        -11    1    1    2    0    0 -0.16012779583E+02  0.42409689835E+02  0.18310997811E+03  0.18863789382E+03  0.00000000000E+00 0.  1.
         11    1    1    2    0    0 -0.29420813639E+01 -0.43518450906E+02  0.99355408934E+02  0.10850810429E+03  0.00000000000E+00 0. -1.
<mgrwt>
<rscale>  0 0.11685177E+03</rscale>
<asrwt>0</asrwt>
<pdfrwt beam="2">  1        2 0.23463425E-02 0.12643487E+03</pdfrwt>
<pdfrwt beam="1">  1       -2 0.12230560E+00 0.12643487E+03</pdfrwt>
<totfact> 0.22136338E+03</totfact>
</mgrwt>
</event>
<event>
 6    1  0.7457796E-006  0.1469889E+03  0.7546771E-02  0.1207381E+00
         -1   -1    0    0    0  501 -0.00000000000E+00  0.00000000000E+00  0.10516786989E+03  0.10516786989E+03  0.00000000000E+00 0.  1.
          1   -1    0    0  501    0  0.00000000000E+00 -0.00000000000E+00 -0.30440530495E+03  0.30440530495E+03  0.00000000000E+00 0. -1.
          5    1    1    2  502    0 -0.29117564220E+02  0.35583925899E+02  0.44465560525E+02  0.64135204072E+02  0.47000000000E+01 0.  1.
         -5    1    1    2    0  502  0.73562795250E+02 -0.77424332965E-01 -0.17647361801E+02  0.75795845652E+02  0.47000000000E+01 0.  1.
        -11    1    1    2    0    0  0.28709117983E+02  0.49602736048E+01 -0.55108122414E+00  0.29139688744E+02  0.00000000000E+00 0.  1.
         11    1    1    2    0    0 -0.73154349012E+02 -0.40466775171E+02 -0.22550455257E+03  0.24050243637E+03  0.00000000000E+00 0. -1.
<mgrwt>
<rscale>  0 0.14451413E+03</rscale>
<asrwt>0</asrwt>
<pdfrwt beam="2">  1        1 0.46831584E-01 0.14698886E+03</pdfrwt>
<pdfrwt beam="1">  1       -1 0.16179673E-01 0.14698886E+03</pdfrwt>
<totfact> 0.23922630E+03</totfact>
</mgrwt>
</event>
<event>
 6    1  0.7457796E-006  0.3077603E+03  0.7546771E-02  0.1082942E+00
          2   -1    0    0  501    0  0.00000000000E+00  0.00000000000E+00  0.88948149188E+03  0.88948149188E+03  0.00000000000E+00 0. -1.
         -2   -1    0    0    0  501 -0.00000000000E+00 -0.00000000000E+00 -0.11161018946E+03  0.11161018946E+03  0.00000000000E+00 0.  1.
          5    1    1    2  502    0  0.75389352105E+02 -0.10430665508E+03  0.19584032331E+03  0.23439060335E+03  0.47000000000E+01 0. -1.
         -5    1    1    2    0  502  0.71890154690E+02 -0.13527779609E+03  0.55650282796E+02  0.16305618796E+03  0.47000000000E+01 0. -1.
        -11    1    1    2    0    0 -0.12725790734E+03  0.19460746365E+03  0.34753994357E+03  0.41815147048E+03  0.00000000000E+00 0.  1.
         11    1    1    2    0    0 -0.20021599450E+02  0.44976987529E+02  0.17884075275E+03  0.18549341955E+03  0.00000000000E+00 0. -1.
<mgrwt>
<rscale>  0 0.30464413E+03</rscale>
<asrwt>0</asrwt>
<pdfrwt beam="1">  1        2 0.13684330E+00 0.30776034E+03</pdfrwt>
<pdfrwt beam="2">  1       -2 0.17170799E-01 0.30776034E+03</pdfrwt>
<totfact> 0.84311691E+02</totfact>
</mgrwt>
</event>
<event>
 6    1  0.7457796E-006  0.1389124E+03  0.7546771E-02  0.1236969E+00
         -1   -1    0    0    0  501 -0.00000000000E+00  0.00000000000E+00  0.70807275530E+02  0.70807275530E+02  0.00000000000E+00 0.  1.
          1   -1    0    0  501    0  0.00000000000E+00 -0.00000000000E+00 -0.19150389665E+03  0.19150389665E+03  0.00000000000E+00 0. -1.
          5    1    1    2  502    0 -0.48521802896E+02 -0.85863117544E+02 -0.25659355377E+02  0.10201633609E+03  0.47000000000E+01 0.  1.
         -5    1    1    2    0  502  0.26103289948E+02  0.29564996332E+02 -0.17897772677E+02  0.43564791070E+02  0.47000000000E+01 0.  1.
        -11    1    1    2    0    0  0.15618503577E+02  0.33827550723E+02 -0.12369119267E+01  0.37279629733E+02  0.00000000000E+00 0.  1.
         11    1    1    2    0    0  0.68000093717E+01  0.22470570489E+02 -0.75902581136E+02  0.79450415283E+02  0.00000000000E+00 0. -1.
<mgrwt>
<rscale>  0 0.12379220E+03</rscale>
<asrwt>0</asrwt>
<pdfrwt beam="2">  1        1 0.29462138E-01 0.13891235E+03</pdfrwt>
<pdfrwt beam="1">  1       -1 0.10893427E-01 0.13891235E+03</pdfrwt>
<totfact> 0.78421086E+03</totfact>
</mgrwt>
</event>
<event>
 6    1  0.7457796E-006  0.4217711E+03  0.7546771E-02  0.1036491E+00
          2   -1    0    0  501    0  0.00000000000E+00  0.00000000000E+00  0.67703544555E+03  0.67703544555E+03  0.00000000000E+00 0. -1.
         -2   -1    0    0    0  501 -0.00000000000E+00 -0.00000000000E+00 -0.65687411298E+02  0.65687411298E+02  0.00000000000E+00 0.  1.
          5    1    1    2  502    0 -0.75595684821E+02  0.47963628812E+02  0.64100929456E+01  0.89879900667E+02  0.47000000000E+01 0.  1.
         -5    1    1    2    0  502 -0.25206355462E+02  0.26647347893E+02  0.12574925832E+03  0.13107405340E+03  0.47000000000E+01 0.  1.
        -11    1    1    2    0    0  0.47490071588E+02 -0.12391480529E+03  0.33502030402E+03  0.36034537596E+03  0.00000000000E+00 0.  1.
         11    1    1    2    0    0  0.53311968695E+02  0.49303828584E+02  0.14416837896E+03  0.16142352682E+03  0.00000000000E+00 0. -1.
<mgrwt>
<rscale>  0 0.42177106E+03</rscale>
<asrwt>0</asrwt>
<pdfrwt beam="1">  1        2 0.10415929E+00 0.42177106E+03</pdfrwt>
<pdfrwt beam="2">  1       -2 0.10105756E-01 0.42177106E+03</pdfrwt>
<totfact> 0.28660161E+03</totfact>
</mgrwt>
</event>
<event>
 6    1  0.7457796E-006  0.1294888E+03  0.7546771E-02  0.1242436E+00
          3   -1    0    0  501    0  0.00000000000E+00  0.00000000000E+00  0.33237208046E+02  0.33237208046E+02  0.00000000000E+00 0. -1.
         -3   -1    0    0    0  501 -0.00000000000E+00 -0.00000000000E+00 -0.39402366857E+03  0.39402366857E+03  0.00000000000E+00 0.  1.
          5    1    1    2  502    0  0.40395118860E+02 -0.44244365993E+02 -0.10897932905E+03  0.12445044681E+03  0.47000000000E+01 0. -1.
         -5    1    1    2    0  502 -0.65695201990E+02  0.21833125799E+02 -0.12866766228E+03  0.14618482227E+03  0.47000000000E+01 0. -1.
        -11    1    1    2    0    0  0.40402981254E+02  0.26128052135E+02 -0.13074119652E+03  0.13931380574E+03  0.00000000000E+00 0.  1.
         11    1    1    2    0    0 -0.15102898125E+02 -0.37168119410E+01  0.76017273322E+01  0.17311801790E+02  0.00000000000E+00 0. -1.
<mgrwt>
<rscale>  0 0.12040140E+03</rscale>
<asrwt>0</asrwt>
<pdfrwt beam="1">  1        3 0.51134167E-02 0.12948883E+03</pdfrwt>
<pdfrwt beam="2">  1       -3 0.60619025E-01 0.12948883E+03</pdfrwt>
<totfact> 0.13531086E+03</totfact>
</mgrwt>
</event>
<event>
 6    1  0.7457796E-006  0.1850827E+03  0.7546771E-02  0.1168374E+00
          2   -1    0    0  501    0  0.00000000000E+00  0.00000000000E+00  0.45576642427E+02  0.45576642427E+02  0.00000000000E+00 0. -1.
         -2   -1    0    0    0  501 -0.00000000000E+00 -0.00000000000E+00 -0.71899272744E+03  0.71899272744E+03  0.00000000000E+00 0.  1.
          5    1    1    2  502    0 -0.13617188606E+02 -0.65159584616E+02 -0.15821493470E+03  0.17171271023E+03  0.47000000000E+01 0. -1.
         -5    1    1    2    0  502  0.11528526724E+03 -0.25912515713E+02 -0.30128335089E+03  0.32366015949E+03  0.47000000000E+01 0. -1.
        -11    1    1    2    0    0 -0.10828496597E+03  0.10237579722E+03 -0.20462868147E+03  0.25313896379E+03  0.00000000000E+00 0.  1.
         11    1    1    2    0    0  0.66168873336E+01 -0.11303696894E+02 -0.92891179600E+01  0.16057536359E+02  0.00000000000E+00 0. -1.
<mgrwt>
<rscale>  0 0.17941152E+03</rscale>
<asrwt>0</asrwt>
<pdfrwt beam="1">  1        2 0.70117912E-02 0.18508270E+03</pdfrwt>
<pdfrwt beam="2">  1       -2 0.11061427E+00 0.18508270E+03</pdfrwt>
<totfact> 0.67346504E+02</totfact>
</mgrwt>
</event>
<event>
 6    1  0.7457796E-006  0.3178356E+03  0.7546771E-02  0.1076650E+00
          1   -1    0    0  501    0  0.00000000000E+00  0.00000000000E+00  0.28742545397E+03  0.28742545397E+03  0.00000000000E+00 0. -1.
         -1   -1    0    0    0  501 -0.00000000000E+00 -0.00000000000E+00 -0.87865773691E+02  0.87865773691E+02  0.00000000000E+00 0.  1.
          5    1    1    2  502    0 -0.12505492991E+03 -0.59815602352E+02  0.12452527889E+03  0.18640084995E+03  0.47000000000E+01 0. -1.
         -5    1    1    2    0  502  0.22093432554E+02 -0.76888412306E+00  0.74583246520E+01  0.23799738474E+02  0.47000000000E+01 0.  1.
        -11    1    1    2    0    0  0.62982607531E+02 -0.33442213689E+01 -0.11311201016E+01  0.63081471929E+02  0.00000000000E+00 0.  1.
         11    1    1    2    0    0  0.39978889823E+02  0.63928707844E+02  0.68707196838E+02  0.10200916731E+03  0.00000000000E+00 0. -1.
<mgrwt>
<rscale>  0 0.31783555E+03</rscale>
<asrwt>0</asrwt>
<pdfrwt beam="1">  1        1 0.44219300E-01 0.31783555E+03</pdfrwt>
<pdfrwt beam="2">  1       -1 0.13517812E-01 0.31783555E+03</pdfrwt>
<totfact> 0.35105347E+03</totfact>
</mgrwt>
</event>
<event>
 6    1  0.7457796E-006  0.1535846E+03  0.7546771E-02  0.1209662E+00
         -1   -1    0    0    0  501 -0.00000000000E+00  0.00000000000E+00  0.36107093815E+03  0.36107093815E+03  0.00000000000E+00 0.  1.
          1   -1    0    0  501    0  0.00000000000E+00 -0.00000000000E+00 -0.75164140979E+02  0.75164140979E+02  0.00000000000E+00 0. -1.
          5    1    1    2  502    0 -0.38121571941E+01 -0.59229828085E+02  0.10730814432E+03  0.12271851089E+03  0.47000000000E+01 0. -1.
         -5    1    1    2    0  502  0.76196815747E+02  0.54898044207E+02  0.17516727084E+03  0.19880999161E+03  0.47000000000E+01 0.  1.
        -11    1    1    2    0    0 -0.40848959458E+02  0.29303529933E+02  0.36913813664E+02  0.62369575873E+02  0.00000000000E+00 0.  1.
         11    1    1    2    0    0 -0.31535699095E+02 -0.24971746056E+02 -0.33482431660E+02  0.52337000758E+02  0.00000000000E+00 0. -1.
<mgrwt>
<rscale>  0 0.14276086E+03</rscale>
<asrwt>0</asrwt>
<pdfrwt beam="2">  1        1 0.11563714E-01 0.15358456E+03</pdfrwt>
<pdfrwt beam="1">  1       -1 0.55549374E-01 0.15358456E+03</pdfrwt>
<totfact> 0.17415334E+03</totfact>
</mgrwt>
</event>
<event>
 6    1  0.7457796E-006  0.2495053E+03  0.7546771E-02  0.1116181E+00
         -2   -1    0    0    0  501 -0.00000000000E+00  0.00000000000E+00  0.34194161680E+02  0.34194161680E+02  0.00000000000E+00 0.  1.
          2   -1    0    0  501    0  0.00000000000E+00 -0.00000000000E+00 -0.17344874931E+04  0.17344874931E+04  0.00000000000E+00 0. -1.
          5    1    1    2  502    0  0.11279181525E+02 -0.16852952881E+03 -0.59416626093E+03  0.61772571393E+03  0.47000000000E+01 0. -1.
         -5    1    1    2    0  502  0.70303462709E+02 -0.31397416702E+02 -0.39168367266E+03  0.39920741986E+03  0.47000000000E+01 0. -1.
        -11    1    1    2    0    0 -0.37958980536E+02  0.17771261109E+03 -0.50624888806E+03  0.53787600151E+03  0.00000000000E+00 0.  1.
         11    1    1    2    0    0 -0.43623663699E+02  0.22214334425E+02 -0.20819450974E+03  0.21387251944E+03  0.00000000000E+00 0. -1.
<mgrwt>
<rscale>  0 0.24550185E+03</rscale>
<asrwt>0</asrwt>
<pdfrwt beam="2">  1        2 0.26684419E+00 0.24950532E+03</pdfrwt>
<pdfrwt beam="1">  1       -2 0.52606410E-02 0.24950532E+03</pdfrwt>
<totfact> 0.18579952E+03</totfact>
</mgrwt>
</event>
<event>
 6    1  0.7457796E-006  0.1415709E+03  0.7546771E-02  0.1221856E+00
         -3   -1    0    0    0  501 -0.00000000000E+00  0.00000000000E+00  0.29335785188E+03  0.29335785188E+03  0.00000000000E+00 0.  1.
          3   -1    0    0  501    0  0.00000000000E+00 -0.00000000000E+00 -0.57712971155E+02  0.57712971155E+02  0.00000000000E+00 0. -1.
          5    1    1    2  502    0 -0.16253284980E+02 -0.42768829319E+02  0.82848288832E+02  0.94759015383E+02  0.47000000000E+01 0.  1.
         -5    1    1    2    0  502  0.81987615230E+02  0.39724711270E+02  0.83428870551E+02  0.12362236116E+03  0.47000000000E+01 0.  1.
        -11    1    1    2    0    0 -0.12649009007E+02 -0.28299134524E+02  0.63625754859E+02  0.70774819852E+02  0.00000000000E+00 0.  1.
         11    1    1    2    0    0 -0.53085321243E+02  0.31343252573E+02  0.57419664826E+01  0.61914626644E+02  0.00000000000E+00 0. -1.
<mgrwt>
<rscale>  0 0.13384710E+03</rscale>
<asrwt>0</asrwt>
<pdfrwt beam="2">  1        3 0.88789188E-02 0.14157094E+03</pdfrwt>
<pdfrwt beam="1">  1       -3 0.45131976E-01 0.14157094E+03</pdfrwt>
<totfact> 0.10223571E+03</totfact>
</mgrwt>
</event>
<event>
 6    1  0.7457796E-006  0.1622546E+03  0.7546771E-02  0.1193755E+00
         -1   -1    0    0    0  501 -0.00000000000E+00  0.00000000000E+00  0.12008088857E+04  0.12008088857E+04  0.00000000000E+00 0.  1.
          1   -1    0    0  501    0  0.00000000000E+00 -0.00000000000E+00 -0.24610024187E+02  0.24610024187E+02  0.00000000000E+00 0. -1.
          5    1    1    2  502    0 -0.26359397570E+02 -0.66839834051E+02  0.19811862333E+03  0.21079720152E+03  0.47000000000E+01 0. -1.
         -5    1    1    2    0  502  0.27008518157E+02 -0.36606725977E+02  0.72740567819E+03  0.72884197403E+03  0.47000000000E+01 0. -1.
        -11    1    1    2    0    0 -0.44705197421E+02  0.60004816337E+02  0.12461376942E+03  0.14535378973E+03  0.00000000000E+00 0. -1.
         11    1    1    2    0    0  0.44056076834E+02  0.43441743690E+02  0.12606079057E+03  0.14042594461E+03  0.00000000000E+00 0.  1.
<mgrwt>
<rscale>  0 0.15560040E+03</rscale>
<asrwt>0</asrwt>
<pdfrwt beam="2">  1        1 0.37861585E-02 0.16225458E+03</pdfrwt>
<pdfrwt beam="1">  1       -1 0.18473978E+00 0.16225458E+03</pdfrwt>
<totfact> 0.51838034E+02</totfact>
</mgrwt>
</event>
<event>
 6    1  0.7457796E-006  0.1543127E+03  0.7546771E-02  0.1204290E+00
          1   -1    0    0  501    0  0.00000000000E+00  0.00000000000E+00  0.24517224219E+03  0.24517224219E+03  0.00000000000E+00 0. -1.
         -1   -1    0    0    0  501 -0.00000000000E+00 -0.00000000000E+00 -0.82079752689E+02  0.82079752689E+02  0.00000000000E+00 0.  1.
          5    1    1    2  502    0  0.49694892776E+02  0.82372218543E+01  0.60929974492E+02  0.79195871000E+02  0.47000000000E+01 0. -1.
         -5    1    1    2    0  502 -0.25654573300E+02 -0.95468868357E+02  0.50223911388E+02  0.11098195003E+03  0.47000000000E+01 0. -1.
        -11    1    1    2    0    0  0.67479732306E+01 -0.11957146790E+02 -0.92284717532E+01  0.16543070845E+02  0.00000000000E+00 0.  1.
         11    1    1    2    0    0 -0.30788292706E+02  0.99188793292E+02  0.61167075377E+02  0.12053110301E+03  0.00000000000E+00 0. -1.
<mgrwt>
<rscale>  0 0.14693545E+03</rscale>
<asrwt>0</asrwt>
<pdfrwt beam="1">  1        1 0.37718806E-01 0.15431273E+03</pdfrwt>
<pdfrwt beam="2">  1       -1 0.12627654E-01 0.15431273E+03</pdfrwt>
<totfact> 0.46227969E+03</totfact>
</mgrwt>
</event>
<event>
 6    1  0.7457796E-006  0.1159532E+03  0.7546771E-02  0.1260811E+00
         -3   -1    0    0    0  501 -0.00000000000E+00  0.00000000000E+00  0.27661502579E+03  0.27661502579E+03  0.00000000000E+00 0.  1.
          3   -1    0    0  501    0  0.00000000000E+00 -0.00000000000E+00 -0.40023474960E+02  0.40023474960E+02  0.00000000000E+00 0. -1.
          5    1    1    2  502    0 -0.41576915872E+01  0.51765885667E+02  0.33266374853E+02  0.61852526335E+02  0.47000000000E+01 0. -1.
         -5    1    1    2    0  502  0.26016488258E+02 -0.45883048692E+02  0.11305671729E+03  0.12484399523E+03  0.47000000000E+01 0.  1.
        -11    1    1    2    0    0 -0.50865074033E+02 -0.22636655340E+02  0.74269063921E+02  0.92820082833E+02  0.00000000000E+00 0.  1.
         11    1    1    2    0    0  0.29006277363E+02  0.16753818365E+02  0.15999394760E+02  0.37121896354E+02  0.00000000000E+00 0. -1.
<mgrwt>
<rscale>  0 0.10987006E+03</rscale>
<asrwt>0</asrwt>
<pdfrwt beam="2">  1        3 0.61574579E-02 0.11595320E+03</pdfrwt>
<pdfrwt beam="1">  1       -3 0.42556157E-01 0.11595320E+03</pdfrwt>
<totfact> 0.20026525E+03</totfact>
</mgrwt>
</event>
<event>
 6    1  0.7457796E-006  0.1278360E+03  0.7546771E-02  0.1242112E+00
          2   -1    0    0  501    0  0.00000000000E+00  0.00000000000E+00  0.41592105328E+03  0.41592105328E+03  0.00000000000E+00 0. -1.
         -2   -1    0    0    0  501 -0.00000000000E+00 -0.00000000000E+00 -0.32751386696E+02  0.32751386696E+02  0.00000000000E+00 0.  1.
          5    1    1    2  502    0  0.42432159289E+02  0.30747520377E+02  0.77702137392E+02  0.93838213466E+02  0.47000000000E+01 0. -1.
         -5    1    1    2    0  502 -0.15974809129E+02 -0.73031801687E+02  0.92535487341E+02  0.11905353838E+03  0.47000000000E+01 0.  1.
        -11    1    1    2    0    0  0.96548005046E+01  0.34372117402E+02  0.18759623481E+03  0.19096336020E+03  0.00000000000E+00 0. -1.
         11    1    1    2    0    0 -0.36112150664E+02  0.79121639082E+01  0.25335807045E+02  0.44817327920E+02  0.00000000000E+00 0.  1.
<mgrwt>
<rscale>  0 0.12059896E+03</rscale>
<asrwt>0</asrwt>
<pdfrwt beam="1">  1        2 0.63987850E-01 0.12783602E+03</pdfrwt>
<pdfrwt beam="2">  1       -2 0.50386752E-02 0.12783602E+03</pdfrwt>
<totfact> 0.13904675E+04</totfact>
</mgrwt>
</event>
<event>
 6    1  0.7457796E-006  0.3286818E+03  0.7546771E-02  0.1071722E+00
         -2   -1    0    0    0  501 -0.00000000000E+00  0.00000000000E+00  0.67642575468E+02  0.67642575468E+02  0.00000000000E+00 0.  1.
          2   -1    0    0  501    0  0.00000000000E+00 -0.00000000000E+00 -0.39927413576E+03  0.39927413576E+03  0.00000000000E+00 0. -1.
          5    1    1    2  502    0 -0.36764077672E+02 -0.53550928548E+02  0.20876270251E+02  0.68390116355E+02  0.47000000000E+01 0.  1.
         -5    1    1    2    0  502  0.16477940335E+02  0.86883875689E+01 -0.73384089351E+02  0.75857268380E+02  0.47000000000E+01 0.  1.
        -11    1    1    2    0    0 -0.40571104168E+02  0.79418298667E+01 -0.23567930631E+03  0.23927771015E+03  0.00000000000E+00 0. -1.
         11    1    1    2    0    0  0.60857241506E+02  0.36920711113E+02 -0.43444434880E+02  0.83391616334E+02  0.00000000000E+00 0.  1.
<mgrwt>
<rscale>  0 0.32868180E+03</rscale>
<asrwt>0</asrwt>
<pdfrwt beam="2">  1        2 0.61426790E-01 0.32868180E+03</pdfrwt>
<pdfrwt beam="1">  1       -2 0.10406550E-01 0.32868180E+03</pdfrwt>
<totfact> 0.49870703E+03</totfact>
</mgrwt>
</event>
<event>
 6    1  0.7457796E-006  0.1307869E+03  0.7546771E-02  0.1258311E+00
         -1   -1    0    0    0  501 -0.00000000000E+00  0.00000000000E+00  0.58406685873E+03  0.58406685873E+03  0.00000000000E+00 0.  1.
          1   -1    0    0  501    0  0.00000000000E+00 -0.00000000000E+00 -0.16985887031E+02  0.16985887031E+02  0.00000000000E+00 0. -1.
          5    1    1    2  502    0  0.57798322194E+02 -0.47062479397E+02  0.20849260698E+03  0.22146507666E+03  0.47000000000E+01 0.  1.
         -5    1    1    2    0  502 -0.19664948245E+02  0.52292192228E+02  0.16486457757E+03  0.17413673506E+03  0.47000000000E+01 0.  1.
        -11    1    1    2    0    0  0.92661723036E+01 -0.17174595205E+02  0.57699344023E+02  0.60910122068E+02  0.00000000000E+00 0. -1.
         11    1    1    2    0    0 -0.47399546253E+02  0.11944882374E+02  0.13602444312E+03  0.14454081198E+03  0.00000000000E+00 0.  1.
<mgrwt>
<rscale>  0 0.11122887E+03</rscale>
<asrwt>0</asrwt>
<pdfrwt beam="2">  1        1 0.26132138E-02 0.13078687E+03</pdfrwt>
<pdfrwt beam="1">  1       -1 0.89856424E-01 0.13078687E+03</pdfrwt>
<totfact> 0.50264349E+03</totfact>
</mgrwt>
</event>
<event>
 6    1  0.7457796E-006  0.1598695E+03  0.7546771E-02  0.1196454E+00
          4   -1    0    0  501    0  0.00000000000E+00  0.00000000000E+00  0.16729283794E+03  0.16729283794E+03  0.00000000000E+00 0. -1.
         -4   -1    0    0    0  501 -0.00000000000E+00 -0.00000000000E+00 -0.16473111172E+03  0.16473111172E+03  0.00000000000E+00 0.  1.
          5    1    1    2  502    0 -0.63564750156E+02  0.49558957467E+02  0.10216911438E+02  0.81382080380E+02  0.47000000000E+01 0. -1.
         -5    1    1    2    0  502  0.17639147807E+02  0.38904584075E+02 -0.84718027067E+02  0.94994422508E+02  0.47000000000E+01 0. -1.
        -11    1    1    2    0    0  0.10308808114E+02  0.16538445707E+02 -0.18187248919E+01  0.19572927001E+02  0.00000000000E+00 0.  1.
         11    1    1    2    0    0  0.35616794234E+02 -0.10500198725E+03  0.78881566742E+02  0.13607451977E+03  0.00000000000E+00 0. -1.
<mgrwt>
<rscale>  0 0.15331806E+03</rscale>
<asrwt>0</asrwt>
<pdfrwt beam="1">  1        4 0.25737360E-01 0.15986949E+03</pdfrwt>
<pdfrwt beam="2">  1       -4 0.25343248E-01 0.15986949E+03</pdfrwt>
<totfact> 0.35515936E+02</totfact>
</mgrwt>
</event>
<event>
 6    1  0.7457796E-006  0.1263441E+03  0.7546771E-02  0.1250082E+00
         -1   -1    0    0    0  501 -0.00000000000E+00  0.00000000000E+00  0.12704470967E+03  0.12704470967E+03  0.00000000000E+00 0.  1.
          1   -1    0    0  501    0  0.00000000000E+00 -0.00000000000E+00 -0.13137792583E+03  0.13137792583E+03  0.00000000000E+00 0. -1.
          5    1    1    2  502    0  0.31908506662E+02 -0.24880496653E+02 -0.17152684715E+02  0.44198376712E+02  0.47000000000E+01 0. -1.
         -5    1    1    2    0  502 -0.27579463288E+02  0.42717161272E+02  0.85134433934E+02  0.99274087775E+02  0.47000000000E+01 0. -1.
        -11    1    1    2    0    0 -0.50417002037E+01 -0.44127017899E+02 -0.76363641742E+02  0.88340354480E+02  0.00000000000E+00 0. -1.
         11    1    1    2    0    0  0.71265683004E+00  0.26290353280E+02  0.40486763647E+01  0.26609816528E+02  0.00000000000E+00 0.  1.
<mgrwt>
<rscale>  0 0.11586289E+03</rscale>
<asrwt>0</asrwt>
<pdfrwt beam="2">  1        1 0.20211988E-01 0.12634409E+03</pdfrwt>
<pdfrwt beam="1">  1       -1 0.19545340E-01 0.12634409E+03</pdfrwt>
<totfact> 0.50128194E+03</totfact>
</mgrwt>
</event>
<event>
 6    1  0.7457796E-006  0.1510383E+03  0.7546771E-02  0.1204598E+00
          2   -1    0    0  501    0  0.00000000000E+00  0.00000000000E+00  0.15799777531E+03  0.15799777531E+03  0.00000000000E+00 0. -1.
         -2   -1    0    0    0  501 -0.00000000000E+00 -0.00000000000E+00 -0.13169611309E+03  0.13169611309E+03  0.00000000000E+00 0.  1.
          5    1    1    2  502    0  0.42404907556E+02  0.34942615853E+02 -0.51365065166E+02  0.75363270278E+02  0.47000000000E+01 0. -1.
         -5    1    1    2    0  502 -0.36246959841E+02  0.49605941874E+02  0.44222176656E+02  0.75843803142E+02  0.47000000000E+01 0. -1.
        -11    1    1    2    0    0 -0.44337367080E+02 -0.85322634109E+02  0.25560395372E+02  0.99494159741E+02  0.00000000000E+00 0.  1.
         11    1    1    2    0    0  0.38179419365E+02  0.77407638304E+00  0.78841553562E+01  0.38992655244E+02  0.00000000000E+00 0. -1.
<mgrwt>
<rscale>  0 0.14669157E+03</rscale>
<asrwt>0</asrwt>
<pdfrwt beam="1">  1        2 0.24307350E-01 0.15103827E+03</pdfrwt>
<pdfrwt beam="2">  1       -2 0.20260941E-01 0.15103827E+03</pdfrwt>
<totfact> 0.43975302E+03</totfact>
</mgrwt>
</event>
<event>
 6    1  0.7457796E-006  0.2291280E+03  0.7546771E-02  0.1130234E+00
          1   -1    0    0  501    0  0.00000000000E+00  0.00000000000E+00  0.98055712229E+02  0.98055712229E+02  0.00000000000E+00 0. -1.
         -1   -1    0    0    0  501 -0.00000000000E+00 -0.00000000000E+00 -0.62337315661E+03  0.62337315661E+03  0.00000000000E+00 0.  1.
          5    1    1    2  502    0  0.15106447864E+02 -0.15213203320E+03 -0.24420254768E+03  0.28814811223E+03  0.47000000000E+01 0. -1.
         -5    1    1    2    0  502  0.67924638905E+02 -0.21001223476E+02 -0.18769027765E+03  0.20075990208E+03  0.47000000000E+01 0. -1.
        -11    1    1    2    0    0 -0.97740738732E+02  0.10625849369E+03 -0.60410500578E+02  0.15650414713E+03  0.00000000000E+00 0.  1.
         11    1    1    2    0    0  0.14709651964E+02  0.66874762984E+02 -0.33014118478E+02  0.76016707400E+02  0.00000000000E+00 0. -1.
<mgrwt>
<rscale>  0 0.22496562E+03</rscale>
<asrwt>0</asrwt>
<pdfrwt beam="1">  1        1 0.15085495E-01 0.22912799E+03</pdfrwt>
<pdfrwt beam="2">  1       -1 0.95903557E-01 0.22912799E+03</pdfrwt>
<totfact> 0.41034427E+02</totfact>
</mgrwt>
</event>
<event>
 6    1  0.7457796E-006  0.1491918E+03  0.7546771E-02  0.1210515E+00
          3   -1    0    0  501    0  0.00000000000E+00  0.00000000000E+00  0.37450761077E+03  0.37450761077E+03  0.00000000000E+00 0. -1.
         -3   -1    0    0    0  501 -0.00000000000E+00 -0.00000000000E+00 -0.49552935498E+02  0.49552935498E+02  0.00000000000E+00 0.  1.
          5    1    1    2  502    0 -0.25782815130E+02 -0.29823189957E+02  0.10156708715E+02  0.40980787538E+02  0.47000000000E+01 0. -1.
         -5    1    1    2    0  502 -0.38366435269E+02  0.79961536776E+02  0.17998524215E+03  0.20070527674E+03  0.47000000000E+01 0. -1.
        -11    1    1    2    0    0  0.87631265436E+02 -0.34963395793E+02  0.11072398399E+03  0.14546985378E+03  0.00000000000E+00 0. -1.
         11    1    1    2    0    0 -0.23482015037E+02 -0.15174951026E+02  0.24088740418E+02  0.36904628216E+02  0.00000000000E+00 0.  1.
<mgrwt>
<rscale>  0 0.14211189E+03</rscale>
<asrwt>0</asrwt>
<pdfrwt beam="1">  1        3 0.57616554E-01 0.14919180E+03</pdfrwt>
<pdfrwt beam="2">  1       -3 0.76235288E-02 0.14919180E+03</pdfrwt>
<totfact> 0.81039201E+02</totfact>
</mgrwt>
</event>
<event>
 6    1  0.7457796E-006  0.3655364E+03  0.7546771E-02  0.1056413E+00
         -1   -1    0    0    0  501 -0.00000000000E+00  0.00000000000E+00  0.78938705771E+02  0.78938705771E+02  0.00000000000E+00 0.  1.
          1   -1    0    0  501    0  0.00000000000E+00 -0.00000000000E+00 -0.42316640767E+03  0.42316640767E+03  0.00000000000E+00 0. -1.
          5    1    1    2  502    0  0.10738995929E+03  0.11988816906E+03 -0.15453737242E+03  0.22318079199E+03  0.47000000000E+01 0.  1.
         -5    1    1    2    0  502 -0.15237797615E+02 -0.80630853652E+01  0.62335085615E+01  0.18924863295E+02  0.47000000000E+01 0.  1.
        -11    1    1    2    0    0 -0.11912041054E+01 -0.65955158425E+02 -0.53727205015E+02  0.85077108841E+02  0.00000000000E+00 0.  1.
         11    1    1    2    0    0 -0.90960957573E+02 -0.45869925272E+02 -0.14219663303E+03  0.17492234932E+03  0.00000000000E+00 0. -1.
<mgrwt>
<rscale>  0 0.36553637E+03</rscale>
<asrwt>0</asrwt>
<pdfrwt beam="2">  1        1 0.65102524E-01 0.36553637E+03</pdfrwt>
<pdfrwt beam="1">  1       -1 0.12144416E-01 0.36553637E+03</pdfrwt>
<totfact> 0.25405380E+03</totfact>
</mgrwt>
</event>
<event>
 6    1  0.7457796E-006  0.1530214E+03  0.7546771E-02  0.1204004E+00
         -3   -1    0    0    0  501 -0.00000000000E+00  0.00000000000E+00  0.20264650463E+03  0.20264650463E+03  0.00000000000E+00 0.  1.
          3   -1    0    0  501    0  0.00000000000E+00 -0.00000000000E+00 -0.12530414101E+03  0.12530414101E+03  0.00000000000E+00 0. -1.
          5    1    1    2  502    0 -0.72798530476E+02 -0.73344202029E+02  0.36892482380E+02  0.10982778914E+03  0.47000000000E+01 0. -1.
         -5    1    1    2    0  502  0.22158218172E+02 -0.46162142087E+01  0.78478916283E+02  0.81812751862E+02  0.47000000000E+01 0.  1.
        -11    1    1    2    0    0  0.43512833782E+02  0.69435555458E+02  0.13980207343E+02  0.83127066969E+02  0.00000000000E+00 0.  1.
         11    1    1    2    0    0  0.71274785223E+01  0.85248607800E+01 -0.52009242386E+02  0.53183037662E+02  0.00000000000E+00 0. -1.
<mgrwt>
<rscale>  0 0.14716250E+03</rscale>
<asrwt>0</asrwt>
<pdfrwt beam="2">  1        3 0.19277560E-01 0.15302136E+03</pdfrwt>
<pdfrwt beam="1">  1       -3 0.31176385E-01 0.15302136E+03</pdfrwt>
<totfact> 0.56405593E+02</totfact>
</mgrwt>
</event>
<event>
 6    1  0.7457796E-006  0.1840620E+03  0.7546771E-02  0.1190232E+00
         -1   -1    0    0    0  501 -0.00000000000E+00  0.00000000000E+00  0.88629514086E+02  0.88629514086E+02  0.00000000000E+00 0.  1.
          1   -1    0    0  501    0  0.00000000000E+00 -0.00000000000E+00 -0.24330174917E+03  0.24330174917E+03  0.00000000000E+00 0. -1.
          5    1    1    2  502    0 -0.55602234696E+02 -0.19211078142E+02 -0.11300514670E+03  0.12748696877E+03  0.47000000000E+01 0. -1.
         -5    1    1    2    0  502  0.40675993607E+02 -0.96977099872E+01  0.51567991446E+02  0.66557717635E+02  0.47000000000E+01 0.  1.
        -11    1    1    2    0    0  0.40253367364E+02 -0.20898852135E+02 -0.36081408948E+02  0.57956567155E+02  0.00000000000E+00 0.  1.
         11    1    1    2    0    0 -0.25327126275E+02  0.49807640264E+02 -0.57153670885E+02  0.79930009694E+02  0.00000000000E+00 0. -1.
<mgrwt>
<rscale>  0 0.15864729E+03</rscale>
<asrwt>0</asrwt>
<pdfrwt beam="2">  1        1 0.37431038E-01 0.18406199E+03</pdfrwt>
<pdfrwt beam="1">  1       -1 0.13635310E-01 0.18406199E+03</pdfrwt>
<totfact> 0.41774622E+03</totfact>
</mgrwt>
</event>
<event>
 6    1  0.7457796E-006  0.1555764E+03  0.7546771E-02  0.1202109E+00
          1   -1    0    0  501    0  0.00000000000E+00  0.00000000000E+00  0.61520008831E+02  0.61520008831E+02  0.00000000000E+00 0. -1.
         -1   -1    0    0    0  501 -0.00000000000E+00 -0.00000000000E+00 -0.38644115633E+03  0.38644115633E+03  0.00000000000E+00 0.  1.
          5    1    1    2  502    0  0.20978521555E+00  0.67028099684E+02 -0.17332156315E+03  0.18589046347E+03  0.47000000000E+01 0. -1.
         -5    1    1    2    0  502 -0.77039322526E+02 -0.15297327769E+02 -0.86374391574E+02  0.11684045092E+03  0.47000000000E+01 0. -1.
        -11    1    1    2    0    0 -0.14946710570E+01 -0.44785565883E+02 -0.46134036013E+02  0.64314308143E+02  0.00000000000E+00 0. -1.
         11    1    1    2    0    0  0.78324208368E+02 -0.69452060315E+01 -0.19091156757E+02  0.80915942617E+02  0.00000000000E+00 0.  1.
<mgrwt>
<rscale>  0 0.14867656E+03</rscale>
<asrwt>0</asrwt>
<pdfrwt beam="1">  1        1 0.94646167E-02 0.15557640E+03</pdfrwt>
<pdfrwt beam="2">  1       -1 0.59452486E-01 0.15557640E+03</pdfrwt>
<totfact> 0.19997954E+03</totfact>
</mgrwt>
</event>
<event>
 6    1  0.7457796E-006  0.1368429E+03  0.7546771E-02  0.1229296E+00
          4   -1    0    0  501    0  0.00000000000E+00  0.00000000000E+00  0.62801974477E+02  0.62801974477E+02  0.00000000000E+00 0.  1.
         -4   -1    0    0    0  501 -0.00000000000E+00 -0.00000000000E+00 -0.24640640224E+03  0.24640640224E+03  0.00000000000E+00 0. -1.
          5    1    1    2  502    0 -0.38012694714E+02  0.31503746461E-01 -0.96593934765E+01  0.39501390283E+02  0.47000000000E+01 0.  1.
         -5    1    1    2    0  502  0.79527142846E+02  0.37049708259E+02 -0.12242090334E+03  0.15068581521E+03  0.47000000000E+01 0.  1.
        -11    1    1    2    0    0 -0.35913354477E+02 -0.22293207181E+02  0.19289563541E+02  0.46463355215E+02  0.00000000000E+00 0.  1.
         11    1    1    2    0    0 -0.56010936543E+01 -0.14788004824E+02 -0.70813694489E+02  0.72557816009E+02  0.00000000000E+00 0. -1.
<mgrwt>
<rscale>  0 0.12876777E+03</rscale>
<asrwt>0</asrwt>
<pdfrwt beam="1">  1        4 0.96618422E-02 0.13684286E+03</pdfrwt>
<pdfrwt beam="2">  1       -4 0.37908677E-01 0.13684286E+03</pdfrwt>
<totfact> 0.90038322E+02</totfact>
</mgrwt>
</event>
<event>
 6    1  0.7457796E-006  0.4512803E+03  0.7546771E-02  0.1027341E+00
         -1   -1    0    0    0  501 -0.00000000000E+00  0.00000000000E+00  0.42279707275E+03  0.42279707275E+03  0.00000000000E+00 0.  1.
          1   -1    0    0  501    0  0.00000000000E+00 -0.00000000000E+00 -0.12042058152E+03  0.12042058152E+03  0.00000000000E+00 0. -1.
          5    1    1    2  502    0 -0.11935150792E+02  0.84029226563E+01 -0.72908880095E+01  0.16979516529E+02  0.47000000000E+01 0. -1.
         -5    1    1    2    0  502 -0.10889706826E+03 -0.94000285105E+02  0.32042395586E+03  0.35126660325E+03  0.47000000000E+01 0. -1.
        -11    1    1    2    0    0  0.85480941101E+02  0.25586397823E+02 -0.42020146007E+02  0.98627317289E+02  0.00000000000E+00 0. -1.
         11    1    1    2    0    0  0.35351277951E+02  0.60010964626E+02  0.31263569398E+02  0.76344217198E+02  0.00000000000E+00 0.  1.
<mgrwt>
<rscale>  0 0.45128026E+03</rscale>
<asrwt>0</asrwt>
<pdfrwt beam="2">  1        1 0.18526244E-01 0.45128026E+03</pdfrwt>
<pdfrwt beam="1">  1       -1 0.65045703E-01 0.45128026E+03</pdfrwt>
<totfact> 0.70179725E+02</totfact>
</mgrwt>
</event>
<event>
 6    1  0.7457796E-006  0.2569802E+03  0.7546771E-02  0.1111261E+00
          1   -1    0    0  501    0  0.00000000000E+00  0.00000000000E+00  0.17913877152E+03  0.17913877152E+03  0.00000000000E+00 0. -1.
         -1   -1    0    0    0  501 -0.00000000000E+00 -0.00000000000E+00 -0.34874557029E+03  0.34874557029E+03  0.00000000000E+00 0.  1.
          5    1    1    2  502    0  0.58156296628E+02 -0.12326283459E+03 -0.10121745518E+03  0.16983210669E+03  0.47000000000E+01 0.  1.
         -5    1    1    2    0  502  0.74959791981E+02 -0.57550157396E+02  0.25636496893E+02  0.98032193707E+02  0.47000000000E+01 0.  1.
        -11    1    1    2    0    0 -0.10487317781E+03  0.11325011697E+03 -0.19566545617E+02  0.15558541746E+03  0.00000000000E+00 0.  1.
         11    1    1    2    0    0 -0.28242910794E+02  0.67562875017E+02 -0.74459294867E+02  0.10443462397E+03  0.00000000000E+00 0. -1.
<mgrwt>
<rscale>  0 0.25326125E+03</rscale>
<asrwt>0</asrwt>
<pdfrwt beam="1">  1        1 0.27559811E-01 0.25698016E+03</pdfrwt>
<pdfrwt beam="2">  1       -1 0.53653164E-01 0.25698016E+03</pdfrwt>
<totfact> 0.60932248E+02</totfact>
</mgrwt>
</event>
<event>
 6    1  0.7457796E-006  0.1265623E+03  0.7546771E-02  0.1250218E+00
          1   -1    0    0  501    0  0.00000000000E+00  0.00000000000E+00  0.60727071180E+02  0.60727071180E+02  0.00000000000E+00 0. -1.
         -1   -1    0    0    0  501 -0.00000000000E+00 -0.00000000000E+00 -0.42599626081E+03  0.42599626081E+03  0.00000000000E+00 0.  1.
          5    1    1    2  502    0  0.34649298850E+02 -0.47946057456E+02 -0.29574991069E+03  0.30164465520E+03  0.47000000000E+01 0. -1.
         -5    1    1    2    0  502 -0.41717470976E+02  0.29177617262E+02 -0.80899623706E+02  0.95700155954E+02  0.47000000000E+01 0. -1.
        -11    1    1    2    0    0  0.32073202209E+02  0.35210258687E+02  0.27896999314E+02  0.55196876610E+02  0.00000000000E+00 0. -1.
         11    1    1    2    0    0 -0.25005030083E+02 -0.16441818492E+02 -0.16516654550E+02  0.34181644230E+02  0.00000000000E+00 0.  1.
<mgrwt>
<rscale>  0 0.11578421E+03</rscale>
<asrwt>0</asrwt>
<pdfrwt beam="1">  1        1 0.93426261E-02 0.12656235E+03</pdfrwt>
<pdfrwt beam="2">  1       -1 0.65537888E-01 0.12656235E+03</pdfrwt>
<totfact> 0.16736330E+03</totfact>
</mgrwt>
</event>
<event>
 6    1  0.7457796E-006  0.1413890E+03  0.7546771E-02  0.1226533E+00
         -2   -1    0    0    0  501 -0.00000000000E+00  0.00000000000E+00  0.47920197277E+02  0.47920197277E+02  0.00000000000E+00 0.  1.
          2   -1    0    0  501    0  0.00000000000E+00 -0.00000000000E+00 -0.31184231406E+03  0.31184231406E+03  0.00000000000E+00 0. -1.
          5    1    1    2  502    0 -0.38415119559E+02  0.77282520333E+02 -0.95418018392E+02  0.12874392255E+03  0.47000000000E+01 0. -1.
         -5    1    1    2    0  502  0.45614405567E+02 -0.29957168191E+02 -0.52249566296E+02  0.75698171044E+02  0.47000000000E+01 0.  1.
        -11    1    1    2    0    0  0.13903708307E+02  0.24475923508E+02 -0.30641575574E+02  0.41608774194E+02  0.00000000000E+00 0. -1.
         11    1    1    2    0    0 -0.21102994315E+02 -0.71801275651E+02 -0.85612956519E+02  0.11371164355E+03  0.00000000000E+00 0.  1.
<mgrwt>
<rscale>  0 0.13062391E+03</rscale>
<asrwt>0</asrwt>
<pdfrwt beam="2">  1        2 0.47975740E-01 0.14138902E+03</pdfrwt>
<pdfrwt beam="1">  1       -2 0.73723382E-02 0.14138902E+03</pdfrwt>
<totfact> 0.10684415E+04</totfact>
</mgrwt>
</event>
<event>
 6    1  0.7457796E-006  0.1906938E+03  0.7546771E-02  0.1162348E+00
         -1   -1    0    0    0  501 -0.00000000000E+00  0.00000000000E+00  0.11830277122E+03  0.11830277122E+03  0.00000000000E+00 0.  1.
          1   -1    0    0  501    0  0.00000000000E+00 -0.00000000000E+00 -0.27881799288E+03  0.27881799288E+03  0.00000000000E+00 0. -1.
          5    1    1    2  502    0 -0.44317920028E+02 -0.24558591701E+02 -0.64354601721E+02  0.82041496967E+02  0.47000000000E+01 0.  1.
         -5    1    1    2    0  502  0.45821516507E+02 -0.11944449697E+03 -0.33672406188E+02  0.13237265643E+03  0.47000000000E+01 0.  1.
        -11    1    1    2    0    0 -0.31373941348E+02  0.15202540288E+02  0.33107735813E+01  0.35020032105E+02  0.00000000000E+00 0.  1.
         11    1    1    2    0    0  0.29870344868E+02  0.12880054838E+03 -0.65798987336E+02  0.14768657861E+03  0.00000000000E+00 0. -1.
<mgrwt>
<rscale>  0 0.18575382E+03</rscale>
<asrwt>0</asrwt>
<pdfrwt beam="2">  1        1 0.42895076E-01 0.19069383E+03</pdfrwt>
<pdfrwt beam="1">  1       -1 0.18200426E-01 0.19069383E+03</pdfrwt>
<totfact> 0.22324464E+03</totfact>
</mgrwt>
</event>
<event>
 6    1  0.7457796E-006  0.2599035E+03  0.7546771E-02  0.1109525E+00
          1   -1    0    0  501    0  0.00000000000E+00  0.00000000000E+00  0.38697487851E+03  0.38697487851E+03  0.00000000000E+00 0. -1.
         -1   -1    0    0    0  501 -0.00000000000E+00 -0.00000000000E+00 -0.19512364541E+03  0.19512364541E+03  0.00000000000E+00 0.  1.
          5    1    1    2  502    0 -0.49815394458E+02 -0.14226277972E+02 -0.48665057772E+02  0.71234390275E+02  0.47000000000E+01 0. -1.
         -5    1    1    2    0  502 -0.16831080484E+03  0.80143777027E+02  0.32000887410E+02  0.18920279812E+03  0.47000000000E+01 0. -1.
        -11    1    1    2    0    0  0.55467102599E+02 -0.60535587441E+02  0.73582489217E+02  0.11025216341E+03  0.00000000000E+00 0.  1.
         11    1    1    2    0    0  0.16265909670E+03 -0.53819116142E+01  0.13493291424E+03  0.21140917212E+03  0.00000000000E+00 0. -1.
<mgrwt>
<rscale>  0 0.25607463E+03</rscale>
<asrwt>0</asrwt>
<pdfrwt beam="1">  1        1 0.59534597E-01 0.25990351E+03</pdfrwt>
<pdfrwt beam="2">  1       -1 0.30019022E-01 0.25990351E+03</pdfrwt>
<totfact> 0.64811794E+02</totfact>
</mgrwt>
</event>
<event>
 6    1  0.7457796E-006  0.1867614E+03  0.7546771E-02  0.1166092E+00
          2   -1    0    0  501    0  0.00000000000E+00  0.00000000000E+00  0.82406438463E+03  0.82406438463E+03  0.00000000000E+00 0. -1.
         -2   -1    0    0    0  501 -0.00000000000E+00 -0.00000000000E+00 -0.52518332064E+02  0.52518332064E+02  0.00000000000E+00 0.  1.
          5    1    1    2  502    0 -0.86413826424E+02  0.22848980351E+02  0.14459306776E+03  0.17005490450E+03  0.47000000000E+01 0. -1.
         -5    1    1    2    0  502 -0.46090899467E+02 -0.64039059691E+02  0.26882313976E+02  0.83487250431E+02  0.47000000000E+01 0. -1.
        -11    1    1    2    0    0  0.16467705091E+02  0.31335992681E+02  0.53153668890E+02  0.63862682880E+02  0.00000000000E+00 0.  1.
         11    1    1    2    0    0  0.11603702080E+03  0.98540866593E+01  0.54691700195E+03  0.55917787889E+03  0.00000000000E+00 0. -1.
<mgrwt>
<rscale>  0 0.18177889E+03</rscale>
<asrwt>0</asrwt>
<pdfrwt beam="1">  1        2 0.12677913E+00 0.18676139E+03</pdfrwt>
<pdfrwt beam="2">  1       -2 0.80797440E-02 0.18676139E+03</pdfrwt>
<totfact> 0.31444768E+03</totfact>
</mgrwt>
</event>
<event>
 6    1  0.7457796E-006  0.1567240E+03  0.7546771E-02  0.1200696E+00
          2   -1    0    0  501    0  0.00000000000E+00  0.00000000000E+00  0.94272306154E+03  0.94272306154E+03  0.00000000000E+00 0.  1.
         -2   -1    0    0    0  501 -0.00000000000E+00 -0.00000000000E+00 -0.22304144043E+02  0.22304144043E+02  0.00000000000E+00 0. -1.
          5    1    1    2  502    0 -0.35910390042E+02  0.43553708347E+02  0.13758779283E+03  0.14879170797E+03  0.47000000000E+01 0.  1.
         -5    1    1    2    0  502  0.94265477291E+02  0.30827543508E+02  0.30143220464E+03  0.31736380014E+03  0.47000000000E+01 0.  1.
        -11    1    1    2    0    0 -0.26257682664E+02  0.33571838247E+01  0.31348073632E+02  0.41029724622E+02  0.00000000000E+00 0. -1.
         11    1    1    2    0    0 -0.32097404585E+02 -0.77738435680E+02  0.45005084639E+03  0.45784197285E+03  0.00000000000E+00 0.  1.
<mgrwt>
<rscale>  0 0.14981836E+03</rscale>
<asrwt>0</asrwt>
<pdfrwt beam="1">  1        2 0.14503429E+00 0.15672396E+03</pdfrwt>
<pdfrwt beam="2">  1       -2 0.34314075E-02 0.15672396E+03</pdfrwt>
<totfact> 0.95942293E+03</totfact>
</mgrwt>
</event>
<event>
 6    1  0.7457796E-006  0.1595587E+03  0.7546771E-02  0.1197014E+00
          2   -1    0    0  501    0  0.00000000000E+00  0.00000000000E+00  0.30551343725E+02  0.30551343725E+02  0.00000000000E+00 0. -1.
         -2   -1    0    0    0  501 -0.00000000000E+00 -0.00000000000E+00 -0.82062392003E+03  0.82062392003E+03  0.00000000000E+00 0.  1.
          5    1    1    2  502    0  0.82014277349E+00 -0.18697252821E+02 -0.48535437239E+01  0.19897406461E+02  0.47000000000E+01 0.  1.
         -5    1    1    2    0  502  0.69131943417E+02 -0.51590644704E+02 -0.57724197192E+03  0.58367045870E+03  0.47000000000E+01 0.  1.
        -11    1    1    2    0    0 -0.44685558990E+02  0.80809162794E+02 -0.19800348770E+03  0.21847723248E+03  0.00000000000E+00 0.  1.
         11    1    1    2    0    0 -0.25266527200E+02 -0.10521265270E+02 -0.99735729687E+01  0.29130166107E+02  0.00000000000E+00 0. -1.
<mgrwt>
<rscale>  0 0.15284983E+03</rscale>
<asrwt>0</asrwt>
<pdfrwt beam="1">  1        2 0.47002067E-02 0.15955870E+03</pdfrwt>
<pdfrwt beam="2">  1       -2 0.12624984E+00 0.15955870E+03</pdfrwt>
<totfact> 0.82001560E+02</totfact>
</mgrwt>
</event>
<event>
 6    1  0.7457796E-006  0.1187439E+03  0.7546771E-02  0.1253999E+00
          1   -1    0    0  501    0  0.00000000000E+00  0.00000000000E+00  0.27174009221E+02  0.27174009221E+02  0.00000000000E+00 0. -1.
         -1   -1    0    0    0  501 -0.00000000000E+00 -0.00000000000E+00 -0.45033987253E+03  0.45033987253E+03  0.00000000000E+00 0.  1.
          5    1    1    2  502    0 -0.30145259918E+02  0.40908651122E+02 -0.82558122133E+02  0.97057652775E+02  0.47000000000E+01 0. -1.
         -5    1    1    2    0  502  0.21518537551E+01 -0.63432310915E+02 -0.18581089608E+03  0.19640791136E+03  0.47000000000E+01 0.  1.
        -11    1    1    2    0    0  0.21159369391E+01  0.56670150689E+02 -0.87383960072E+02  0.10417264346E+03  0.00000000000E+00 0. -1.
         11    1    1    2    0    0  0.25877469224E+02 -0.34146490896E+02 -0.67412885021E+02  0.79875674149E+02  0.00000000000E+00 0.  1.
<mgrwt>
<rscale>  0 0.11362582E+03</rscale>
<asrwt>0</asrwt>
<pdfrwt beam="1">  1        1 0.41806168E-02 0.11874387E+03</pdfrwt>
<pdfrwt beam="2">  1       -1 0.69283057E-01 0.11874387E+03</pdfrwt>
<totfact> 0.44335568E+03</totfact>
</mgrwt>
</event>
<event>
 6    1  0.7457796E-006  0.1726677E+03  0.7546771E-02  0.1178912E+00
          1   -1    0    0  501    0  0.00000000000E+00  0.00000000000E+00  0.45998867210E+03  0.45998867210E+03  0.00000000000E+00 0. -1.
         -1   -1    0    0    0  501 -0.00000000000E+00 -0.00000000000E+00 -0.60458316999E+02  0.60458316999E+02  0.00000000000E+00 0.  1.
          5    1    1    2  502    0 -0.28049295718E+02 -0.52836284648E+02  0.44680138486E+02  0.74812036068E+02  0.47000000000E+01 0. -1.
         -5    1    1    2    0  502  0.10318793329E+03 -0.39609453790E+02  0.13203411397E+03  0.17225491476E+03  0.47000000000E+01 0. -1.
        -11    1    1    2    0    0 -0.15570850255E+02  0.33305144627E+01 -0.87782810141E+01  0.18182461929E+02  0.00000000000E+00 0.  1.
         11    1    1    2    0    0 -0.59567787316E+02  0.89115223975E+02  0.23159438366E+03  0.25519757635E+03  0.00000000000E+00 0. -1.
<mgrwt>
<rscale>  0 0.16898385E+03</rscale>
<asrwt>0</asrwt>
<pdfrwt beam="1">  1        1 0.70767486E-01 0.17266775E+03</pdfrwt>
<pdfrwt beam="2">  1       -1 0.93012799E-02 0.17266775E+03</pdfrwt>
<totfact> 0.33751007E+03</totfact>
</mgrwt>
</event>
<event>
 6    1  0.7457796E-006  0.1483065E+03  0.7546771E-02  0.1211602E+00
         -1   -1    0    0    0  501 -0.00000000000E+00  0.00000000000E+00  0.62061075402E+03  0.62061075402E+03  0.00000000000E+00 0.  1.
          1   -1    0    0  501    0  0.00000000000E+00 -0.00000000000E+00 -0.57944652840E+02  0.57944652840E+02  0.00000000000E+00 0. -1.
          5    1    1    2  502    0 -0.30928559582E+02 -0.79549302546E+01  0.26749300291E+03  0.26943357868E+03  0.47000000000E+01 0.  1.
         -5    1    1    2    0  502  0.53857222980E+02  0.84410053656E+02  0.26492964725E+03  0.28325865497E+03  0.47000000000E+01 0.  1.
        -11    1    1    2    0    0  0.19518206463E+02 -0.77017572556E+02  0.23696129297E+02  0.82910635082E+02  0.00000000000E+00 0.  1.
         11    1    1    2    0    0 -0.42446869861E+02  0.56244915444E+00  0.65473217261E+01  0.42952538130E+02  0.00000000000E+00 0. -1.
<mgrwt>
<rscale>  0 0.14129159E+03</rscale>
<asrwt>0</asrwt>
<pdfrwt beam="2">  1        1 0.89145624E-02 0.14830653E+03</pdfrwt>
<pdfrwt beam="1">  1       -1 0.95478573E-01 0.14830653E+03</pdfrwt>
<totfact> 0.82947055E+02</totfact>
</mgrwt>
</event>
<event>
 6    1  0.7457796E-006  0.1272385E+03  0.7546771E-02  0.1245672E+00
          2   -1    0    0  501    0  0.00000000000E+00  0.00000000000E+00  0.24962247998E+03  0.24962247998E+03  0.00000000000E+00 0. -1.
         -2   -1    0    0    0  501 -0.00000000000E+00 -0.00000000000E+00 -0.50424111265E+02  0.50424111265E+02  0.00000000000E+00 0.  1.
          5    1    1    2  502    0 -0.27424854367E+02 -0.43412039531E+02  0.80806987718E+02  0.95857118032E+02  0.47000000000E+01 0.  1.
         -5    1    1    2    0  502  0.49932020531E+02  0.35919835372E+02  0.15187427405E+02  0.63531009740E+02  0.47000000000E+01 0.  1.
        -11    1    1    2    0    0 -0.26507688044E+02  0.44703806586E+02  0.34372901936E+02  0.62310386263E+02  0.00000000000E+00 0.  1.
         11    1    1    2    0    0  0.40005218806E+01 -0.37211602427E+02  0.68831051657E+02  0.78348077212E+02  0.00000000000E+00 0. -1.
<mgrwt>
<rscale>  0 0.11845275E+03</rscale>
<asrwt>0</asrwt>
<pdfrwt beam="1">  1        2 0.38403457E-01 0.12723855E+03</pdfrwt>
<pdfrwt beam="2">  1       -2 0.77575558E-02 0.12723855E+03</pdfrwt>
<totfact> 0.12405695E+04</totfact>
</mgrwt>
</event>
<event>
 6    1  0.7457796E-006  0.1676945E+03  0.7546771E-02  0.1187376E+00
         -2   -1    0    0    0  501 -0.00000000000E+00  0.00000000000E+00  0.81131504711E+02  0.81131504711E+02  0.00000000000E+00 0.  1.
          2   -1    0    0  501    0  0.00000000000E+00 -0.00000000000E+00 -0.33362320768E+03  0.33362320768E+03  0.00000000000E+00 0. -1.
          5    1    1    2  502    0 -0.32879397531E+02  0.54194901355E+02 -0.37628176551E+02  0.73865497937E+02  0.47000000000E+01 0. -1.
         -5    1    1    2    0  502  0.94879344010E+02  0.38819392353E+02 -0.29620597380E+02  0.10681060309E+03  0.47000000000E+01 0. -1.
        -11    1    1    2    0    0 -0.46721763539E+02 -0.30953389686E+02 -0.15206971144E+03  0.16206860479E+03  0.00000000000E+00 0. -1.
         11    1    1    2    0    0 -0.15278182940E+02 -0.62060904021E+02 -0.33173217603E+02  0.72010006582E+02  0.00000000000E+00 0.  1.
<mgrwt>
<rscale>  0 0.16117576E+03</rscale>
<asrwt>0</asrwt>
<pdfrwt beam="2">  1        2 0.51326647E-01 0.16769453E+03</pdfrwt>
<pdfrwt beam="1">  1       -2 0.12481770E-01 0.16769453E+03</pdfrwt>
<totfact> 0.43925202E+03</totfact>
</mgrwt>
</event>
<event>
 6    1  0.7457796E-006  0.1734859E+03  0.7546771E-02  0.1179719E+00
         -1   -1    0    0    0  501 -0.00000000000E+00  0.00000000000E+00  0.12271311804E+03  0.12271311804E+03  0.00000000000E+00 0.  1.
          1   -1    0    0  501    0  0.00000000000E+00 -0.00000000000E+00 -0.23306930004E+03  0.23306930004E+03  0.00000000000E+00 0. -1.
          5    1    1    2  502    0  0.63741932935E+02 -0.11025445918E+02  0.30664559338E+02  0.71742593147E+02  0.47000000000E+01 0.  1.
         -5    1    1    2    0  502  0.28781063814E+02  0.87858647009E+02 -0.43313162612E+02  0.10220377461E+03  0.47000000000E+01 0.  1.
        -11    1    1    2    0    0 -0.44295752747E+02 -0.56728799886E+02 -0.10751263173E+01  0.71982125174E+02  0.00000000000E+00 0.  1.
         11    1    1    2    0    0 -0.48227244002E+02 -0.20104401204E+02 -0.96632452416E+02  0.10985392515E+03  0.00000000000E+00 0. -1.
<mgrwt>
<rscale>  0 0.16821789E+03</rscale>
<asrwt>0</asrwt>
<pdfrwt beam="2">  1        1 0.35856815E-01 0.17348588E+03</pdfrwt>
<pdfrwt beam="1">  1       -1 0.18878942E-01 0.17348588E+03</pdfrwt>
<totfact> 0.26236090E+03</totfact>
</mgrwt>
</event>
<event>
 6    1  0.7457796E-006  0.1455058E+03  0.7546771E-02  0.1216335E+00
          1   -1    0    0  501    0  0.00000000000E+00  0.00000000000E+00  0.39551730142E+03  0.39551730142E+03  0.00000000000E+00 0. -1.
         -1   -1    0    0    0  501 -0.00000000000E+00 -0.00000000000E+00 -0.44345608103E+02  0.44345608103E+02  0.00000000000E+00 0.  1.
          5    1    1    2  502    0  0.30111145844E+02 -0.56857834672E+02  0.16792492979E+03  0.17988987329E+03  0.47000000000E+01 0.  1.
         -5    1    1    2    0  502  0.34560044317E+02  0.19912930026E+02 -0.27231342668E+01  0.40254526524E+02  0.47000000000E+01 0.  1.
        -11    1    1    2    0    0 -0.32153851348E+02  0.64950178520E+02  0.13378739237E+03  0.15215604557E+03  0.00000000000E+00 0. -1.
         11    1    1    2    0    0 -0.32517338813E+02 -0.28005273874E+02  0.52182505427E+02  0.67562464142E+02  0.00000000000E+00 0.  1.
<mgrwt>
<rscale>  0 0.13778952E+03</rscale>
<asrwt>0</asrwt>
<pdfrwt beam="1">  1        1 0.60848813E-01 0.14550575E+03</pdfrwt>
<pdfrwt beam="2">  1       -1 0.68224015E-02 0.14550575E+03</pdfrwt>
<totfact> 0.64906247E+03</totfact>
</mgrwt>
</event>
<event>
 6    1  0.7457796E-006  0.1379579E+03  0.7546771E-02  0.1228164E+00
          1   -1    0    0  501    0  0.00000000000E+00  0.00000000000E+00  0.99082413013E+03  0.99082413013E+03  0.00000000000E+00 0. -1.
         -1   -1    0    0    0  501 -0.00000000000E+00 -0.00000000000E+00 -0.16676108408E+02  0.16676108408E+02  0.00000000000E+00 0.  1.
          5    1    1    2  502    0 -0.10924133740E+02  0.96398412467E+02  0.26971123679E+03  0.28666745869E+03  0.47000000000E+01 0. -1.
         -5    1    1    2    0  502  0.13666535896E+02 -0.38102007048E+02  0.12233233599E+03  0.12894117873E+03  0.47000000000E+01 0. -1.
        -11    1    1    2    0    0 -0.40457951602E+02 -0.56234451102E+02  0.36182394830E+03  0.36839615756E+03  0.00000000000E+00 0.  1.
         11    1    1    2    0    0  0.37715549446E+02 -0.20619543169E+01  0.22028050065E+03  0.22349544356E+03  0.00000000000E+00 0. -1.
<mgrwt>
<rscale>  0 0.12952400E+03</rscale>
<asrwt>0</asrwt>
<pdfrwt beam="1">  1        1 0.15243443E+00 0.13795788E+03</pdfrwt>
<pdfrwt beam="2">  1       -1 0.25655559E-02 0.13795788E+03</pdfrwt>
<totfact> 0.74914488E+03</totfact>
</mgrwt>
</event>
<event>
 6    1  0.7457796E-006  0.1262040E+03  0.7546771E-02  0.1249114E+00
          2   -1    0    0  501    0  0.00000000000E+00  0.00000000000E+00  0.68402127606E+03  0.68402127606E+03  0.00000000000E+00 0.  1.
         -2   -1    0    0    0  501 -0.00000000000E+00 -0.00000000000E+00 -0.19790499914E+02  0.19790499914E+02  0.00000000000E+00 0. -1.
          5    1    1    2  502    0 -0.17020828059E+02  0.30275713774E+02  0.13744173611E+02  0.37647307216E+02  0.47000000000E+01 0.  1.
         -5    1    1    2    0  502  0.27119728882E+02 -0.44416156663E+02  0.24155812640E+03  0.24714508512E+03  0.47000000000E+01 0.  1.
        -11    1    1    2    0    0 -0.44320502024E+02 -0.14642420549E+02  0.21211315925E+03  0.21718816659E+03  0.00000000000E+00 0.  1.
         11    1    1    2    0    0  0.34221601201E+02  0.28782863438E+02  0.19681531689E+03  0.20183121705E+03  0.00000000000E+00 0. -1.
<mgrwt>
<rscale>  0 0.11642505E+03</rscale>
<asrwt>0</asrwt>
<pdfrwt beam="1">  1        2 0.10523402E+00 0.12620397E+03</pdfrwt>
<pdfrwt beam="2">  1       -2 0.30446928E-02 0.12620397E+03</pdfrwt>
<totfact> 0.16855762E+04</totfact>
</mgrwt>
</event>
<event>
 6    1  0.7457796E-006  0.1393753E+03  0.7546771E-02  0.1226846E+00
         -2   -1    0    0    0  501 -0.00000000000E+00  0.00000000000E+00  0.38519557428E+02  0.38519557428E+02  0.00000000000E+00 0.  1.
          2   -1    0    0  501    0  0.00000000000E+00 -0.00000000000E+00 -0.39374688030E+03  0.39374688030E+03  0.00000000000E+00 0. -1.
          5    1    1    2  502    0 -0.51791029322E+02 -0.79985928049E+02 -0.10416884140E+03  0.14125613941E+03  0.47000000000E+01 0. -1.
         -5    1    1    2    0  502  0.77743908551E+01  0.36817547674E+02 -0.90855315078E+02  0.98451771176E+02  0.47000000000E+01 0. -1.
        -11    1    1    2    0    0  0.66634367935E+02  0.41633242477E+02 -0.93619302570E+02  0.12222127345E+03  0.00000000000E+00 0. -1.
         11    1    1    2    0    0 -0.22617729468E+02  0.15351378980E+01 -0.66583863824E+02  0.70337253688E+02  0.00000000000E+00 0.  1.
<mgrwt>
<rscale>  0 0.13041205E+03</rscale>
<asrwt>0</asrwt>
<pdfrwt beam="2">  1        2 0.60576444E-01 0.13937525E+03</pdfrwt>
<pdfrwt beam="1">  1       -2 0.59260857E-02 0.13937525E+03</pdfrwt>
<totfact> 0.11622575E+04</totfact>
</mgrwt>
</event>
<event>
 6    1  0.7457796E-006  0.2743437E+03  0.7546771E-02  0.1098819E+00
          2   -1    0    0  501    0  0.00000000000E+00  0.00000000000E+00  0.57847238311E+02  0.57847238311E+02  0.00000000000E+00 0. -1.
         -2   -1    0    0    0  501 -0.00000000000E+00 -0.00000000000E+00 -0.32527250810E+03  0.32527250810E+03  0.00000000000E+00 0.  1.
          5    1    1    2  502    0  0.37088269718E+02  0.81096972304E+02 -0.13697617300E+03  0.16351397689E+03  0.47000000000E+01 0. -1.
         -5    1    1    2    0  502 -0.98985654468E+01 -0.29613224134E+02 -0.18780991211E+02  0.36738811527E+02  0.47000000000E+01 0.  1.
        -11    1    1    2    0    0 -0.51281870760E+02 -0.80307236998E+02 -0.42877195081E+02  0.10448701566E+03  0.00000000000E+00 0.  1.
         11    1    1    2    0    0  0.24092166489E+02  0.28823488828E+02 -0.68790910495E+02  0.78379942339E+02  0.00000000000E+00 0. -1.
<mgrwt>
<rscale>  0 0.27434370E+03</rscale>
<asrwt>0</asrwt>
<pdfrwt beam="1">  1        2 0.88995751E-02 0.27434370E+03</pdfrwt>
<pdfrwt beam="2">  1       -2 0.50041924E-01 0.27434370E+03</pdfrwt>
<totfact> 0.28359405E+03</totfact>
</mgrwt>
</event>
<event>
 6    1  0.7457796E-006  0.1369494E+03  0.7546771E-02  0.1229060E+00
         -2   -1    0    0    0  501 -0.00000000000E+00  0.00000000000E+00  0.14476021096E+02  0.14476021096E+02  0.00000000000E+00 0.  1.
          2   -1    0    0  501    0  0.00000000000E+00 -0.00000000000E+00 -0.10625834404E+04  0.10625834404E+04  0.00000000000E+00 0. -1.
          5    1    1    2  502    0 -0.53366516618E+02 -0.44086179355E+01 -0.28356077397E+03  0.28861085139E+03  0.47000000000E+01 0.  1.
         -5    1    1    2    0  502  0.47744699498E+02  0.60107865983E+02 -0.21173092557E+03  0.22526559153E+03  0.47000000000E+01 0.  1.
        -11    1    1    2    0    0  0.33076963062E+02  0.11034633497E+02 -0.15477946670E+03  0.15865853880E+03  0.00000000000E+00 0.  1.
         11    1    1    2    0    0 -0.27455145943E+02 -0.66733881545E+02 -0.39803625302E+03  0.40452447973E+03  0.00000000000E+00 0. -1.
<mgrwt>
<rscale>  0 0.12892472E+03</rscale>
<asrwt>0</asrwt>
<pdfrwt beam="2">  1        2 0.16347437E+00 0.13694937E+03</pdfrwt>
<pdfrwt beam="1">  1       -2 0.22270803E-02 0.13694937E+03</pdfrwt>
<totfact> 0.15224433E+04</totfact>
</mgrwt>
</event>
<event>
 6    1  0.7457796E-006  0.1522940E+03  0.7546771E-02  0.1206519E+00
          1   -1    0    0  501    0  0.00000000000E+00  0.00000000000E+00  0.27699479140E+02  0.27699479140E+02  0.00000000000E+00 0. -1.
         -1   -1    0    0    0  501 -0.00000000000E+00 -0.00000000000E+00 -0.69792568178E+03  0.69792568178E+03  0.00000000000E+00 0.  1.
          5    1    1    2  502    0 -0.48123385600E+02 -0.65464797979E+02 -0.17673032851E+03  0.19456926538E+03  0.47000000000E+01 0. -1.
         -5    1    1    2    0  502  0.67136137713E+02 -0.19427252812E+02 -0.19165294796E+03  0.20405298723E+03  0.47000000000E+01 0. -1.
        -11    1    1    2    0    0  0.32371975037E+02  0.43725079394E+02 -0.18558761449E+03  0.19339749219E+03  0.00000000000E+00 0.  1.
         11    1    1    2    0    0 -0.51384727150E+02  0.41166971397E+02 -0.11625531169E+03  0.13360541611E+03  0.00000000000E+00 0. -1.
<mgrwt>
<rscale>  0 0.14518405E+03</rscale>
<asrwt>0</asrwt>
<pdfrwt beam="1">  1        1 0.42614584E-02 0.15229400E+03</pdfrwt>
<pdfrwt beam="2">  1       -1 0.10737318E+00 0.15229400E+03</pdfrwt>
<totfact> 0.17457487E+03</totfact>
</mgrwt>
</event>
<event>
 6    1  0.7457796E-006  0.1264816E+03  0.7546771E-02  0.1248965E+00
          1   -1    0    0  501    0  0.00000000000E+00  0.00000000000E+00  0.22133421258E+02  0.22133421258E+02  0.00000000000E+00 0. -1.
         -1   -1    0    0    0  501 -0.00000000000E+00 -0.00000000000E+00 -0.83556207040E+03  0.83556207040E+03  0.00000000000E+00 0.  1.
          5    1    1    2  502    0  0.68687690917E+02  0.15961161083E+02 -0.35065760238E+03  0.35770882244E+03  0.47000000000E+01 0.  1.
         -5    1    1    2    0  502 -0.54482611897E+02 -0.30350349260E+01 -0.35359106933E+03  0.35780763093E+03  0.47000000000E+01 0.  1.
        -11    1    1    2    0    0 -0.46527379449E+02 -0.87990189169E+01 -0.28743674572E+02  0.55393308262E+02  0.00000000000E+00 0. -1.
         11    1    1    2    0    0  0.32322300429E+02 -0.41271072403E+01 -0.80436302854E+02  0.86785730026E+02  0.00000000000E+00 0.  1.
<mgrwt>
<rscale>  0 0.11651185E+03</rscale>
<asrwt>0</asrwt>
<pdfrwt beam="1">  1        1 0.34051416E-02 0.12648163E+03</pdfrwt>
<pdfrwt beam="2">  1       -1 0.12854801E+00 0.12648163E+03</pdfrwt>
<totfact> 0.15502961E+03</totfact>
</mgrwt>
</event>
<event>
 6    1  0.7457796E-006  0.1171160E+03  0.7546771E-02  0.1253291E+00
          2   -1    0    0  501    0  0.00000000000E+00  0.00000000000E+00  0.60116237532E+03  0.60116237532E+03  0.00000000000E+00 0. -1.
         -2   -1    0    0    0  501 -0.00000000000E+00 -0.00000000000E+00 -0.25958399242E+02  0.25958399242E+02  0.00000000000E+00 0.  1.
          5    1    1    2  502    0  0.39717262925E+02 -0.46943784995E+02  0.11418180103E+03  0.12977192921E+03  0.47000000000E+01 0. -1.
         -5    1    1    2    0  502 -0.13079728333E+01  0.50106735112E+02  0.42763889635E+02  0.66054795081E+02  0.47000000000E+01 0.  1.
        -11    1    1    2    0    0  0.24421013810E+02  0.26256511980E+02  0.14164836668E+03  0.14611656346E+03  0.00000000000E+00 0.  1.
         11    1    1    2    0    0 -0.62830303902E+02 -0.29419462097E+02  0.27660991874E+03  0.28517748681E+03  0.00000000000E+00 0. -1.
<mgrwt>
<rscale>  0 0.11402576E+03</rscale>
<asrwt>0</asrwt>
<pdfrwt beam="1">  1        2 0.92486509E-01 0.11711599E+03</pdfrwt>
<pdfrwt beam="2">  1       -2 0.39936003E-02 0.11711599E+03</pdfrwt>
<totfact> 0.13037943E+04</totfact>
</mgrwt>
</event>
<event>
 6    1  0.9333879E-006  0.1917711E+03  0.7546771E-02  0.1161433E+00
         -3   -1    0    0    0  501 -0.00000000000E+00  0.00000000000E+00  0.23482335500E+03  0.23482335500E+03  0.00000000000E+00 0.  1.
          3   -1    0    0  501    0  0.00000000000E+00 -0.00000000000E+00 -0.17411988768E+03  0.17411988768E+03  0.00000000000E+00 0. -1.
          5    1    1    2  502    0 -0.18193846310E+02  0.15733723014E+03  0.10816241907E+03  0.19185207565E+03  0.47000000000E+01 0. -1.
         -5    1    1    2    0  502  0.29532992079E+02 -0.12342912965E+02  0.12277496987E+02  0.34603064227E+02  0.47000000000E+01 0. -1.
        -11    1    1    2    0    0 -0.15525942161E+02 -0.12706066426E+03 -0.87806116679E+01  0.12830653305E+03  0.00000000000E+00 0.  1.
         11    1    1    2    0    0  0.41867963922E+01 -0.17933652910E+02 -0.50955837059E+02  0.54181569755E+02  0.00000000000E+00 0. -1.
<mgrwt>
<rscale>  0 0.18674246E+03</rscale>
<asrwt>0</asrwt>
<pdfrwt beam="2">  1        3 0.26787675E-01 0.19177111E+03</pdfrwt>
<pdfrwt beam="1">  1       -3 0.36126670E-01 0.19177111E+03</pdfrwt>
<totfact> 0.24327859E+02</totfact>
</mgrwt>
</event>
<event>
 6    1  0.7457796E-006  0.1482555E+03  0.7546771E-02  0.1212737E+00
         -2   -1    0    0    0  501 -0.00000000000E+00  0.00000000000E+00  0.93407465974E+02  0.93407465974E+02  0.00000000000E+00 0.  1.
          2   -1    0    0  501    0  0.00000000000E+00 -0.00000000000E+00 -0.19385802525E+03  0.19385802525E+03  0.00000000000E+00 0. -1.
          5    1    1    2  502    0 -0.29147851447E+02  0.29689682855E+02  0.15638678320E+02  0.44696003978E+02  0.47000000000E+01 0. -1.
         -5    1    1    2    0  502 -0.22274876097E+02 -0.90585729568E+02 -0.56204708820E+02  0.10900919136E+03  0.47000000000E+01 0. -1.
        -11    1    1    2    0    0  0.73230059840E+02  0.63709129725E+02 -0.44861231029E+02  0.10693000011E+03  0.00000000000E+00 0. -1.
         11    1    1    2    0    0 -0.21807332296E+02 -0.28130830122E+01 -0.15023297743E+02  0.26630295773E+02  0.00000000000E+00 0.  1.
<mgrwt>
<rscale>  0 0.14044079E+03</rscale>
<asrwt>0</asrwt>
<pdfrwt beam="2">  1        2 0.29824311E-01 0.14825547E+03</pdfrwt>
<pdfrwt beam="1">  1       -2 0.14370380E-01 0.14825547E+03</pdfrwt>
<totfact> 0.62124110E+03</totfact>
</mgrwt>
</event>
<event>
 6    1  0.7457796E-006  0.2623543E+03  0.7546771E-02  0.1105737E+00
         -2   -1    0    0    0  501 -0.00000000000E+00  0.00000000000E+00  0.82218700488E+02  0.82218700488E+02  0.00000000000E+00 0.  1.
          2   -1    0    0  501    0  0.00000000000E+00 -0.00000000000E+00 -0.20928871271E+03  0.20928871271E+03  0.00000000000E+00 0. -1.
          5    1    1    2  502    0 -0.21714982310E+02 -0.27446597516E+02 -0.32303304063E+02  0.47858642117E+02  0.47000000000E+01 0.  1.
         -5    1    1    2    0  502  0.28918628815E+02  0.91225060935E+02  0.22116107516E+01  0.95839866743E+02  0.47000000000E+01 0.  1.
        -11    1    1    2    0    0  0.33210636355E+02 -0.39128377761E+02 -0.84481039564E+02  0.98848481825E+02  0.00000000000E+00 0.  1.
         11    1    1    2    0    0 -0.40414282860E+02 -0.24650085658E+02 -0.12497279351E+02  0.48960422518E+02  0.00000000000E+00 0. -1.
<mgrwt>
<rscale>  0 0.26235431E+03</rscale>
<asrwt>0</asrwt>
<pdfrwt beam="2">  1        2 0.32198263E-01 0.26235431E+03</pdfrwt>
<pdfrwt beam="1">  1       -2 0.12649031E-01 0.26235431E+03</pdfrwt>
<totfact> 0.72770530E+03</totfact>
</mgrwt>
</event>
<event>
 6    1  0.7457796E-006  0.1611959E+03  0.7546771E-02  0.1191870E+00
          1   -1    0    0  501    0  0.00000000000E+00  0.00000000000E+00  0.89190854698E+02  0.89190854698E+02  0.00000000000E+00 0. -1.
         -1   -1    0    0    0  501 -0.00000000000E+00 -0.00000000000E+00 -0.37129158087E+03  0.37129158087E+03  0.00000000000E+00 0.  1.
          5    1    1    2  502    0 -0.56719571402E+02  0.11409078278E+03 -0.18373117057E+03  0.22363597549E+03  0.47000000000E+01 0. -1.
         -5    1    1    2    0  502  0.20929448543E+02 -0.18809028854E+02 -0.85814118239E+02  0.90432152866E+02  0.47000000000E+01 0. -1.
        -11    1    1    2    0    0  0.66792788126E+02 -0.82980875537E+02  0.86773393331E+01  0.10687562149E+03  0.00000000000E+00 0.  1.
         11    1    1    2    0    0 -0.31002665266E+02 -0.12300878385E+02 -0.21232776695E+02  0.39538685725E+02  0.00000000000E+00 0. -1.
<mgrwt>
<rscale>  0 0.15722107E+03</rscale>
<asrwt>0</asrwt>
<pdfrwt beam="1">  1        1 0.13721670E-01 0.16119593E+03</pdfrwt>
<pdfrwt beam="2">  1       -1 0.57121780E-01 0.16119593E+03</pdfrwt>
<totfact> 0.13219644E+03</totfact>
</mgrwt>
</event>
<event>
 6    1  0.7457796E-006  0.1602027E+03  0.7546771E-02  0.1195873E+00
          2   -1    0    0  501    0  0.00000000000E+00  0.00000000000E+00  0.26479852978E+03  0.26479852978E+03  0.00000000000E+00 0. -1.
         -2   -1    0    0    0  501 -0.00000000000E+00 -0.00000000000E+00 -0.83875076604E+02  0.83875076604E+02  0.00000000000E+00 0.  1.
          5    1    1    2  502    0 -0.73082714097E+02 -0.28189297132E+02  0.94840079907E+02  0.12309528963E+03  0.47000000000E+01 0. -1.
         -5    1    1    2    0  502 -0.25445491654E+02  0.46443186762E+02 -0.15911880811E+02  0.55495230363E+02  0.47000000000E+01 0. -1.
        -11    1    1    2    0    0  0.83280683801E+02  0.37464004996E+00  0.21424819165E+02  0.85993229534E+02  0.00000000000E+00 0.  1.
         11    1    1    2    0    0  0.15247521950E+02 -0.18628529680E+02  0.80570434910E+02  0.84089856851E+02  0.00000000000E+00 0. -1.
<mgrwt>
<rscale>  0 0.15380585E+03</rscale>
<asrwt>0</asrwt>
<pdfrwt beam="1">  1        2 0.40738235E-01 0.16020273E+03</pdfrwt>
<pdfrwt beam="2">  1       -2 0.12903858E-01 0.16020273E+03</pdfrwt>
<totfact> 0.53139537E+03</totfact>
</mgrwt>
</event>
<event>
 6    1  0.7457796E-006  0.2140355E+03  0.7546771E-02  0.1142004E+00
          1   -1    0    0  501    0  0.00000000000E+00  0.00000000000E+00  0.34510596593E+03  0.34510596593E+03  0.00000000000E+00 0. -1.
         -1   -1    0    0    0  501 -0.00000000000E+00 -0.00000000000E+00 -0.15966340664E+03  0.15966340664E+03  0.00000000000E+00 0.  1.
          5    1    1    2  502    0 -0.68389128849E+02 -0.23049402175E+02 -0.45125369994E+02  0.85245157648E+02  0.47000000000E+01 0. -1.
         -5    1    1    2    0  502 -0.18036257243E+02 -0.12781071774E+03  0.18346360752E+02  0.13045905525E+03  0.47000000000E+01 0. -1.
        -11    1    1    2    0    0  0.73249526101E+02  0.38731838601E+02  0.79643016871E+02  0.11492892818E+03  0.00000000000E+00 0.  1.
         11    1    1    2    0    0  0.13175859991E+02  0.11212828132E+03  0.13257855166E+03  0.17413623149E+03  0.00000000000E+00 0. -1.
<mgrwt>
<rscale>  0 0.20944793E+03</rscale>
<asrwt>0</asrwt>
<pdfrwt beam="1">  1        1 0.53093225E-01 0.21403549E+03</pdfrwt>
<pdfrwt beam="2">  1       -1 0.24563601E-01 0.21403549E+03</pdfrwt>
<totfact> 0.10500116E+03</totfact>
</mgrwt>
</event>
<event>
 6    1  0.7457796E-006  0.1433191E+03  0.7546771E-02  0.1220487E+00
          3   -1    0    0  501    0  0.00000000000E+00  0.00000000000E+00  0.20569650519E+03  0.20569650519E+03  0.00000000000E+00 0. -1.
         -3   -1    0    0    0  501 -0.00000000000E+00 -0.00000000000E+00 -0.81350513192E+02  0.81350513192E+02  0.00000000000E+00 0.  1.
          5    1    1    2  502    0 -0.91354037710E+02 -0.29615482019E+02  0.45362709560E+02  0.10631322777E+03  0.47000000000E+01 0. -1.
         -5    1    1    2    0  502  0.28829340024E+02  0.32702515370E+02  0.46531238344E+02  0.63936151743E+02  0.47000000000E+01 0.  1.
        -11    1    1    2    0    0 -0.22150055785E+02 -0.81684140211E+01 -0.48994279681E+01  0.24111249518E+02  0.00000000000E+00 0.  1.
         11    1    1    2    0    0  0.84674753471E+02  0.50813806700E+01  0.37351472060E+02  0.92686389346E+02  0.00000000000E+00 0. -1.
<mgrwt>
<rscale>  0 0.13481088E+03</rscale>
<asrwt>0</asrwt>
<pdfrwt beam="1">  1        3 0.31645616E-01 0.14331906E+03</pdfrwt>
<pdfrwt beam="2">  1       -3 0.12515464E-01 0.14331906E+03</pdfrwt>
<totfact> 0.11421713E+03</totfact>
</mgrwt>
</event>
<event>
 6    1  0.7457796E-006  0.3255827E+03  0.7546771E-02  0.1074584E+00
         -1   -1    0    0    0  501 -0.00000000000E+00  0.00000000000E+00  0.31101619625E+03  0.31101619625E+03  0.00000000000E+00 0.  1.
          1   -1    0    0  501    0  0.00000000000E+00 -0.00000000000E+00 -0.58807135856E+03  0.58807135856E+03  0.00000000000E+00 0. -1.
          5    1    1    2  502    0  0.13878931333E+03 -0.41079036428E+02  0.84423591178E+02  0.16762873702E+03  0.47000000000E+01 0. -1.
         -5    1    1    2    0  502  0.15749054608E+03  0.86747589918E+02  0.74688871856E+02  0.19475352125E+03  0.47000000000E+01 0.  1.
        -11    1    1    2    0    0 -0.16405571335E+03 -0.12050001281E+02 -0.16413846782E+03  0.23238097218E+03  0.00000000000E+00 0. -1.
         11    1    1    2    0    0 -0.13222414606E+03 -0.33618552209E+02 -0.27202915751E+03  0.30432432435E+03  0.00000000000E+00 0.  1.
<mgrwt>
<rscale>  0 0.32232512E+03</rscale>
<asrwt>0</asrwt>
<pdfrwt beam="2">  1        1 0.90472516E-01 0.32558275E+03</pdfrwt>
<pdfrwt beam="1">  1       -1 0.47848646E-01 0.32558275E+03</pdfrwt>
<totfact> 0.16181148E+02</totfact>
</mgrwt>
</event>
<event>
 6    1  0.7457796E-006  0.1632308E+03  0.7546771E-02  0.1192776E+00
          2   -1    0    0  501    0  0.00000000000E+00  0.00000000000E+00  0.16315068651E+03  0.16315068651E+03  0.00000000000E+00 0. -1.
         -2   -1    0    0    0  501 -0.00000000000E+00 -0.00000000000E+00 -0.14405026043E+03  0.14405026043E+03  0.00000000000E+00 0.  1.
          5    1    1    2  502    0 -0.14409579734E+02  0.12253031752E+03  0.51036636982E+02  0.13359694239E+03  0.47000000000E+01 0. -1.
         -5    1    1    2    0  502  0.26380825206E+02 -0.18243116325E+02 -0.11425409863E+02  0.34371343039E+02  0.47000000000E+01 0. -1.
        -11    1    1    2    0    0  0.35614290908E+02 -0.20406477643E+02 -0.98106583734E+01  0.42202500689E+02  0.00000000000E+00 0.  1.
         11    1    1    2    0    0 -0.47585536380E+02 -0.83880723556E+02 -0.10700142673E+02  0.97030160826E+02  0.00000000000E+00 0. -1.
<mgrwt>
<rscale>  0 0.15643928E+03</rscale>
<asrwt>0</asrwt>
<pdfrwt beam="1">  1        2 0.25100106E-01 0.16323080E+03</pdfrwt>
<pdfrwt beam="2">  1       -2 0.22161579E-01 0.16323080E+03</pdfrwt>
<totfact> 0.36556865E+03</totfact>
</mgrwt>
</event>
<event>
 6    1  0.7457796E-006  0.1367792E+03  0.7546771E-02  0.1230133E+00
         -1   -1    0    0    0  501 -0.00000000000E+00  0.00000000000E+00  0.38755814093E+03  0.38755814093E+03  0.00000000000E+00 0.  1.
          1   -1    0    0  501    0  0.00000000000E+00 -0.00000000000E+00 -0.38406937838E+02  0.38406937838E+02  0.00000000000E+00 0. -1.
          5    1    1    2  502    0 -0.26972327063E+02 -0.37375506065E+02  0.68348380287E+02  0.82571338663E+02  0.47000000000E+01 0. -1.
         -5    1    1    2    0  502  0.84514357992E+01  0.89721941964E+02  0.15276930818E+03  0.17743169153E+03  0.47000000000E+01 0. -1.
        -11    1    1    2    0    0  0.45291705645E+02 -0.15306107764E+01  0.37866661798E+02  0.59055613156E+02  0.00000000000E+00 0. -1.
         11    1    1    2    0    0 -0.26770814381E+02 -0.50815825123E+02  0.90166852829E+02  0.10690643542E+03  0.00000000000E+00 0.  1.
<mgrwt>
<rscale>  0 0.12821190E+03</rscale>
<asrwt>0</asrwt>
<pdfrwt beam="2">  1        1 0.59087599E-02 0.13677918E+03</pdfrwt>
<pdfrwt beam="1">  1       -1 0.59624327E-01 0.13677918E+03</pdfrwt>
<totfact> 0.37284214E+03</totfact>
</mgrwt>
</event>
<event>
 6    1  0.7457796E-006  0.1422645E+03  0.7546771E-02  0.1220610E+00
          2   -1    0    0  501    0  0.00000000000E+00  0.00000000000E+00  0.13204397059E+03  0.13204397059E+03  0.00000000000E+00 0. -1.
         -2   -1    0    0    0  501 -0.00000000000E+00 -0.00000000000E+00 -0.18632921657E+03  0.18632921657E+03  0.00000000000E+00 0.  1.
          5    1    1    2  502    0 -0.19185050908E+01 -0.49238449585E+02 -0.31758922463E+02  0.58811773781E+02  0.47000000000E+01 0.  1.
         -5    1    1    2    0  502  0.68888833000E+02  0.60405044018E+02 -0.88513155399E+02  0.12747983893E+03  0.47000000000E+01 0.  1.
        -11    1    1    2    0    0 -0.29927160920E+02  0.13690232617E+02 -0.17611109577E+02  0.37325709777E+02  0.00000000000E+00 0.  1.
         11    1    1    2    0    0 -0.37043166990E+02 -0.24856827051E+02  0.83597941464E+02  0.94755864666E+02  0.00000000000E+00 0. -1.
<mgrwt>
<rscale>  0 0.13472407E+03</rscale>
<asrwt>0</asrwt>
<pdfrwt beam="1">  1        2 0.20314457E-01 0.14226452E+03</pdfrwt>
<pdfrwt beam="2">  1       -2 0.28666033E-01 0.14226452E+03</pdfrwt>
<totfact> 0.29289355E+03</totfact>
</mgrwt>
</event>
<event>
 6    1  0.7457796E-006  0.1269085E+03  0.7546771E-02  0.1247100E+00
         -3   -1    0    0    0  501 -0.00000000000E+00  0.00000000000E+00  0.15523109237E+03  0.15523109237E+03  0.00000000000E+00 0.  1.
          3   -1    0    0  501    0  0.00000000000E+00 -0.00000000000E+00 -0.83066805016E+02  0.83066805016E+02  0.00000000000E+00 0. -1.
          5    1    1    2  502    0  0.10112223157E+02  0.52847433552E+02  0.53543566025E+02  0.76053348071E+02  0.47000000000E+01 0.  1.
         -5    1    1    2    0  502  0.65176181018E+01 -0.66259797764E+02  0.15902217559E+02  0.68613487513E+02  0.47000000000E+01 0.  1.
        -11    1    1    2    0    0 -0.34823707116E+02  0.28043688329E+02  0.32872236606E+02  0.55495251796E+02  0.00000000000E+00 0.  1.
         11    1    1    2    0    0  0.18193865858E+02 -0.14631324118E+02 -0.30153732840E+02  0.38135810001E+02  0.00000000000E+00 0. -1.
<mgrwt>
<rscale>  0 0.11760542E+03</rscale>
<asrwt>0</asrwt>
<pdfrwt beam="2">  1        3 0.12779508E-01 0.12690854E+03</pdfrwt>
<pdfrwt beam="1">  1       -3 0.23881706E-01 0.12690854E+03</pdfrwt>
<totfact> 0.18077982E+03</totfact>
</mgrwt>
</event>
<event>
 6    1  0.7457796E-006  0.1554182E+03  0.7546771E-02  0.1203098E+00
          1   -1    0    0  501    0  0.00000000000E+00  0.00000000000E+00  0.27094433888E+03  0.27094433888E+03  0.00000000000E+00 0. -1.
         -1   -1    0    0    0  501 -0.00000000000E+00 -0.00000000000E+00 -0.77018669006E+02  0.77018669006E+02  0.00000000000E+00 0.  1.
          5    1    1    2  502    0  0.40855498119E+00  0.22068417920E+02 -0.17314360572E+02  0.28443963659E+02  0.47000000000E+01 0. -1.
         -5    1    1    2    0  502 -0.50736470982E+02 -0.99504782134E+02  0.88102296187E+02  0.14233585546E+03  0.47000000000E+01 0. -1.
        -11    1    1    2    0    0  0.42501494579E+02  0.88248380799E+02  0.65052018822E+02  0.11758366769E+03  0.00000000000E+00 0.  1.
         11    1    1    2    0    0  0.78264214217E+01 -0.10812016585E+02  0.58085715442E+02  0.59599521083E+02  0.00000000000E+00 0. -1.
<mgrwt>
<rscale>  0 0.14788342E+03</rscale>
<asrwt>0</asrwt>
<pdfrwt beam="1">  1        1 0.41683744E-01 0.15541819E+03</pdfrwt>
<pdfrwt beam="2">  1       -1 0.11849026E-01 0.15541819E+03</pdfrwt>
<totfact> 0.45085948E+03</totfact>
</mgrwt>
</event>
<event>
 6    1  0.7457796E-006  0.1255951E+03  0.7546771E-02  0.1250363E+00
          3   -1    0    0  501    0  0.00000000000E+00  0.00000000000E+00  0.15457969403E+03  0.15457969403E+03  0.00000000000E+00 0. -1.
         -3   -1    0    0    0  501 -0.00000000000E+00 -0.00000000000E+00 -0.79677853767E+02  0.79677853767E+02  0.00000000000E+00 0.  1.
          5    1    1    2  502    0  0.38084650992E+02 -0.16080609833E+02  0.51963781076E+02  0.66568394885E+02  0.47000000000E+01 0. -1.
         -5    1    1    2    0  502 -0.47698298047E+02  0.87077255222E+01 -0.35255684776E+02  0.60133230658E+02  0.47000000000E+01 0. -1.
        -11    1    1    2    0    0  0.29038669675E+02  0.41553608701E+02  0.27461956149E+02  0.57655058478E+02  0.00000000000E+00 0.  1.
         11    1    1    2    0    0 -0.19425022620E+02 -0.34180724390E+02  0.30731787817E+02  0.49900863781E+02  0.00000000000E+00 0. -1.
<mgrwt>
<rscale>  0 0.11570058E+03</rscale>
<asrwt>0</asrwt>
<pdfrwt beam="1">  1        3 0.23781491E-01 0.12559515E+03</pdfrwt>
<pdfrwt beam="2">  1       -3 0.12258131E-01 0.12559515E+03</pdfrwt>
<totfact> 0.19499856E+03</totfact>
</mgrwt>
</event>
<event>
 6    1  0.7457796E-006  0.1257125E+03  0.7546771E-02  0.1260778E+00
         -2   -1    0    0    0  501 -0.00000000000E+00  0.00000000000E+00  0.28305912859E+02  0.28305912859E+02  0.00000000000E+00 0.  1.
          2   -1    0    0  501    0  0.00000000000E+00 -0.00000000000E+00 -0.35336216127E+03  0.35336216127E+03  0.00000000000E+00 0. -1.
          5    1    1    2  502    0  0.25855875854E+02  0.52450090837E+02 -0.15916311220E+03  0.16963055335E+03  0.47000000000E+01 0.  1.
         -5    1    1    2    0  502 -0.27827016555E+02 -0.39238713381E+02 -0.28077033661E+02  0.55896594684E+02  0.47000000000E+01 0.  1.
        -11    1    1    2    0    0  0.30971758699E+02 -0.39639166483E+01 -0.27190471549E+02  0.41403915457E+02  0.00000000000E+00 0. -1.
         11    1    1    2    0    0 -0.29000617998E+02 -0.92474608084E+01 -0.11062563101E+03  0.11473701064E+03  0.00000000000E+00 0.  1.
<mgrwt>
<rscale>  0 0.10988773E+03</rscale>
<asrwt>0</asrwt>
<pdfrwt beam="2">  1        2 0.54363410E-01 0.12571246E+03</pdfrwt>
<pdfrwt beam="1">  1       -2 0.43547558E-02 0.12571246E+03</pdfrwt>
<totfact> 0.20534879E+04</totfact>
</mgrwt>
</event>
<event>
 6    1  0.7457796E-006  0.1141318E+03  0.7546771E-02  0.1263614E+00
          1   -1    0    0  501    0  0.00000000000E+00  0.00000000000E+00  0.26339801997E+03  0.26339801997E+03  0.00000000000E+00 0. -1.
         -1   -1    0    0    0  501 -0.00000000000E+00 -0.00000000000E+00 -0.56058066113E+03  0.56058066113E+03  0.00000000000E+00 0.  1.
          5    1    1    2  502    0 -0.44925327441E+02 -0.16786428270E+02 -0.13787067951E+03  0.14604959257E+03  0.47000000000E+01 0. -1.
         -5    1    1    2    0  502  0.53923265029E+02  0.60530301856E+01 -0.40845536412E+03  0.41207066404E+03  0.47000000000E+01 0.  1.
        -11    1    1    2    0    0 -0.48169330511E+02  0.13547116885E+02  0.17425822797E+03  0.18130013456E+03  0.00000000000E+00 0. -1.
         11    1    1    2    0    0  0.39171392923E+02 -0.28137188006E+01  0.74885174492E+02  0.84558289929E+02  0.00000000000E+00 0.  1.
<mgrwt>
<rscale>  0 0.10837262E+03</rscale>
<asrwt>0</asrwt>
<pdfrwt beam="1">  1        1 0.40522773E-01 0.11413183E+03</pdfrwt>
<pdfrwt beam="2">  1       -1 0.86243177E-01 0.11413183E+03</pdfrwt>
<totfact> 0.14921565E+02</totfact>
</mgrwt>
</event>
<event>
 6    1  0.7457796E-006  0.1610107E+03  0.7546771E-02  0.1195804E+00
          1   -1    0    0  501    0  0.00000000000E+00  0.00000000000E+00  0.87934034433E+03  0.87934034433E+03  0.00000000000E+00 0. -1.
         -1   -1    0    0    0  501 -0.00000000000E+00 -0.00000000000E+00 -0.30164136744E+02  0.30164136744E+02  0.00000000000E+00 0.  1.
          5    1    1    2  502    0  0.19918972219E+02 -0.11946686353E+03  0.25572339305E+03  0.28299406476E+03  0.47000000000E+01 0. -1.
         -5    1    1    2    0  502  0.10462372648E+02  0.22633603558E+02  0.91417405118E+01  0.26970403613E+02  0.47000000000E+01 0. -1.
        -11    1    1    2    0    0  0.22661077186E+01  0.99048279298E+02  0.48367045967E+03  0.49371328769E+03  0.00000000000E+00 0.  1.
         11    1    1    2    0    0 -0.32647452585E+02 -0.22150193284E+01  0.10064061435E+03  0.10582672502E+03  0.00000000000E+00 0. -1.
<mgrwt>
<rscale>  0 0.15386393E+03</rscale>
<asrwt>0</asrwt>
<pdfrwt beam="1">  1        1 0.13528311E+00 0.16101066E+03</pdfrwt>
<pdfrwt beam="2">  1       -1 0.46406371E-02 0.16101066E+03</pdfrwt>
<totfact> 0.38418705E+03</totfact>
</mgrwt>
</event>
<event>
 6    1  0.7457796E-006  0.1504059E+03  0.7546771E-02  0.1208888E+00
         -2   -1    0    0    0  501 -0.00000000000E+00  0.00000000000E+00  0.57362978972E+02  0.57362978972E+02  0.00000000000E+00 0.  1.
          2   -1    0    0  501    0  0.00000000000E+00 -0.00000000000E+00 -0.34456750791E+03  0.34456750791E+03  0.00000000000E+00 0. -1.
          5    1    1    2  502    0  0.48779957919E+01 -0.29127898405E+02  0.25282279901E+02  0.39160094298E+02  0.47000000000E+01 0. -1.
         -5    1    1    2    0  502 -0.57048420415E+01 -0.54518837024E+02 -0.13870779003E+03  0.14922060792E+03  0.47000000000E+01 0. -1.
        -11    1    1    2    0    0  0.16544561652E+02  0.99779113447E+02 -0.14875453890E+03  0.17988192473E+03  0.00000000000E+00 0. -1.
         11    1    1    2    0    0 -0.15717715402E+02 -0.16132378018E+02 -0.25024479908E+02  0.33667859936E+02  0.00000000000E+00 0.  1.
<mgrwt>
<rscale>  0 0.14335214E+03</rscale>
<asrwt>0</asrwt>
<pdfrwt beam="2">  1        2 0.53010384E-01 0.15040593E+03</pdfrwt>
<pdfrwt beam="1">  1       -2 0.88250740E-02 0.15040593E+03</pdfrwt>
<totfact> 0.73048537E+03</totfact>
</mgrwt>
</event>
<event>
 6    1  0.7457796E-006  0.1891205E+03  0.7546771E-02  0.1161987E+00
          1   -1    0    0  501    0  0.00000000000E+00  0.00000000000E+00  0.14655645541E+03  0.14655645541E+03  0.00000000000E+00 0. -1.
         -1   -1    0    0    0  501 -0.00000000000E+00 -0.00000000000E+00 -0.23736811112E+03  0.23736811112E+03  0.00000000000E+00 0.  1.
          5    1    1    2  502    0  0.27979285870E+02 -0.12194125721E+03 -0.20483566184E+02  0.12686282802E+03  0.47000000000E+01 0.  1.
         -5    1    1    2    0  502 -0.45909710993E+02 -0.18837362247E+02 -0.61761855042E+02  0.79367276116E+02  0.47000000000E+01 0.  1.
        -11    1    1    2    0    0  0.36642867330E+02  0.78554558041E+01  0.16827044011E+02  0.41079889511E+02  0.00000000000E+00 0. -1.
         11    1    1    2    0    0 -0.18712442208E+02  0.13292316366E+03 -0.25393278494E+02  0.13661457288E+03  0.00000000000E+00 0.  1.
<mgrwt>
<rscale>  0 0.18614271E+03</rscale>
<asrwt>0</asrwt>
<pdfrwt beam="1">  1        1 0.22547147E-01 0.18912046E+03</pdfrwt>
<pdfrwt beam="2">  1       -1 0.36518171E-01 0.18912046E+03</pdfrwt>
<totfact> 0.15701901E+03</totfact>
</mgrwt>
</event>
<event>
 6    1  0.7457796E-006  0.2415030E+03  0.7546771E-02  0.1120420E+00
          2   -1    0    0  501    0  0.00000000000E+00  0.00000000000E+00  0.57874677801E+03  0.57874677801E+03  0.00000000000E+00 0. -1.
         -2   -1    0    0    0  501 -0.00000000000E+00 -0.00000000000E+00 -0.55689892501E+03  0.55689892501E+03  0.00000000000E+00 0.  1.
          5    1    1    2  502    0 -0.24955025174E+02 -0.58974570566E+02 -0.54335372126E+02  0.84114064929E+02  0.47000000000E+01 0. -1.
         -5    1    1    2    0  502 -0.56886502647E+00 -0.15207530263E+03 -0.45080301962E+03  0.47578637410E+03  0.47000000000E+01 0.  1.
        -11    1    1    2    0    0  0.84830653066E+01  0.15342640101E+03  0.46360417705E+03  0.48840603590E+03  0.00000000000E+00 0. -1.
         11    1    1    2    0    0  0.17040824894E+02  0.57623472189E+02  0.63382067690E+02  0.87339228099E+02  0.00000000000E+00 0.  1.
<mgrwt>
<rscale>  0 0.23906033E+03</rscale>
<asrwt>0</asrwt>
<pdfrwt beam="1">  1        2 0.89037966E-01 0.24150302E+03</pdfrwt>
<pdfrwt beam="2">  1       -2 0.85676758E-01 0.24150302E+03</pdfrwt>
<totfact> 0.65489995E+01</totfact>
</mgrwt>
</event>
<event>
 6    1  0.7457796E-006  0.1391812E+03  0.7546771E-02  0.1225720E+00
          1   -1    0    0  501    0  0.00000000000E+00  0.00000000000E+00  0.27906147348E+02  0.27906147348E+02  0.00000000000E+00 0. -1.
         -1   -1    0    0    0  501 -0.00000000000E+00 -0.00000000000E+00 -0.55593228598E+03  0.55593228598E+03  0.00000000000E+00 0.  1.
          5    1    1    2  502    0 -0.43604028577E+02  0.19954954815E+02 -0.23926878565E+03  0.24407202485E+03  0.47000000000E+01 0. -1.
         -5    1    1    2    0  502  0.47239698826E+02  0.41149874293E+02 -0.64376890542E+02  0.89952072435E+02  0.47000000000E+01 0. -1.
        -11    1    1    2    0    0  0.28591859746E+02 -0.20245185480E+02 -0.17361539871E+03  0.17711484592E+03  0.00000000000E+00 0.  1.
         11    1    1    2    0    0 -0.32227529995E+02 -0.40859643628E+02 -0.50765063735E+02  0.72699490115E+02  0.00000000000E+00 0. -1.
<mgrwt>
<rscale>  0 0.13117665E+03</rscale>
<asrwt>0</asrwt>
<pdfrwt beam="1">  1        1 0.42932538E-02 0.13918118E+03</pdfrwt>
<pdfrwt beam="2">  1       -1 0.85528036E-01 0.13918118E+03</pdfrwt>
<totfact> 0.28197987E+03</totfact>
</mgrwt>
</event>
<event>
 6    1  0.7457796E-006  0.1832788E+03  0.7546771E-02  0.1169578E+00
          1   -1    0    0  501    0  0.00000000000E+00  0.00000000000E+00  0.19434051940E+03  0.19434051940E+03  0.00000000000E+00 0. -1.
         -1   -1    0    0    0  501 -0.00000000000E+00 -0.00000000000E+00 -0.16508894672E+03  0.16508894672E+03  0.00000000000E+00 0.  1.
          5    1    1    2  502    0 -0.24249163752E+02  0.19233517928E+02 -0.65701199349E+02  0.72778346715E+02  0.47000000000E+01 0. -1.
         -5    1    1    2    0  502 -0.36791153409E+02  0.10009675677E+03  0.36493406006E+02  0.11281315689E+03  0.47000000000E+01 0. -1.
        -11    1    1    2    0    0 -0.69670498826E+00  0.13145621805E+02 -0.55430357411E+01  0.14283487519E+02  0.00000000000E+00 0.  1.
         11    1    1    2    0    0  0.61737022150E+02 -0.13247589651E+03  0.64002401762E+02  0.15955447499E+03  0.00000000000E+00 0. -1.
<mgrwt>
<rscale>  0 0.17817851E+03</rscale>
<asrwt>0</asrwt>
<pdfrwt beam="1">  1        1 0.29898541E-01 0.18327878E+03</pdfrwt>
<pdfrwt beam="2">  1       -1 0.25398300E-01 0.18327878E+03</pdfrwt>
<totfact> 0.20336529E+03</totfact>
</mgrwt>
</event>
<event>
 6    1  0.7457796E-006  0.3121986E+03  0.7546771E-02  0.1080685E+00
         -2   -1    0    0    0  501 -0.00000000000E+00  0.00000000000E+00  0.61718157409E+03  0.61718157409E+03  0.00000000000E+00 0.  1.
          2   -1    0    0  501    0  0.00000000000E+00 -0.00000000000E+00 -0.15223628882E+03  0.15223628882E+03  0.00000000000E+00 0. -1.
          5    1    1    2  502    0  0.99985418041E+02  0.12075856400E+03  0.10883091170E+03  0.19090828149E+03  0.47000000000E+01 0.  1.
         -5    1    1    2    0  502  0.15481925307E+03  0.92929973664E+01  0.12074813308E+03  0.19661526534E+03  0.47000000000E+01 0.  1.
        -11    1    1    2    0    0 -0.61292561465E+02 -0.60458626728E+02  0.29750168129E+02  0.91088397398E+02  0.00000000000E+00 0. -1.
         11    1    1    2    0    0 -0.19351210965E+03 -0.69592934639E+02  0.20561607236E+03  0.29080591869E+03  0.00000000000E+00 0.  1.
<mgrwt>
<rscale>  0 0.30929427E+03</rscale>
<asrwt>0</asrwt>
<pdfrwt beam="2">  1        2 0.23420968E-01 0.31219859E+03</pdfrwt>
<pdfrwt beam="1">  1       -2 0.94951010E-01 0.31219859E+03</pdfrwt>
<totfact> 0.22477435E+02</totfact>
</mgrwt>
</event>
<event>
 6    1  0.7457796E-006  0.3576615E+03  0.7546771E-02  0.1059514E+00
         -1   -1    0    0    0  501 -0.00000000000E+00  0.00000000000E+00  0.32695462025E+02  0.32695462025E+02  0.00000000000E+00 0.  1.
          1   -1    0    0  501    0  0.00000000000E+00 -0.00000000000E+00 -0.97813054150E+03  0.97813054150E+03  0.00000000000E+00 0. -1.
          5    1    1    2  502    0  0.18262491356E+02  0.71656090236E+01 -0.22895885498E+03  0.22984584359E+03  0.47000000000E+01 0. -1.
         -5    1    1    2    0  502  0.29853268762E+02 -0.14017649645E+03 -0.32002793388E+03  0.35068595107E+03  0.47000000000E+01 0. -1.
        -11    1    1    2    0    0  0.20835275334E+02  0.70402615231E+02 -0.19479724152E+03  0.20817445144E+03  0.00000000000E+00 0. -1.
         11    1    1    2    0    0 -0.68951035453E+02  0.62608272192E+02 -0.20165104909E+03  0.22211975742E+03  0.00000000000E+00 0.  1.
<mgrwt>
<rscale>  0 0.35766146E+03</rscale>
<asrwt>0</asrwt>
<pdfrwt beam="2">  1        1 0.15048161E+00 0.35766146E+03</pdfrwt>
<pdfrwt beam="1">  1       -1 0.50300716E-02 0.35766146E+03</pdfrwt>
<totfact> 0.29049329E+03</totfact>
</mgrwt>
</event>
<event>
 6    1  0.7457796E-006  0.1637806E+03  0.7546771E-02  0.1191578E+00
          4   -1    0    0  501    0  0.00000000000E+00  0.00000000000E+00  0.59719535035E+02  0.59719535035E+02  0.00000000000E+00 0.  1.
         -4   -1    0    0    0  501 -0.00000000000E+00 -0.00000000000E+00 -0.40686156626E+03  0.40686156626E+03  0.00000000000E+00 0. -1.
          5    1    1    2  502    0 -0.10919216126E+03  0.46717402830E+01 -0.11680201227E+03  0.16002985131E+03  0.47000000000E+01 0. -1.
         -5    1    1    2    0  502  0.10187090248E+02 -0.42065847386E+02 -0.12203694651E+03  0.12957013019E+03  0.47000000000E+01 0. -1.
        -11    1    1    2    0    0  0.80096775664E+02 -0.47867111812E+01 -0.29248939787E+02  0.85404370815E+02  0.00000000000E+00 0.  1.
         11    1    1    2    0    0  0.18908295350E+02  0.42180818285E+02 -0.79054132656E+02  0.91576748983E+02  0.00000000000E+00 0. -1.
<mgrwt>
<rscale>  0 0.15747401E+03</rscale>
<asrwt>0</asrwt>
<pdfrwt beam="1">  1        4 0.91876205E-02 0.16378065E+03</pdfrwt>
<pdfrwt beam="2">  1       -4 0.62594089E-01 0.16378065E+03</pdfrwt>
<totfact> 0.36552332E+02</totfact>
</mgrwt>
</event>
<event>
 6    1  0.7457796E-006  0.1364468E+03  0.7546771E-02  0.1236284E+00
          2   -1    0    0  501    0  0.00000000000E+00  0.00000000000E+00  0.45270936063E+03  0.45270936063E+03  0.00000000000E+00 0. -1.
         -2   -1    0    0    0  501 -0.00000000000E+00 -0.00000000000E+00 -0.32318251653E+02  0.32318251653E+02  0.00000000000E+00 0.  1.
          5    1    1    2  502    0  0.65984397826E+02  0.84919924882E+01  0.14293143271E+03  0.15772615239E+03  0.47000000000E+01 0. -1.
         -5    1    1    2    0  502 -0.52332123832E+02 -0.14836534114E+02  0.29166527595E+02  0.61899517456E+02  0.47000000000E+01 0.  1.
        -11    1    1    2    0    0 -0.14070055366E+02  0.44911515012E+02  0.18820592413E+03  0.19400123844E+03  0.00000000000E+00 0. -1.
         11    1    1    2    0    0  0.41778137238E+00 -0.38566973386E+02  0.60087224549E+02  0.71400703998E+02  0.00000000000E+00 0.  1.
<mgrwt>
<rscale>  0 0.12422617E+03</rscale>
<asrwt>0</asrwt>
<pdfrwt beam="1">  1        2 0.69647589E-01 0.13644679E+03</pdfrwt>
<pdfrwt beam="2">  1       -2 0.49720390E-02 0.13644679E+03</pdfrwt>
<totfact> 0.13015549E+04</totfact>
</mgrwt>
</event>
<event>
 6    1  0.7457796E-006  0.1890428E+03  0.7546771E-02  0.1164053E+00
         -1   -1    0    0    0  501 -0.00000000000E+00  0.00000000000E+00  0.54561691830E+03  0.54561691830E+03  0.00000000000E+00 0.  1.
          1   -1    0    0  501    0  0.00000000000E+00 -0.00000000000E+00 -0.60238329602E+02  0.60238329602E+02  0.00000000000E+00 0. -1.
          5    1    1    2  502    0  0.12016082385E+03  0.93812056729E+02  0.21783789330E+03  0.26592247617E+03  0.47000000000E+01 0. -1.
         -5    1    1    2    0  502  0.74280302711E+01 -0.31886376315E+02  0.83405672470E+02  0.89724650060E+02  0.47000000000E+01 0. -1.
        -11    1    1    2    0    0 -0.14075829218E+03 -0.51787030142E+02  0.17732337046E+03  0.23224635846E+03  0.00000000000E+00 0.  1.
         11    1    1    2    0    0  0.13169438063E+02 -0.10138650271E+02  0.68116524699E+01  0.17961763209E+02  0.00000000000E+00 0. -1.
<mgrwt>
<rscale>  0 0.18392991E+03</rscale>
<asrwt>0</asrwt>
<pdfrwt beam="2">  1        1 0.92674357E-02 0.18904283E+03</pdfrwt>
<pdfrwt beam="1">  1       -1 0.83941061E-01 0.18904283E+03</pdfrwt>
<totfact> 0.10410996E+03</totfact>
</mgrwt>
</event>
<event>
 6    1  0.7457796E-006  0.3308200E+03  0.7546771E-02  0.1070775E+00
          1   -1    0    0  501    0  0.00000000000E+00  0.00000000000E+00  0.88019457416E+02  0.88019457416E+02  0.00000000000E+00 0. -1.
         -1   -1    0    0    0  501 -0.00000000000E+00 -0.00000000000E+00 -0.31084576359E+03  0.31084576359E+03  0.00000000000E+00 0.  1.
          5    1    1    2  502    0  0.13640704725E+03  0.14645825766E+02 -0.11678049150E+03  0.18022529220E+03  0.47000000000E+01 0. -1.
         -5    1    1    2    0  502 -0.11736385396E+02 -0.24490764603E+02  0.62959107279E+01  0.28271342113E+02  0.47000000000E+01 0. -1.
        -11    1    1    2    0    0 -0.89544667945E+02 -0.42767835487E+01 -0.21841818940E+02  0.92269190359E+02  0.00000000000E+00 0. -1.
         11    1    1    2    0    0 -0.35125993913E+02  0.14121722386E+02 -0.90499906464E+02  0.98099396336E+02  0.00000000000E+00 0.  1.
<mgrwt>
<rscale>  0 0.33082004E+03</rscale>
<asrwt>0</asrwt>
<pdfrwt beam="1">  1        1 0.13541455E-01 0.33082004E+03</pdfrwt>
<pdfrwt beam="2">  1       -1 0.47822424E-01 0.33082004E+03</pdfrwt>
<totfact> 0.19094100E+03</totfact>
</mgrwt>
</event>
<event>
 6    1  0.7457796E-006  0.1262960E+03  0.7546771E-02  0.1247666E+00
          1   -1    0    0  501    0  0.00000000000E+00  0.00000000000E+00  0.39254286982E+03  0.39254286982E+03  0.00000000000E+00 0. -1.
         -1   -1    0    0    0  501 -0.00000000000E+00 -0.00000000000E+00 -0.36153573696E+02  0.36153573696E+02  0.00000000000E+00 0.  1.
          5    1    1    2  502    0 -0.60223501560E+02 -0.11226205493E+02  0.71474392070E+02  0.94252727025E+02  0.47000000000E+01 0. -1.
         -5    1    1    2    0  502  0.62979859657E+02 -0.65930945833E+01  0.47988478737E+02  0.79592183725E+02  0.47000000000E+01 0. -1.
        -11    1    1    2    0    0  0.30268427396E+02  0.42226175469E+02  0.11488424476E+03  0.12608575370E+03  0.00000000000E+00 0.  1.
         11    1    1    2    0    0 -0.33024785494E+02 -0.24406875393E+02  0.12204218056E+03  0.12876577907E+03  0.00000000000E+00 0. -1.
<mgrwt>
<rscale>  0 0.11727245E+03</rscale>
<asrwt>0</asrwt>
<pdfrwt beam="1">  1        1 0.60391208E-01 0.12629598E+03</pdfrwt>
<pdfrwt beam="2">  1       -1 0.55620885E-02 0.12629598E+03</pdfrwt>
<totfact> 0.88034000E+03</totfact>
</mgrwt>
</event>
<event>
 6    1  0.7457796E-006  0.1795395E+03  0.7546771E-02  0.1174240E+00
         -1   -1    0    0    0  501 -0.00000000000E+00  0.00000000000E+00  0.12875269238E+03  0.12875269238E+03  0.00000000000E+00 0.  1.
          1   -1    0    0  501    0  0.00000000000E+00 -0.00000000000E+00 -0.43044149850E+03  0.43044149850E+03  0.00000000000E+00 0. -1.
          5    1    1    2  502    0 -0.34514179325E+02 -0.13935235815E+02  0.32641806016E+02  0.49729235583E+02  0.47000000000E+01 0. -1.
         -5    1    1    2    0  502  0.81741018049E+02 -0.10597777307E+03  0.68151559565E+01  0.13409481260E+03  0.47000000000E+01 0. -1.
        -11    1    1    2    0    0 -0.96666699176E+01  0.11435483996E+03 -0.21604437211E+03  0.24463369484E+03  0.00000000000E+00 0.  1.
         11    1    1    2    0    0 -0.37560168806E+02  0.55581689222E+01 -0.12510139598E+03  0.13073644786E+03  0.00000000000E+00 0. -1.
<mgrwt>
<rscale>  0 0.17350627E+03</rscale>
<asrwt>0</asrwt>
<pdfrwt beam="2">  1        1 0.66221769E-01 0.17953949E+03</pdfrwt>
<pdfrwt beam="1">  1       -1 0.19808106E-01 0.17953949E+03</pdfrwt>
<totfact> 0.11249604E+03</totfact>
</mgrwt>
</event>
<event>
 6    1  0.7457796E-006  0.1279791E+03  0.7546771E-02  0.1243684E+00
         -2   -1    0    0    0  501 -0.00000000000E+00  0.00000000000E+00  0.21227174752E+02  0.21227174752E+02  0.00000000000E+00 0.  1.
          2   -1    0    0  501    0  0.00000000000E+00 -0.00000000000E+00 -0.60718217369E+03  0.60718217369E+03  0.00000000000E+00 0. -1.
          5    1    1    2  502    0  0.24957980603E+02 -0.37430404010E+02 -0.22296713831E+03  0.22750905632E+03  0.47000000000E+01 0.  1.
         -5    1    1    2    0  502 -0.45052923176E+02  0.56110586749E+02 -0.14229575277E+03  0.15952534309E+03  0.47000000000E+01 0.  1.
        -11    1    1    2    0    0  0.45239970934E+02 -0.27473041557E+02 -0.66962732532E+02  0.85354733499E+02  0.00000000000E+00 0.  1.
         11    1    1    2    0    0 -0.25145028362E+02  0.87928588186E+01 -0.15372937532E+03  0.15602021553E+03  0.00000000000E+00 0. -1.
<mgrwt>
<rscale>  0 0.11964475E+03</rscale>
<asrwt>0</asrwt>
<pdfrwt beam="2">  1        2 0.93412638E-01 0.12797909E+03</pdfrwt>
<pdfrwt beam="1">  1       -2 0.32657193E-02 0.12797909E+03</pdfrwt>
<totfact> 0.17471706E+04</totfact>
</mgrwt>
</event>
<event>
 6    1  0.7457796E-006  0.1295218E+03  0.7546771E-02  0.1242050E+00
         -1   -1    0    0    0  501 -0.00000000000E+00  0.00000000000E+00  0.68607265079E+03  0.68607265079E+03  0.00000000000E+00 0.  1.
          1   -1    0    0  501    0  0.00000000000E+00 -0.00000000000E+00 -0.24042553247E+02  0.24042553247E+02  0.00000000000E+00 0. -1.
          5    1    1    2  502    0  0.39764286054E+02 -0.68369998727E+02  0.38797130353E+03  0.39597913776E+03  0.47000000000E+01 0. -1.
         -5    1    1    2    0  502 -0.15965034123E+02  0.44180463092E+02  0.14441638805E+03  0.15193741729E+03  0.47000000000E+01 0. -1.
        -11    1    1    2    0    0 -0.49157190333E+02 -0.12872250286E+02  0.83963420711E+02  0.98142652330E+02  0.00000000000E+00 0.  1.
         11    1    1    2    0    0  0.25357938403E+02  0.37061785921E+02  0.45678985247E+02  0.64055996666E+02  0.00000000000E+00 0. -1.
<mgrwt>
<rscale>  0 0.12063678E+03</rscale>
<asrwt>0</asrwt>
<pdfrwt beam="2">  1        1 0.36988549E-02 0.12952180E+03</pdfrwt>
<pdfrwt beam="1">  1       -1 0.10554962E+00 0.12952180E+03</pdfrwt>
<totfact> 0.21885775E+03</totfact>
</mgrwt>
</event>
<event>
 6    1  0.7457796E-006  0.1495824E+03  0.7546771E-02  0.1211068E+00
          1   -1    0    0  501    0  0.00000000000E+00  0.00000000000E+00  0.82801928653E+03  0.82801928653E+03  0.00000000000E+00 0. -1.
         -1   -1    0    0    0  501 -0.00000000000E+00 -0.00000000000E+00 -0.22630635908E+02  0.22630635908E+02  0.00000000000E+00 0.  1.
          5    1    1    2  502    0  0.21520853641E+02  0.92173119702E+02  0.18832820551E+03  0.21082844715E+03  0.47000000000E+01 0.  1.
         -5    1    1    2    0  502 -0.46359148873E+02 -0.13860070239E+02  0.18682043491E+03  0.19304206052E+03  0.47000000000E+01 0.  1.
        -11    1    1    2    0    0  0.51853066527E+01 -0.92513414827E+02  0.28952362578E+03  0.30398938997E+03  0.00000000000E+00 0.  1.
         11    1    1    2    0    0  0.19652988579E+02  0.14200365363E+02  0.14071638442E+03  0.14279002479E+03  0.00000000000E+00 0. -1.
<mgrwt>
<rscale>  0 0.14169399E+03</rscale>
<asrwt>0</asrwt>
<pdfrwt beam="1">  1        1 0.12738756E+00 0.14958237E+03</pdfrwt>
<pdfrwt beam="2">  1       -1 0.34816369E-02 0.14958237E+03</pdfrwt>
<totfact> 0.64250004E+03</totfact>
</mgrwt>
</event>
<event>
 6    1  0.7457796E-006  0.2602267E+03  0.7546771E-02  0.1107007E+00
         -1   -1    0    0    0  501 -0.00000000000E+00  0.00000000000E+00  0.26327509152E+03  0.26327509152E+03  0.00000000000E+00 0.  1.
          1   -1    0    0  501    0  0.00000000000E+00 -0.00000000000E+00 -0.64303401444E+02  0.64303401444E+02  0.00000000000E+00 0. -1.
          5    1    1    2  502    0 -0.13646784597E+01  0.10648339466E+02 -0.19922743464E+02  0.23113960886E+02  0.47000000000E+01 0.  1.
         -5    1    1    2    0  502  0.13170865784E+02 -0.77253868822E+02  0.15127226931E+03  0.17043186737E+03  0.47000000000E+01 0.  1.
        -11    1    1    2    0    0  0.24387942652E+02  0.73053967674E+02  0.56838300487E+02  0.95719623599E+02  0.00000000000E+00 0.  1.
         11    1    1    2    0    0 -0.36194129976E+02 -0.64484383172E+01  0.10783863740E+02  0.38313041104E+02  0.00000000000E+00 0. -1.
<mgrwt>
<rscale>  0 0.26022670E+03</rscale>
<asrwt>0</asrwt>
<pdfrwt beam="2">  1        1 0.98928311E-02 0.26022670E+03</pdfrwt>
<pdfrwt beam="1">  1       -1 0.40503860E-01 0.26022670E+03</pdfrwt>
<totfact> 0.39009951E+03</totfact>
</mgrwt>
</event>
<event>
 6    1  0.7457796E-006  0.1585839E+03  0.7546771E-02  0.1193282E+00
         -1   -1    0    0    0  501 -0.00000000000E+00  0.00000000000E+00  0.59671483442E+02  0.59671483442E+02  0.00000000000E+00 0.  1.
          1   -1    0    0  501    0  0.00000000000E+00 -0.00000000000E+00 -0.41780515704E+03  0.41780515704E+03  0.00000000000E+00 0. -1.
          5    1    1    2  502    0  0.16746022223E+02 -0.55166723014E+02 -0.80783413461E+02  0.99357166218E+02  0.47000000000E+01 0. -1.
         -5    1    1    2    0  502 -0.97103530394E+02 -0.25619096545E+02 -0.15942555950E+03  0.18847820230E+03  0.47000000000E+01 0.  1.
        -11    1    1    2    0    0  0.54202776839E+01  0.41307983499E+02 -0.92111334304E+02  0.10109513746E+03  0.00000000000E+00 0.  1.
         11    1    1    2    0    0  0.74937230487E+02  0.39477836060E+02 -0.25813366336E+02  0.88546134499E+02  0.00000000000E+00 0. -1.
<mgrwt>
<rscale>  0 0.15600518E+03</rscale>
<asrwt>0</asrwt>
<pdfrwt beam="2">  1        1 0.64277718E-01 0.15858389E+03</pdfrwt>
<pdfrwt beam="1">  1       -1 0.91802280E-02 0.15858389E+03</pdfrwt>
<totfact> 0.38825601E+03</totfact>
</mgrwt>
</event>
<event>
 6    1  0.7457796E-006  0.2957483E+03  0.7546771E-02  0.1087386E+00
         -2   -1    0    0    0  501 -0.00000000000E+00  0.00000000000E+00  0.18718939441E+03  0.18718939441E+03  0.00000000000E+00 0.  1.
          2   -1    0    0  501    0  0.00000000000E+00 -0.00000000000E+00 -0.11681622525E+03  0.11681622525E+03  0.00000000000E+00 0. -1.
          5    1    1    2  502    0 -0.37275177096E+02  0.68147475681E+02 -0.13301696881E+02  0.78946452797E+02  0.47000000000E+01 0. -1.
         -5    1    1    2    0  502 -0.73088951177E+01  0.11358423836E+02  0.94878014693E+02  0.95949785888E+02  0.47000000000E+01 0. -1.
        -11    1    1    2    0    0 -0.18019457765E+02 -0.42150320524E+02 -0.28770423088E+02  0.54121046027E+02  0.00000000000E+00 0.  1.
         11    1    1    2    0    0  0.62603529979E+02 -0.37355578993E+02  0.17567274438E+02  0.74988334953E+02  0.00000000000E+00 0. -1.
<mgrwt>
<rscale>  0 0.29574826E+03</rscale>
<asrwt>0</asrwt>
<pdfrwt beam="2">  1        2 0.17971727E-01 0.29574826E+03</pdfrwt>
<pdfrwt beam="1">  1       -2 0.28798368E-01 0.29574826E+03</pdfrwt>
<totfact> 0.34592448E+03</totfact>
</mgrwt>
</event>
<event>
 6    1  0.7457796E-006  0.4203399E+03  0.7546771E-02  0.1036956E+00
         -1   -1    0    0    0  501 -0.00000000000E+00  0.00000000000E+00  0.46621590881E+03  0.46621590881E+03  0.00000000000E+00 0.  1.
          1   -1    0    0  501    0  0.00000000000E+00 -0.00000000000E+00 -0.94744519218E+02  0.94744519218E+02  0.00000000000E+00 0. -1.
          5    1    1    2  502    0  0.51280470925E+01 -0.59386875149E+01 -0.35598678318E+01  0.98146592077E+01  0.47000000000E+01 0. -1.
         -5    1    1    2    0  502 -0.51761732677E+02  0.13186559031E+03  0.36154349508E+03  0.38833439162E+03  0.47000000000E+01 0.  1.
        -11    1    1    2    0    0 -0.24646830592E+02 -0.19891975393E+02 -0.93407850153E+01  0.33021314449E+02  0.00000000000E+00 0.  1.
         11    1    1    2    0    0  0.71280516177E+02 -0.10603492740E+03  0.22828547359E+02  0.12979006276E+03  0.00000000000E+00 0. -1.
<mgrwt>
<rscale>  0 0.42033987E+03</rscale>
<asrwt>0</asrwt>
<pdfrwt beam="2">  1        1 0.14576080E-01 0.42033987E+03</pdfrwt>
<pdfrwt beam="1">  1       -1 0.71725523E-01 0.42033987E+03</pdfrwt>
<totfact> 0.79232019E+02</totfact>
</mgrwt>
</event>
<event>
 6    1  0.7457796E-006  0.1369463E+03  0.7546771E-02  0.1227907E+00
          2   -1    0    0  501    0  0.00000000000E+00  0.00000000000E+00  0.10273283654E+03  0.10273283654E+03  0.00000000000E+00 0. -1.
         -2   -1    0    0    0  501 -0.00000000000E+00 -0.00000000000E+00 -0.17907739178E+03  0.17907739178E+03  0.00000000000E+00 0.  1.
          5    1    1    2  502    0 -0.52402303619E+02 -0.22262915073E+02  0.57716565005E+01  0.57419864428E+02  0.47000000000E+01 0. -1.
         -5    1    1    2    0  502  0.26044155583E+02 -0.27085990675E+02 -0.10521794712E+03  0.11182511045E+03  0.47000000000E+01 0. -1.
        -11    1    1    2    0    0  0.56896960416E+02  0.34476884848E+02 -0.73676981316E+01  0.66934316080E+02  0.00000000000E+00 0.  1.
         11    1    1    2    0    0 -0.30538812379E+02  0.14872020900E+02  0.30469433508E+02  0.45630937372E+02  0.00000000000E+00 0. -1.
<mgrwt>
<rscale>  0 0.12969637E+03</rscale>
<asrwt>0</asrwt>
<pdfrwt beam="1">  1        2 0.15805052E-01 0.13694633E+03</pdfrwt>
<pdfrwt beam="2">  1       -2 0.27550368E-01 0.13694633E+03</pdfrwt>
<totfact> 0.41830273E+03</totfact>
</mgrwt>
</event>
<event>
 6    1  0.7457796E-006  0.2543518E+03  0.7546771E-02  0.1110585E+00
         -1   -1    0    0    0  501 -0.00000000000E+00  0.00000000000E+00  0.18573888850E+02  0.18573888850E+02  0.00000000000E+00 0.  1.
          1   -1    0    0  501    0  0.00000000000E+00 -0.00000000000E+00 -0.87077670838E+03  0.87077670838E+03  0.00000000000E+00 0. -1.
          5    1    1    2  502    0 -0.26041705206E+02  0.15306016640E+01 -0.41850402696E+03  0.41934260902E+03  0.47000000000E+01 0.  1.
         -5    1    1    2    0  502 -0.16684841337E+02 -0.52181768563E+02 -0.68985005522E+02  0.88217582645E+02  0.47000000000E+01 0.  1.
        -11    1    1    2    0    0 -0.14966295983E+02  0.52693014947E+02 -0.19365189905E+03  0.20125009775E+03  0.00000000000E+00 0.  1.
         11    1    1    2    0    0  0.57692842527E+02 -0.20418480474E+01 -0.17106188800E+03  0.18054030782E+03  0.00000000000E+00 0. -1.
<mgrwt>
<rscale>  0 0.25435180E+03</rscale>
<asrwt>0</asrwt>
<pdfrwt beam="2">  1        1 0.13396564E+00 0.25435180E+03</pdfrwt>
<pdfrwt beam="1">  1       -1 0.28575215E-02 0.25435180E+03</pdfrwt>
<totfact> 0.81311153E+03</totfact>
</mgrwt>
</event>
<event>
 6    1  0.7457796E-006  0.2188463E+03  0.7546771E-02  0.1138289E+00
          1   -1    0    0  501    0  0.00000000000E+00  0.00000000000E+00  0.20265415586E+03  0.20265415586E+03  0.00000000000E+00 0. -1.
         -1   -1    0    0    0  501 -0.00000000000E+00 -0.00000000000E+00 -0.22081989555E+03  0.22081989555E+03  0.00000000000E+00 0.  1.
          5    1    1    2  502    0 -0.29004842172E+02  0.53007248375E+02 -0.14387388884E+01  0.60623503852E+02  0.47000000000E+01 0. -1.
         -5    1    1    2    0  502 -0.15049158548E+03 -0.45870117449E+02 -0.34886284670E+02  0.16121702092E+03  0.47000000000E+01 0. -1.
        -11    1    1    2    0    0  0.30585248163E+02  0.67938450382E+01  0.39651613297E+02  0.50535771218E+02  0.00000000000E+00 0. -1.
         11    1    1    2    0    0  0.14891117949E+03 -0.13930975965E+02 -0.21492329430E+02  0.15109775542E+03  0.00000000000E+00 0.  1.
<mgrwt>
<rscale>  0 0.21419188E+03</rscale>
<asrwt>0</asrwt>
<pdfrwt beam="1">  1        1 0.31177563E-01 0.21884632E+03</pdfrwt>
<pdfrwt beam="2">  1       -1 0.33972291E-01 0.21884632E+03</pdfrwt>
<totfact> 0.11845176E+03</totfact>
</mgrwt>
</event>
<event>
 6    1  0.7457796E-006  0.1480719E+03  0.7546771E-02  0.1209522E+00
         -2   -1    0    0    0  501 -0.00000000000E+00  0.00000000000E+00  0.71124268263E+02  0.71124268263E+02  0.00000000000E+00 0.  1.
          2   -1    0    0  501    0  0.00000000000E+00 -0.00000000000E+00 -0.38371482150E+03  0.38371482150E+03  0.00000000000E+00 0. -1.
          5    1    1    2  502    0 -0.16658553495E+02 -0.63582559875E+02 -0.21939156740E+02  0.69452616389E+02  0.47000000000E+01 0. -1.
         -5    1    1    2    0  502 -0.70678722624E+02  0.41205266558E+02 -0.17791927771E+02  0.83857012335E+02  0.47000000000E+01 0.  1.
        -11    1    1    2    0    0 -0.19422805190E+02  0.12221935644E+01 -0.39113082217E+02  0.43687210017E+02  0.00000000000E+00 0.  1.
         11    1    1    2    0    0  0.10676008131E+03  0.21155099753E+02 -0.23374638651E+03  0.25784225102E+03  0.00000000000E+00 0. -1.
<mgrwt>
<rscale>  0 0.14286757E+03</rscale>
<asrwt>0</asrwt>
<pdfrwt beam="2">  1        2 0.59033050E-01 0.14807189E+03</pdfrwt>
<pdfrwt beam="1">  1       -2 0.10942195E-01 0.14807189E+03</pdfrwt>
<totfact> 0.46394368E+03</totfact>
</mgrwt>
</event>
<event>
 6    1  0.7457796E-006  0.1739518E+03  0.7546771E-02  0.1178216E+00
         -2   -1    0    0    0  501 -0.00000000000E+00  0.00000000000E+00  0.10596755851E+03  0.10596755851E+03  0.00000000000E+00 0.  1.
          2   -1    0    0  501    0  0.00000000000E+00 -0.00000000000E+00 -0.43385733118E+03  0.43385733118E+03  0.00000000000E+00 0. -1.
          5    1    1    2  502    0 -0.25812247881E+02  0.69598651155E+02  0.18881566876E+02  0.76738829487E+02  0.47000000000E+01 0. -1.
         -5    1    1    2    0  502  0.84420215898E+02  0.45087637349E+02 -0.16486541793E+02  0.97229439751E+02  0.47000000000E+01 0.  1.
        -11    1    1    2    0    0 -0.81813457445E+02 -0.76009395778E+02 -0.24902590256E+03  0.27291898104E+03  0.00000000000E+00 0. -1.
         11    1    1    2    0    0  0.23205489428E+02 -0.38676892726E+02 -0.81258895188E+02  0.92937639403E+02  0.00000000000E+00 0.  1.
<mgrwt>
<rscale>  0 0.16964736E+03</rscale>
<asrwt>0</asrwt>
<pdfrwt beam="2">  1        2 0.66747282E-01 0.17395178E+03</pdfrwt>
<pdfrwt beam="1">  1       -2 0.16302701E-01 0.17395178E+03</pdfrwt>
<totfact> 0.21434706E+03</totfact>
</mgrwt>
</event>
<event>
 6    1  0.7457796E-006  0.1719392E+03  0.7546771E-02  0.1181629E+00
         -2   -1    0    0    0  501 -0.00000000000E+00  0.00000000000E+00  0.61651220746E+02  0.61651220746E+02  0.00000000000E+00 0.  1.
          2   -1    0    0  501    0  0.00000000000E+00 -0.00000000000E+00 -0.46042289764E+03  0.46042289764E+03  0.00000000000E+00 0. -1.
          5    1    1    2  502    0 -0.11572250857E+03 -0.76131449494E+02 -0.81952227430E+02  0.16101538489E+03  0.47000000000E+01 0.  1.
         -5    1    1    2    0  502  0.17688858250E+02  0.10301203871E+02 -0.54764876582E+02  0.58654004249E+02  0.47000000000E+01 0.  1.
        -11    1    1    2    0    0  0.53146240940E+01  0.23325175632E+02 -0.31454164264E+01  0.24128876725E+02  0.00000000000E+00 0.  1.
         11    1    1    2    0    0  0.92719026224E+02  0.42505069991E+02 -0.25890915646E+03  0.27827585252E+03  0.00000000000E+00 0. -1.
<mgrwt>
<rscale>  0 0.16642395E+03</rscale>
<asrwt>0</asrwt>
<pdfrwt beam="2">  1        2 0.70834292E-01 0.17193916E+03</pdfrwt>
<pdfrwt beam="1">  1       -2 0.94848032E-02 0.17193916E+03</pdfrwt>
<totfact> 0.48107759E+03</totfact>
</mgrwt>
</event>
<event>
 6    1  0.7457796E-006  0.1344916E+03  0.7546771E-02  0.1233196E+00
          2   -1    0    0  501    0  0.00000000000E+00  0.00000000000E+00  0.52806143419E+02  0.52806143419E+02  0.00000000000E+00 0. -1.
         -2   -1    0    0    0  501 -0.00000000000E+00 -0.00000000000E+00 -0.30338583785E+03  0.30338583785E+03  0.00000000000E+00 0.  1.
          5    1    1    2  502    0  0.24464444704E+01 -0.76691151479E+02 -0.10346610723E+03  0.12889857699E+03  0.47000000000E+01 0.  1.
         -5    1    1    2    0  502 -0.38174745145E+02  0.42242502129E+02 -0.94639780022E+02  0.11054645230E+03  0.47000000000E+01 0.  1.
        -11    1    1    2    0    0  0.43503990478E+02 -0.12994259485E+02 -0.51506612812E+02  0.68661336504E+02  0.00000000000E+00 0.  1.
         11    1    1    2    0    0 -0.77756898038E+01  0.47442908836E+02 -0.96719436847E+00  0.48085615475E+02  0.00000000000E+00 0. -1.
<mgrwt>
<rscale>  0 0.12620648E+03</rscale>
<asrwt>0</asrwt>
<pdfrwt beam="1">  1        2 0.81240221E-02 0.13449156E+03</pdfrwt>
<pdfrwt beam="2">  1       -2 0.46674744E-01 0.13449156E+03</pdfrwt>
<totfact> 0.35106121E+03</totfact>
</mgrwt>
</event>
<event>
 6    1  0.7457796E-006  0.4696740E+03  0.7546771E-02  0.1022012E+00
          2   -1    0    0  501    0  0.00000000000E+00  0.00000000000E+00  0.21498995643E+03  0.21498995643E+03  0.00000000000E+00 0. -1.
         -2   -1    0    0    0  501 -0.00000000000E+00 -0.00000000000E+00 -0.25651626868E+03  0.25651626868E+03  0.00000000000E+00 0.  1.
          5    1    1    2  502    0 -0.74027062964E+02  0.18811252753E+03 -0.75097865160E+02  0.21570375151E+03  0.47000000000E+01 0.  1.
         -5    1    1    2    0  502  0.26495174976E+02  0.53013308024E-01 -0.21908100924E+02  0.34699452352E+02  0.47000000000E+01 0.  1.
        -11    1    1    2    0    0  0.23649414944E+02 -0.15021704687E+03  0.78024570772E+02  0.17091603097E+03  0.00000000000E+00 0. -1.
         11    1    1    2    0    0  0.23882473044E+02 -0.37948493972E+02 -0.22544916942E+02  0.50186990280E+02  0.00000000000E+00 0.  1.
<mgrwt>
<rscale>  0 0.46967402E+03</rscale>
<asrwt>0</asrwt>
<pdfrwt beam="1">  1        2 0.33075378E-01 0.46967402E+03</pdfrwt>
<pdfrwt beam="2">  1       -2 0.39464041E-01 0.46967402E+03</pdfrwt>
<totfact> 0.96922147E+02</totfact>
</mgrwt>
</event>
<event>
 6    1  0.7457796E-006  0.1399801E+03  0.7546771E-02  0.1224297E+00
          2   -1    0    0  501    0  0.00000000000E+00  0.00000000000E+00  0.29204870980E+03  0.29204870980E+03  0.00000000000E+00 0. -1.
         -2   -1    0    0    0  501 -0.00000000000E+00 -0.00000000000E+00 -0.59111150399E+02  0.59111150399E+02  0.00000000000E+00 0.  1.
          5    1    1    2  502    0 -0.21902480887E+01  0.34238167668E+02  0.47843521749E+02  0.59060493439E+02  0.47000000000E+01 0.  1.
         -5    1    1    2    0  502  0.24329428733E+02 -0.93225639113E+02  0.29535025477E+02  0.10088284602E+03  0.47000000000E+01 0.  1.
        -11    1    1    2    0    0  0.35116765221E+02  0.15417495969E+02  0.42910010210E+02  0.57551328028E+02  0.00000000000E+00 0.  1.
         11    1    1    2    0    0 -0.57255945865E+02  0.43569975476E+02  0.11264900197E+03  0.13366519272E+03  0.00000000000E+00 0. -1.
<mgrwt>
<rscale>  0 0.13215229E+03</rscale>
<asrwt>0</asrwt>
<pdfrwt beam="1">  1        2 0.44930570E-01 0.13998011E+03</pdfrwt>
<pdfrwt beam="2">  1       -2 0.90940233E-02 0.13998011E+03</pdfrwt>
<totfact> 0.82701129E+03</totfact>
</mgrwt>
</event>
<event>
 6    1  0.7457796E-006  0.1617500E+03  0.7546771E-02  0.1193273E+00
         -4   -1    0    0    0  501 -0.00000000000E+00  0.00000000000E+00  0.12007869957E+03  0.12007869957E+03  0.00000000000E+00 0.  1.
          4   -1    0    0  501    0  0.00000000000E+00 -0.00000000000E+00 -0.20768579618E+03  0.20768579618E+03  0.00000000000E+00 0. -1.
          5    1    1    2  502    0  0.21186272210E+02 -0.60993315648E+02 -0.49928972218E+02  0.81755947494E+02  0.47000000000E+01 0.  1.
         -5    1    1    2    0  502 -0.47545208410E+02 -0.38225930128E+02  0.51541016591E+02  0.80002093524E+02  0.47000000000E+01 0.  1.
        -11    1    1    2    0    0  0.75246190909E+00  0.88228330921E+02 -0.10241016923E+03  0.13517635643E+03  0.00000000000E+00 0. -1.
         11    1    1    2    0    0  0.25606474290E+02  0.10990914856E+02  0.13191028246E+02  0.30830098299E+02  0.00000000000E+00 0.  1.
<mgrwt>
<rscale>  0 0.15601270E+03</rscale>
<asrwt>0</asrwt>
<pdfrwt beam="2">  1        4 0.31951660E-01 0.16175001E+03</pdfrwt>
<pdfrwt beam="1">  1       -4 0.18473646E-01 0.16175001E+03</pdfrwt>
<totfact> 0.42106578E+02</totfact>
</mgrwt>
</event>
<event>
 6    1  0.7457796E-006  0.1307624E+03  0.7546771E-02  0.1234593E+00
          2   -1    0    0  501    0  0.00000000000E+00  0.00000000000E+00  0.56796668098E+02  0.56796668098E+02  0.00000000000E+00 0. -1.
         -2   -1    0    0    0  501 -0.00000000000E+00 -0.00000000000E+00 -0.25623317453E+03  0.25623317453E+03  0.00000000000E+00 0.  1.
          5    1    1    2  502    0 -0.50629777500E+02  0.30661798643E+02 -0.13031546040E+03  0.14320520062E+03  0.47000000000E+01 0. -1.
         -5    1    1    2    0  502  0.12912389157E+02 -0.23479832499E+02  0.15064770582E+02  0.31097743337E+02  0.47000000000E+01 0. -1.
        -11    1    1    2    0    0  0.43229844692E+02  0.14491949335E+02 -0.10095554798E+03  0.11077390819E+03  0.00000000000E+00 0.  1.
         11    1    1    2    0    0 -0.55124563493E+01 -0.21673915479E+02  0.16769731361E+02  0.27952990486E+02  0.00000000000E+00 0. -1.
<mgrwt>
<rscale>  0 0.12530528E+03</rscale>
<asrwt>0</asrwt>
<pdfrwt beam="1">  1        2 0.87379490E-02 0.13076236E+03</pdfrwt>
<pdfrwt beam="2">  1       -2 0.39420488E-01 0.13076236E+03</pdfrwt>
<totfact> 0.44230590E+03</totfact>
</mgrwt>
</event>
<event>
 6    1  0.7457796E-006  0.2150479E+03  0.7546771E-02  0.1173285E+00
          2   -1    0    0  501    0  0.00000000000E+00  0.00000000000E+00  0.20583978842E+03  0.20583978842E+03  0.00000000000E+00 0. -1.
         -2   -1    0    0    0  501 -0.00000000000E+00 -0.00000000000E+00 -0.11744234120E+03  0.11744234120E+03  0.00000000000E+00 0.  1.
          5    1    1    2  502    0 -0.61327888190E+02 -0.91320913294E+02  0.49571875834E+02  0.12074800184E+03  0.47000000000E+01 0. -1.
         -5    1    1    2    0  502  0.63457380142E+02  0.74451987357E+02 -0.80594405309E+01  0.98269945037E+02  0.47000000000E+01 0.  1.
        -11    1    1    2    0    0 -0.39066528842E+02 -0.46043369721E+01 -0.19401489312E+01  0.39384740351E+02  0.00000000000E+00 0.  1.
         11    1    1    2    0    0  0.36937036890E+02  0.21473262908E+02  0.48825160847E+02  0.64879442398E+02  0.00000000000E+00 0. -1.
<mgrwt>
<rscale>  0 0.17445015E+03</rscale>
<asrwt>0</asrwt>
<pdfrwt beam="1">  1        2 0.31667660E-01 0.21504785E+03</pdfrwt>
<pdfrwt beam="2">  1       -2 0.18068053E-01 0.21504785E+03</pdfrwt>
<totfact> 0.40639558E+03</totfact>
</mgrwt>
</event>
<event>
 6    1  0.7457796E-006  0.1271642E+03  0.7546771E-02  0.1246806E+00
         -3   -1    0    0    0  501 -0.00000000000E+00  0.00000000000E+00  0.16141145528E+03  0.16141145528E+03  0.00000000000E+00 0.  1.
          3   -1    0    0  501    0  0.00000000000E+00 -0.00000000000E+00 -0.83889798073E+02  0.83889798073E+02  0.00000000000E+00 0. -1.
          5    1    1    2  502    0  0.65403720111E+02 -0.19794230849E+02 -0.21896077196E+02  0.71909570822E+02  0.47000000000E+01 0.  1.
         -5    1    1    2    0  502 -0.42197706395E+02  0.22515711002E+02  0.27515558347E+02  0.55378692816E+02  0.47000000000E+01 0.  1.
        -11    1    1    2    0    0 -0.52527872324E+02  0.18787980611E+02  0.53342561967E+02  0.77185455259E+02  0.00000000000E+00 0. -1.
         11    1    1    2    0    0  0.29321858608E+02 -0.21509460765E+02  0.18559614092E+02  0.40827534457E+02  0.00000000000E+00 0.  1.
<mgrwt>
<rscale>  0 0.11777927E+03</rscale>
<asrwt>0</asrwt>
<pdfrwt beam="2">  1        3 0.12906123E-01 0.12716416E+03</pdfrwt>
<pdfrwt beam="1">  1       -3 0.24832532E-01 0.12716416E+03</pdfrwt>
<totfact> 0.16580865E+03</totfact>
</mgrwt>
</event>
<event>
 6    1  0.7457796E-006  0.1266033E+03  0.7546771E-02  0.1247679E+00
         -2   -1    0    0    0  501 -0.00000000000E+00  0.00000000000E+00  0.15706472039E+03  0.15706472039E+03  0.00000000000E+00 0. -1.
          2   -1    0    0  501    0  0.00000000000E+00 -0.00000000000E+00 -0.77175390671E+02  0.77175390671E+02  0.00000000000E+00 0.  1.
          5    1    1    2  502    0 -0.45944440426E+02 -0.48094989439E+02  0.18899698441E+02  0.69305903186E+02  0.47000000000E+01 0. -1.
         -5    1    1    2    0  502  0.26585651011E+02  0.53455603608E+02  0.20037823724E+02  0.63149843835E+02  0.47000000000E+01 0. -1.
        -11    1    1    2    0    0  0.52539307645E+01  0.31127058878E+02  0.52268451787E+02  0.61061351402E+02  0.00000000000E+00 0. -1.
         11    1    1    2    0    0  0.14104858650E+02 -0.36487673046E+02 -0.11316644232E+02  0.40723012641E+02  0.00000000000E+00 0.  1.
<mgrwt>
<rscale>  0 0.11726476E+03</rscale>
<asrwt>0</asrwt>
<pdfrwt beam="2">  1        2 0.11873137E-01 0.12660329E+03</pdfrwt>
<pdfrwt beam="1">  1       -2 0.24163803E-01 0.12660329E+03</pdfrwt>
<totfact> 0.73426909E+03</totfact>
</mgrwt>
</event>
<event>
 6    1  0.7457796E-006  0.1914000E+03  0.7546771E-02  0.1162034E+00
          1   -1    0    0  501    0  0.00000000000E+00  0.00000000000E+00  0.23822779981E+03  0.23822779981E+03  0.00000000000E+00 0. -1.
         -1   -1    0    0    0  501 -0.00000000000E+00 -0.00000000000E+00 -0.14038239339E+03  0.14038239339E+03  0.00000000000E+00 0.  1.
          5    1    1    2  502    0 -0.15775737101E+03  0.10032345824E+02  0.46300845713E+02  0.16478438756E+03  0.47000000000E+01 0.  1.
         -5    1    1    2    0  502  0.12888374811E+02 -0.14712862712E+02 -0.20056452660E+02  0.28406510305E+02  0.47000000000E+01 0.  1.
        -11    1    1    2    0    0  0.12251486142E+03 -0.10220643282E+02  0.90426214229E+02  0.15261472091E+03  0.00000000000E+00 0. -1.
         11    1    1    2    0    0  0.22354134774E+02  0.14901160170E+02 -0.18825200862E+02  0.32804574428E+02  0.00000000000E+00 0.  1.
<mgrwt>
<rscale>  0 0.18609250E+03</rscale>
<asrwt>0</asrwt>
<pdfrwt beam="1">  1        1 0.36650431E-01 0.19139999E+03</pdfrwt>
<pdfrwt beam="2">  1       -1 0.21597291E-01 0.19139999E+03</pdfrwt>
<totfact> 0.20602921E+03</totfact>
</mgrwt>
</event>
<event>
 6    1  0.7457796E-006  0.3705320E+03  0.7546771E-02  0.1054490E+00
          2   -1    0    0  501    0  0.00000000000E+00  0.00000000000E+00  0.11635275151E+04  0.11635275151E+04  0.00000000000E+00 0. -1.
         -2   -1    0    0    0  501 -0.00000000000E+00 -0.00000000000E+00 -0.29499511165E+02  0.29499511165E+02  0.00000000000E+00 0.  1.
          5    1    1    2  502    0  0.26269499804E+02 -0.70009841485E+01  0.80604610566E+02  0.85195619861E+02  0.47000000000E+01 0. -1.
         -5    1    1    2    0  502 -0.14368145646E+03 -0.84269625084E+02  0.45521723677E+03  0.48475824211E+03  0.47000000000E+01 0. -1.
        -11    1    1    2    0    0  0.66402395230E+02  0.10241192031E+03  0.41786921876E+03  0.43532994785E+03  0.00000000000E+00 0. -1.
         11    1    1    2    0    0  0.51009561422E+02 -0.11141311075E+02  0.18033693781E+03  0.18774321641E+03  0.00000000000E+00 0.  1.
<mgrwt>
<rscale>  0 0.37053201E+03</rscale>
<asrwt>0</asrwt>
<pdfrwt beam="1">  1        2 0.17900420E+00 0.37053201E+03</pdfrwt>
<pdfrwt beam="2">  1       -2 0.45383872E-02 0.37053201E+03</pdfrwt>
<totfact> 0.47784941E+03</totfact>
</mgrwt>
</event>
<event>
 6    1  0.7457796E-006  0.2194124E+03  0.7546771E-02  0.1134322E+00
          1   -1    0    0  501    0  0.00000000000E+00  0.00000000000E+00  0.29386641566E+03  0.29386641566E+03  0.00000000000E+00 0. -1.
         -1   -1    0    0    0  501 -0.00000000000E+00 -0.00000000000E+00 -0.40955515486E+02  0.40955515486E+02  0.00000000000E+00 0.  1.
          5    1    1    2  502    0 -0.10285674823E+02 -0.38562603254E+01 -0.23394212260E+02  0.26268707953E+02  0.47000000000E+01 0. -1.
         -5    1    1    2    0  502  0.16446563427E+02  0.21470105214E+02  0.15047303599E+03  0.15295646252E+03  0.47000000000E+01 0. -1.
        -11    1    1    2    0    0  0.21316004270E+02 -0.23549128523E+02  0.57646799124E+01  0.32282580856E+02  0.00000000000E+00 0.  1.
         11    1    1    2    0    0 -0.27476892874E+02  0.59352836337E+01  0.12006739653E+03  0.12331417981E+03  0.00000000000E+00 0. -1.
<mgrwt>
<rscale>  0 0.21941240E+03</rscale>
<asrwt>0</asrwt>
<pdfrwt beam="1">  1        1 0.45210216E-01 0.21941240E+03</pdfrwt>
<pdfrwt beam="2">  1       -1 0.63008487E-02 0.21941240E+03</pdfrwt>
<totfact> 0.10906833E+04</totfact>
</mgrwt>
</event>
<event>
 6    1  0.7457796E-006  0.1172992E+03  0.7546771E-02  0.1256551E+00
         -4   -1    0    0    0  501 -0.00000000000E+00  0.00000000000E+00  0.71335817284E+02  0.71335817284E+02  0.00000000000E+00 0.  1.
          4   -1    0    0  501    0  0.00000000000E+00 -0.00000000000E+00 -0.16284272696E+03  0.16284272696E+03  0.00000000000E+00 0. -1.
          5    1    1    2  502    0  0.43588255874E+02  0.22332039305E+02 -0.25348497834E+02  0.55347017735E+02  0.47000000000E+01 0. -1.
         -5    1    1    2    0  502 -0.67400965415E+02  0.28543610883E+01 -0.21481825827E+02  0.70954889591E+02  0.47000000000E+01 0.  1.
        -11    1    1    2    0    0  0.43227305113E+02  0.19688796721E+02 -0.11759704330E+02  0.48934029771E+02  0.00000000000E+00 0. -1.
         11    1    1    2    0    0 -0.19414595573E+02 -0.44875197115E+02 -0.32916881684E+02  0.58942607146E+02  0.00000000000E+00 0.  1.
<mgrwt>
<rscale>  0 0.11219888E+03</rscale>
<asrwt>0</asrwt>
<pdfrwt beam="2">  1        4 0.25052727E-01 0.11729916E+03</pdfrwt>
<pdfrwt beam="1">  1       -4 0.10974741E-01 0.11729916E+03</pdfrwt>
<totfact> 0.15390693E+03</totfact>
</mgrwt>
</event>
<event>
 6    1  0.7457796E-006  0.2704426E+03  0.7546771E-02  0.1101027E+00
          2   -1    0    0  501    0  0.00000000000E+00  0.00000000000E+00  0.88698015316E+03  0.88698015316E+03  0.00000000000E+00 0. -1.
         -2   -1    0    0    0  501 -0.00000000000E+00 -0.00000000000E+00 -0.20614658821E+02  0.20614658821E+02  0.00000000000E+00 0.  1.
          5    1    1    2  502    0 -0.28278062199E+02  0.17310776989E+02  0.65601712187E+02  0.73654507286E+02  0.47000000000E+01 0. -1.
         -5    1    1    2    0  502  0.65240627644E+02 -0.85998555250E+02  0.43048404271E+03  0.44383633474E+03  0.47000000000E+01 0. -1.
        -11    1    1    2    0    0 -0.47809538881E+02  0.21415144706E+02  0.78851715164E+02  0.94667594324E+02  0.00000000000E+00 0.  1.
         11    1    1    2    0    0  0.10846973436E+02  0.47272633556E+02  0.29142802428E+03  0.29543637564E+03  0.00000000000E+00 0. -1.
<mgrwt>
<rscale>  0 0.27044255E+03</rscale>
<asrwt>0</asrwt>
<pdfrwt beam="1">  1        2 0.13645846E+00 0.27044255E+03</pdfrwt>
<pdfrwt beam="2">  1       -2 0.31714867E-02 0.27044255E+03</pdfrwt>
<totfact> 0.12028979E+04</totfact>
</mgrwt>
</event>
<event>
 6    1  0.7457796E-006  0.2304387E+03  0.7546771E-02  0.1129353E+00
         -2   -1    0    0    0  501 -0.00000000000E+00  0.00000000000E+00  0.12430577338E+03  0.12430577338E+03  0.00000000000E+00 0. -1.
          2   -1    0    0  501    0  0.00000000000E+00 -0.00000000000E+00 -0.48656617276E+03  0.48656617276E+03  0.00000000000E+00 0.  1.
          5    1    1    2  502    0  0.46598852414E+02 -0.16211391312E+03 -0.25998855744E+02  0.17073489501E+03  0.47000000000E+01 0.  1.
         -5    1    1    2    0  502  0.59130060040E+02 -0.62031181346E-01 -0.29714365690E+02  0.66343058239E+02  0.47000000000E+01 0.  1.
        -11    1    1    2    0    0 -0.72063785962E+02  0.85085102027E+02 -0.24617975108E+03  0.27025383194E+03  0.00000000000E+00 0. -1.
         11    1    1    2    0    0 -0.33665126491E+02  0.77090842272E+02 -0.60367426866E+02  0.10354016095E+03  0.00000000000E+00 0.  1.
<mgrwt>
<rscale>  0 0.22618634E+03</rscale>
<asrwt>0</asrwt>
<pdfrwt beam="2">  1        2 0.74856335E-01 0.23043870E+03</pdfrwt>
<pdfrwt beam="1">  1       -2 0.19123965E-01 0.23043870E+03</pdfrwt>
<totfact> 0.14540051E+03</totfact>
</mgrwt>
</event>
<event>
 6    1  0.7457796E-006  0.1383658E+03  0.7546771E-02  0.1227596E+00
          1   -1    0    0  501    0  0.00000000000E+00  0.00000000000E+00  0.13303268390E+03  0.13303268390E+03  0.00000000000E+00 0. -1.
         -1   -1    0    0    0  501 -0.00000000000E+00 -0.00000000000E+00 -0.12490349115E+03  0.12490349115E+03  0.00000000000E+00 0.  1.
          5    1    1    2  502    0 -0.79485445587E+02  0.10168661847E+02 -0.17975573201E+01  0.80291088896E+02  0.47000000000E+01 0. -1.
         -5    1    1    2    0  502  0.40315377301E+02  0.34407464554E+02 -0.32185358864E+02  0.62186739657E+02  0.47000000000E+01 0. -1.
        -11    1    1    2    0    0  0.13446446823E+02  0.23952826559E+02 -0.56662255402E+01  0.28047298340E+02  0.00000000000E+00 0.  1.
         11    1    1    2    0    0  0.25723621462E+02 -0.68528952960E+02  0.47778334469E+02  0.87411048155E+02  0.00000000000E+00 0. -1.
<mgrwt>
<rscale>  0 0.12990568E+03</rscale>
<asrwt>0</asrwt>
<pdfrwt beam="1">  1        1 0.20466567E-01 0.13836579E+03</pdfrwt>
<pdfrwt beam="2">  1       -1 0.19215922E-01 0.13836579E+03</pdfrwt>
<totfact> 0.50991779E+03</totfact>
</mgrwt>
</event>
<event>
 6    1  0.7457796E-006  0.9456264E+03  0.7546771E-02  0.1011638E+00
         -1   -1    0    0    0  501 -0.00000000000E+00  0.00000000000E+00  0.35069919004E+03  0.35069919004E+03  0.00000000000E+00 0.  1.
          1   -1    0    0  501    0  0.00000000000E+00 -0.00000000000E+00 -0.97248318089E+03  0.97248318089E+03  0.00000000000E+00 0. -1.
          5    1    1    2  502    0 -0.29682786662E+03 -0.41615225515E+02 -0.55800647381E+03  0.63342870491E+03  0.47000000000E+01 0. -1.
         -5    1    1    2    0  502  0.24171012529E+03  0.62037392674E+02  0.25768441906E+03  0.35874193034E+03  0.47000000000E+01 0.  1.
        -11    1    1    2    0    0  0.28163792870E+02 -0.37563939215E+02 -0.19670700831E+03  0.20223228198E+03  0.00000000000E+00 0. -1.
         11    1    1    2    0    0  0.26953948462E+02  0.17141772057E+02 -0.12475492779E+03  0.12877945370E+03  0.00000000000E+00 0.  1.
<mgrwt>
<rscale>  0 0.50828739E+03</rscale>
<asrwt>0</asrwt>
<pdfrwt beam="2">  1        1 0.14961279E+00 0.94562637E+03</pdfrwt>
<pdfrwt beam="1">  1       -1 0.53953723E-01 0.94562637E+03</pdfrwt>
<totfact> 0.55520148E+01</totfact>
</mgrwt>
</event>
<event>
 6    1  0.7457796E-006  0.1345059E+03  0.7546771E-02  0.1232845E+00
         -1   -1    0    0    0  501 -0.00000000000E+00  0.00000000000E+00  0.17637011066E+03  0.17637011066E+03  0.00000000000E+00 0.  1.
          1   -1    0    0  501    0  0.00000000000E+00 -0.00000000000E+00 -0.85320315797E+02  0.85320315797E+02  0.00000000000E+00 0. -1.
          5    1    1    2  502    0 -0.40783489043E+02  0.18048876160E+02  0.58659770098E+02  0.73838428593E+02  0.47000000000E+01 0.  1.
         -5    1    1    2    0  502  0.78080929067E+02  0.14717281276E+02  0.20344679149E+02  0.82153671992E+02  0.47000000000E+01 0.  1.
        -11    1    1    2    0    0 -0.64160517928E+01 -0.61216096769E+02  0.15785269516E+02  0.63543299866E+02  0.00000000000E+00 0.  1.
         11    1    1    2    0    0 -0.30881388232E+02  0.28449939332E+02 -0.37399238960E+01  0.42155026009E+02  0.00000000000E+00 0. -1.
<mgrwt>
<rscale>  0 0.12643385E+03</rscale>
<asrwt>0</asrwt>
<pdfrwt beam="2">  1        1 0.13126202E-01 0.13450588E+03</pdfrwt>
<pdfrwt beam="1">  1       -1 0.27133863E-01 0.13450588E+03</pdfrwt>
<totfact> 0.51423406E+03</totfact>
</mgrwt>
</event>
<event>
 6    1  0.7457796E-006  0.1863656E+03  0.7546771E-02  0.1169684E+00
          2   -1    0    0  501    0  0.00000000000E+00  0.00000000000E+00  0.33104197180E+03  0.33104197180E+03  0.00000000000E+00 0. -1.
         -2   -1    0    0    0  501 -0.00000000000E+00 -0.00000000000E+00 -0.90679092937E+02  0.90679092937E+02  0.00000000000E+00 0.  1.
          5    1    1    2  502    0 -0.40355775959E+02  0.13546967480E+03  0.64469830205E+02  0.15543188364E+03  0.47000000000E+01 0. -1.
         -5    1    1    2    0  502 -0.31320821220E+02 -0.30699407138E+02  0.31427412735E+02  0.54159207082E+02  0.47000000000E+01 0.  1.
        -11    1    1    2    0    0 -0.37182161116E+01 -0.11639913097E+02  0.69987477460E+02  0.71046180116E+02  0.00000000000E+00 0. -1.
         11    1    1    2    0    0  0.75394813291E+02 -0.93130354569E+02  0.74478158464E+02  0.14108379390E+03  0.00000000000E+00 0.  1.
<mgrwt>
<rscale>  0 0.17807023E+03</rscale>
<asrwt>0</asrwt>
<pdfrwt beam="1">  1        2 0.50929534E-01 0.18636562E+03</pdfrwt>
<pdfrwt beam="2">  1       -2 0.13950630E-01 0.18636562E+03</pdfrwt>
<totfact> 0.37159342E+03</totfact>
</mgrwt>
</event>
<event>
 6    1  0.7457796E-006  0.1373597E+03  0.7546771E-02  0.1228445E+00
         -1   -1    0    0    0  501 -0.00000000000E+00  0.00000000000E+00  0.35204231331E+02  0.35204231331E+02  0.00000000000E+00 0.  1.
          1   -1    0    0  501    0  0.00000000000E+00 -0.00000000000E+00 -0.51779252075E+03  0.51779252075E+03  0.00000000000E+00 0. -1.
          5    1    1    2  502    0 -0.45147180947E+01  0.78309264702E+02 -0.14457837131E+03  0.16455308891E+03  0.47000000000E+01 0. -1.
         -5    1    1    2    0  502 -0.24639308177E+02 -0.29402052921E+02 -0.57393645620E+01  0.39071812461E+02  0.47000000000E+01 0. -1.
        -11    1    1    2    0    0  0.42721325372E+02 -0.70399738621E+02 -0.26266455068E+03  0.27527059601E+03  0.00000000000E+00 0.  1.
         11    1    1    2    0    0 -0.13567299100E+02  0.21492526841E+02 -0.69606002858E+02  0.74101254704E+02  0.00000000000E+00 0. -1.
<mgrwt>
<rscale>  0 0.12933547E+03</rscale>
<asrwt>0</asrwt>
<pdfrwt beam="2">  1        1 0.79660382E-01 0.13735967E+03</pdfrwt>
<pdfrwt beam="1">  1       -1 0.54160360E-02 0.13735967E+03</pdfrwt>
<totfact> 0.64578150E+03</totfact>
</mgrwt>
</event>
<event>
 6    1  0.7457796E-006  0.1945932E+03  0.7546771E-02  0.1158575E+00
          1   -1    0    0  501    0  0.00000000000E+00  0.00000000000E+00  0.79290487344E+03  0.79290487344E+03  0.00000000000E+00 0. -1.
         -1   -1    0    0    0  501 -0.00000000000E+00 -0.00000000000E+00 -0.50828188193E+02  0.50828188193E+02  0.00000000000E+00 0.  1.
          5    1    1    2  502    0 -0.76941218396E+02 -0.38010023803E+00  0.15375018847E+03  0.17199216848E+03  0.47000000000E+01 0. -1.
         -5    1    1    2    0  502 -0.37226055847E+02  0.96337996279E+02  0.71660796568E+02  0.12579407190E+03  0.47000000000E+01 0. -1.
        -11    1    1    2    0    0  0.60288002009E+02  0.64644829055E+01  0.18242987932E+03  0.19224227837E+03  0.00000000000E+00 0. -1.
         11    1    1    2    0    0  0.53879272234E+02 -0.10242237895E+03  0.33423582089E+03  0.35370454288E+03  0.00000000000E+00 0.  1.
<mgrwt>
<rscale>  0 0.18987429E+03</rscale>
<asrwt>0</asrwt>
<pdfrwt beam="1">  1        1 0.12198536E+00 0.19459325E+03</pdfrwt>
<pdfrwt beam="2">  1       -1 0.78197218E-02 0.19459325E+03</pdfrwt>
<totfact> 0.20715217E+03</totfact>
</mgrwt>
</event>
<event>
 6    1  0.7457796E-006  0.3006383E+03  0.7546771E-02  0.1084922E+00
         -4   -1    0    0    0  501 -0.00000000000E+00  0.00000000000E+00  0.66786479836E+02  0.66786479836E+02  0.00000000000E+00 0.  1.
          4   -1    0    0  501    0  0.00000000000E+00 -0.00000000000E+00 -0.33832961594E+03  0.33832961594E+03  0.00000000000E+00 0. -1.
          5    1    1    2  502    0  0.18822419119E+02 -0.11633310118E+02  0.37256446206E+02  0.43586123362E+02  0.47000000000E+01 0. -1.
         -5    1    1    2    0  502 -0.52361280986E+02  0.45249440046E+02 -0.60687714351E+02  0.92164549824E+02  0.47000000000E+01 0. -1.
        -11    1    1    2    0    0 -0.58968915373E+01 -0.48218984735E+02 -0.19836090335E+03  0.20422265250E+03  0.00000000000E+00 0. -1.
         11    1    1    2    0    0  0.39435753404E+02  0.14602854807E+02 -0.49750964613E+02  0.65142770090E+02  0.00000000000E+00 0.  1.
<mgrwt>
<rscale>  0 0.30063828E+03</rscale>
<asrwt>0</asrwt>
<pdfrwt beam="2">  1        4 0.52050711E-01 0.30063828E+03</pdfrwt>
<pdfrwt beam="1">  1       -4 0.10274843E-01 0.30063828E+03</pdfrwt>
<totfact> 0.49011031E+02</totfact>
</mgrwt>
</event>
<event>
 6    1  0.7457796E-006  0.1273472E+03  0.7546771E-02  0.1246017E+00
          4   -1    0    0  501    0  0.00000000000E+00  0.00000000000E+00  0.10283441081E+03  0.10283441081E+03  0.00000000000E+00 0. -1.
         -4   -1    0    0    0  501 -0.00000000000E+00 -0.00000000000E+00 -0.12220538425E+03  0.12220538425E+03  0.00000000000E+00 0.  1.
          5    1    1    2  502    0  0.40571846293E+01  0.16898506257E+02  0.44352862447E+02  0.47867386267E+02  0.47000000000E+01 0.  1.
         -5    1    1    2    0  502 -0.26548217015E+01 -0.41199147386E+02 -0.70958995916E+02  0.82229477227E+02  0.47000000000E+01 0.  1.
        -11    1    1    2    0    0 -0.32442365527E+02  0.24076157004E+02  0.34881893448E+02  0.53375227471E+02  0.00000000000E+00 0. -1.
         11    1    1    2    0    0  0.31040002599E+02  0.22448412568E+00 -0.27646733422E+02  0.41567704090E+02  0.00000000000E+00 0.  1.
<mgrwt>
<rscale>  0 0.11824738E+03</rscale>
<asrwt>0</asrwt>
<pdfrwt beam="1">  1        4 0.15820679E-01 0.12734719E+03</pdfrwt>
<pdfrwt beam="2">  1       -4 0.18800828E-01 0.12734719E+03</pdfrwt>
<totfact> 0.14055858E+03</totfact>
</mgrwt>
</event>
<event>
 6    1  0.7457796E-006  0.1360081E+03  0.7546771E-02  0.1243046E+00
         -4   -1    0    0    0  501 -0.00000000000E+00  0.00000000000E+00  0.22017602694E+03  0.22017602694E+03  0.00000000000E+00 0. -1.
          4   -1    0    0  501    0  0.00000000000E+00 -0.00000000000E+00 -0.55976859252E+02  0.55976859252E+02  0.00000000000E+00 0.  1.
          5    1    1    2  502    0  0.14263113124E+02  0.37533476036E+02  0.35492311874E+02  0.53795840188E+02  0.47000000000E+01 0.  1.
         -5    1    1    2    0  502 -0.28919671890E+02 -0.89097301116E+02  0.42306051046E+02  0.10289105133E+03  0.47000000000E+01 0.  1.
        -11    1    1    2    0    0  0.31618453358E+02  0.94757731710E+01  0.55475134784E+02  0.64552362073E+02  0.00000000000E+00 0. -1.
         11    1    1    2    0    0 -0.16961894592E+02  0.42088051909E+02  0.30925669986E+02  0.54913632603E+02  0.00000000000E+00 0.  1.
<mgrwt>
<rscale>  0 0.12003094E+03</rscale>
<asrwt>0</asrwt>
<pdfrwt beam="2">  1        4 0.86118246E-02 0.13600808E+03</pdfrwt>
<pdfrwt beam="1">  1       -4 0.33873235E-01 0.13600808E+03</pdfrwt>
<totfact> 0.13556383E+03</totfact>
</mgrwt>
</event>
<event>
 6    1  0.7457796E-006  0.1591829E+03  0.7546771E-02  0.1196596E+00
         -1   -1    0    0    0  501 -0.00000000000E+00  0.00000000000E+00  0.56616572746E+03  0.56616572746E+03  0.00000000000E+00 0.  1.
          1   -1    0    0  501    0  0.00000000000E+00 -0.00000000000E+00 -0.39150801087E+02  0.39150801087E+02  0.00000000000E+00 0. -1.
          5    1    1    2  502    0 -0.30693755024E+02  0.23799579885E+02  0.12080387747E+03  0.12698107502E+03  0.47000000000E+01 0.  1.
         -5    1    1    2    0  502  0.98075332515E+02  0.48127591670E+02  0.12752397336E+03  0.16798657598E+03  0.47000000000E+01 0.  1.
        -11    1    1    2    0    0 -0.53649584356E+02 -0.91885480291E+02  0.25569282375E+03  0.27694771981E+03  0.00000000000E+00 0.  1.
         11    1    1    2    0    0 -0.13731993135E+02  0.19958308735E+02  0.22994251794E+02  0.33401157743E+02  0.00000000000E+00 0. -1.
<mgrwt>
<rscale>  0 0.15319937E+03</rscale>
<asrwt>0</asrwt>
<pdfrwt beam="2">  1        1 0.60232006E-02 0.15918289E+03</pdfrwt>
<pdfrwt beam="1">  1       -1 0.87102413E-01 0.15918289E+03</pdfrwt>
<totfact> 0.17178165E+03</totfact>
</mgrwt>
</event>
<event>
 6    1  0.7457796E-006  0.1293619E+03  0.7546771E-02  0.1241363E+00
          1   -1    0    0  501    0  0.00000000000E+00  0.00000000000E+00  0.43766852227E+03  0.43766852227E+03  0.00000000000E+00 0. -1.
         -1   -1    0    0    0  501 -0.00000000000E+00 -0.00000000000E+00 -0.30615756347E+02  0.30615756347E+02  0.00000000000E+00 0.  1.
          5    1    1    2  502    0 -0.16598553270E+01  0.55834058648E+02  0.77077433134E+02  0.95305917568E+02  0.47000000000E+01 0.  1.
         -5    1    1    2    0  502 -0.29937916236E+02 -0.66511111595E+02  0.11571963620E+03  0.13686902863E+03  0.47000000000E+01 0.  1.
        -11    1    1    2    0    0 -0.18353767610E+02  0.60060474758E+01  0.37045614687E+01  0.19663600063E+02  0.00000000000E+00 0.  1.
         11    1    1    2    0    0  0.49951539173E+02  0.46710054714E+01  0.21055113512E+03  0.21644573236E+03  0.00000000000E+00 0. -1.
<mgrwt>
<rscale>  0 0.12105724E+03</rscale>
<asrwt>0</asrwt>
<pdfrwt beam="1">  1        1 0.67333614E-01 0.12936188E+03</pdfrwt>
<pdfrwt beam="2">  1       -1 0.47101167E-02 0.12936188E+03</pdfrwt>
<totfact> 0.98274123E+03</totfact>
</mgrwt>
</event>
<event>
 6    1  0.7457796E-006  0.2287658E+03  0.7546771E-02  0.1194723E+00
         -1   -1    0    0    0  501 -0.00000000000E+00  0.00000000000E+00  0.11539541840E+03  0.11539541840E+03  0.00000000000E+00 0.  1.
          1   -1    0    0  501    0  0.00000000000E+00 -0.00000000000E+00 -0.20534997921E+03  0.20534997921E+03  0.00000000000E+00 0. -1.
          5    1    1    2  502    0 -0.80447838751E+02  0.67425112438E+02 -0.33564833411E+02  0.11030271342E+03  0.47000000000E+01 0. -1.
         -5    1    1    2    0  502  0.81345469484E+02 -0.83626173271E+02  0.21754620157E+02  0.11876773872E+03  0.47000000000E+01 0.  1.
        -11    1    1    2    0    0 -0.12276611405E+02 -0.59385968166E+01 -0.58204155519E+02  0.59780480421E+02  0.00000000000E+00 0. -1.
         11    1    1    2    0    0  0.11378980671E+02  0.22139657650E+02 -0.19940192044E+02  0.31894465049E+02  0.00000000000E+00 0.  1.
<mgrwt>
<rscale>  0 0.15477696E+03</rscale>
<asrwt>0</asrwt>
<pdfrwt beam="2">  1        1 0.31592304E-01 0.22876580E+03</pdfrwt>
<pdfrwt beam="1">  1       -1 0.17753141E-01 0.22876580E+03</pdfrwt>
<totfact> 0.34314700E+03</totfact>
</mgrwt>
</event>
<event>
 6    1  0.7457796E-006  0.1424593E+03  0.7546771E-02  0.1220940E+00
         -3   -1    0    0    0  501 -0.00000000000E+00  0.00000000000E+00  0.52825843566E+02  0.52825843566E+02  0.00000000000E+00 0.  1.
          3   -1    0    0  501    0  0.00000000000E+00 -0.00000000000E+00 -0.36839735760E+03  0.36839735760E+03  0.00000000000E+00 0. -1.
          5    1    1    2  502    0 -0.17497457809E+02 -0.78542504896E+02 -0.10157498793E+03  0.12967133175E+03  0.47000000000E+01 0.  1.
         -5    1    1    2    0  502  0.33772945363E+02  0.12178264527E+02  0.12545133857E+02  0.38319607891E+02  0.47000000000E+01 0.  1.
        -11    1    1    2    0    0  0.14629531974E+02  0.75743725577E+02 -0.12712110743E+03  0.14869738103E+03  0.00000000000E+00 0.  1.
         11    1    1    2    0    0 -0.30905019529E+02 -0.93794852088E+01 -0.99420552524E+02  0.10453488049E+03  0.00000000000E+00 0. -1.
<mgrwt>
<rscale>  0 0.13449074E+03</rscale>
<asrwt>0</asrwt>
<pdfrwt beam="2">  1        3 0.56676513E-01 0.14245926E+03</pdfrwt>
<pdfrwt beam="1">  1       -3 0.81270533E-02 0.14245926E+03</pdfrwt>
<totfact> 0.75008551E+02</totfact>
</mgrwt>
</event>
<event>
 6    1  0.7457796E-006  0.2679221E+03  0.7546771E-02  0.1102475E+00
         -4   -1    0    0    0  501 -0.00000000000E+00  0.00000000000E+00  0.11909412553E+03  0.11909412553E+03  0.00000000000E+00 0.  1.
          4   -1    0    0  501    0  0.00000000000E+00 -0.00000000000E+00 -0.15068384233E+03  0.15068384233E+03  0.00000000000E+00 0. -1.
          5    1    1    2  502    0 -0.37883316181E+02  0.50806579160E+02 -0.37044792396E+02  0.73558553374E+02  0.47000000000E+01 0. -1.
         -5    1    1    2    0  502  0.58158411860E+01  0.54279507382E+01  0.70536166831E+02  0.71138790327E+02  0.47000000000E+01 0. -1.
        -11    1    1    2    0    0  0.26120912438E+02 -0.63027261056E+01 -0.69586742845E+02  0.74594511881E+02  0.00000000000E+00 0. -1.
         11    1    1    2    0    0  0.59465625565E+01 -0.49931803792E+02  0.45056516158E+01  0.50486112275E+02  0.00000000000E+00 0.  1.
<mgrwt>
<rscale>  0 0.26792208E+03</rscale>
<asrwt>0</asrwt>
<pdfrwt beam="2">  1        4 0.23182130E-01 0.26792208E+03</pdfrwt>
<pdfrwt beam="1">  1       -4 0.18322173E-01 0.26792208E+03</pdfrwt>
<totfact> 0.85074697E+02</totfact>
</mgrwt>
</event>
<event>
 6    1  0.7457796E-006  0.1882054E+03  0.7546771E-02  0.1165272E+00
         -1   -1    0    0    0  501 -0.00000000000E+00  0.00000000000E+00  0.40061254068E+03  0.40061254068E+03  0.00000000000E+00 0. -1.
          1   -1    0    0  501    0  0.00000000000E+00 -0.00000000000E+00 -0.78996410941E+02  0.78996410941E+02  0.00000000000E+00 0.  1.
          5    1    1    2  502    0  0.20944708440E+02  0.47096277084E+02  0.41312352665E+02  0.66223414360E+02  0.47000000000E+01 0.  1.
         -5    1    1    2    0  502 -0.12964063724E+03  0.42241401890E+02  0.11436247956E+03  0.17802218285E+03  0.47000000000E+01 0.  1.
        -11    1    1    2    0    0  0.14837042305E+02  0.71955578827E+01 -0.54900569277E+01  0.17379718141E+02  0.00000000000E+00 0.  1.
         11    1    1    2    0    0  0.93858886496E+02 -0.96533236856E+02  0.17143135444E+03  0.21798363626E+03  0.00000000000E+00 0. -1.
<mgrwt>
<rscale>  0 0.18263981E+03</rscale>
<asrwt>0</asrwt>
<pdfrwt beam="2">  1        1 0.12153294E-01 0.18820536E+03</pdfrwt>
<pdfrwt beam="1">  1       -1 0.61632698E-01 0.18820536E+03</pdfrwt>
<totfact> 0.13472126E+03</totfact>
</mgrwt>
</event>
<event>
 6    1  0.7457796E-006  0.1643501E+03  0.7546771E-02  0.1191149E+00
          1   -1    0    0  501    0  0.00000000000E+00  0.00000000000E+00  0.30848378778E+02  0.30848378778E+02  0.00000000000E+00 0. -1.
         -1   -1    0    0    0  501 -0.00000000000E+00 -0.00000000000E+00 -0.16710456110E+04  0.16710456110E+04  0.00000000000E+00 0.  1.
          5    1    1    2  502    0 -0.41680827832E+02  0.12041822601E+02 -0.15251432102E+03  0.15863481653E+03  0.47000000000E+01 0.  1.
         -5    1    1    2    0  502 -0.42020536220E+02 -0.78218663805E+02 -0.13281048051E+04  0.13310778896E+04  0.47000000000E+01 0.  1.
        -11    1    1    2    0    0  0.22608573544E+02  0.73085991520E+02 -0.10537573311E+03  0.13021810505E+03  0.00000000000E+00 0.  1.
         11    1    1    2    0    0  0.61092790508E+02 -0.69091503163E+01 -0.54202373012E+02  0.81963178625E+02  0.00000000000E+00 0. -1.
<mgrwt>
<rscale>  0 0.15784713E+03</rscale>
<asrwt>0</asrwt>
<pdfrwt beam="1">  1        1 0.47459047E-02 0.16435008E+03</pdfrwt>
<pdfrwt beam="2">  1       -1 0.25708392E+00 0.16435008E+03</pdfrwt>
<totfact> 0.12987508E+02</totfact>
</mgrwt>
</event>
<event>
 6    1  0.7457796E-006  0.1572629E+03  0.7546771E-02  0.1207861E+00
          2   -1    0    0  501    0  0.00000000000E+00  0.00000000000E+00  0.35956493808E+02  0.35956493808E+02  0.00000000000E+00 0. -1.
         -2   -1    0    0    0  501 -0.00000000000E+00 -0.00000000000E+00 -0.69811646474E+03  0.69811646474E+03  0.00000000000E+00 0.  1.
          5    1    1    2  502    0  0.47802556187E+02  0.63844295270E+01 -0.17219015663E+03  0.17887812991E+03  0.47000000000E+01 0. -1.
         -5    1    1    2    0  502 -0.10359202955E+03 -0.32935102054E+02 -0.39308660416E+03  0.40786664230E+03  0.47000000000E+01 0.  1.
        -11    1    1    2    0    0  0.27194133637E+02 -0.33627760128E+02 -0.28146811185E+02  0.51600292009E+02  0.00000000000E+00 0. -1.
         11    1    1    2    0    0  0.28595339727E+02  0.60178432655E+02 -0.68736398951E+02  0.95727894324E+02  0.00000000000E+00 0.  1.
<mgrwt>
<rscale>  0 0.14414269E+03</rscale>
<asrwt>0</asrwt>
<pdfrwt beam="1">  1        2 0.55317681E-02 0.15726287E+03</pdfrwt>
<pdfrwt beam="2">  1       -2 0.10740254E+00 0.15726287E+03</pdfrwt>
<totfact> 0.97473258E+02</totfact>
</mgrwt>
</event>
<event>
 6    1  0.7457796E-006  0.3780532E+03  0.7546771E-02  0.1051656E+00
         -2   -1    0    0    0  501 -0.00000000000E+00  0.00000000000E+00  0.30819591180E+02  0.30819591180E+02  0.00000000000E+00 0.  1.
          2   -1    0    0  501    0  0.00000000000E+00 -0.00000000000E+00 -0.11593615225E+04  0.11593615225E+04  0.00000000000E+00 0. -1.
          5    1    1    2  502    0 -0.46734539876E+01  0.16512353571E+03 -0.54954835661E+03  0.57385809175E+03  0.47000000000E+01 0. -1.
         -5    1    1    2    0  502  0.14474632371E+02 -0.13794327057E+02 -0.20099313168E+02  0.28737968457E+02  0.47000000000E+01 0. -1.
        -11    1    1    2    0    0 -0.42414451735E+02 -0.14079761867E+03 -0.45836916645E+03  0.48137848715E+03  0.00000000000E+00 0.  1.
         11    1    1    2    0    0  0.32613273351E+02 -0.10531589979E+02 -0.10052509509E+03  0.10620656632E+03  0.00000000000E+00 0. -1.
<mgrwt>
<rscale>  0 0.37805316E+03</rscale>
<asrwt>0</asrwt>
<pdfrwt beam="2">  1        2 0.17836333E+00 0.37805316E+03</pdfrwt>
<pdfrwt beam="1">  1       -2 0.47414750E-02 0.37805316E+03</pdfrwt>
<totfact> 0.44951204E+03</totfact>
</mgrwt>
</event>
<event>
 6    1  0.7457796E-006  0.2827139E+03  0.7546771E-02  0.1094216E+00
         -1   -1    0    0    0  501 -0.00000000000E+00  0.00000000000E+00  0.26382944403E+02  0.26382944403E+02  0.00000000000E+00 0.  1.
          1   -1    0    0  501    0  0.00000000000E+00 -0.00000000000E+00 -0.75737522907E+03  0.75737522907E+03  0.00000000000E+00 0. -1.
          5    1    1    2  502    0  0.68664820723E+00  0.36155445200E+02 -0.86539931145E+02  0.93909197558E+02  0.47000000000E+01 0. -1.
         -5    1    1    2    0  502 -0.54180094956E+02 -0.98157431371E+02 -0.20546159387E+03  0.23410877937E+03  0.47000000000E+01 0. -1.
        -11    1    1    2    0    0  0.62581989390E+02  0.10197981222E+02 -0.31038145963E+03  0.31679197386E+03  0.00000000000E+00 0. -1.
         11    1    1    2    0    0 -0.90885426414E+01  0.51804004950E+02 -0.12860930002E+03  0.13894822269E+03  0.00000000000E+00 0.  1.
<mgrwt>
<rscale>  0 0.28271391E+03</rscale>
<asrwt>0</asrwt>
<pdfrwt beam="2">  1        1 0.11651925E+00 0.28271391E+03</pdfrwt>
<pdfrwt beam="1">  1       -1 0.40589150E-02 0.28271391E+03</pdfrwt>
<totfact> 0.60223541E+03</totfact>
</mgrwt>
</event>
<event>
 6    1  0.7457796E-006  0.3381607E+03  0.7546771E-02  0.1067582E+00
          1   -1    0    0  501    0  0.00000000000E+00  0.00000000000E+00  0.42377995308E+02  0.42377995308E+02  0.00000000000E+00 0. -1.
         -1   -1    0    0    0  501 -0.00000000000E+00 -0.00000000000E+00 -0.67459935762E+03  0.67459935762E+03  0.00000000000E+00 0.  1.
          5    1    1    2  502    0  0.15702859984E+02  0.13084407197E+03 -0.31618995686E+03  0.34258565323E+03  0.47000000000E+01 0. -1.
         -5    1    1    2    0  502 -0.41051863670E+02 -0.11324647593E+02 -0.11084647286E+03  0.11883826698E+03  0.47000000000E+01 0. -1.
        -11    1    1    2    0    0  0.19308786006E+02 -0.70296871322E+02 -0.40143857562E+02  0.83222644963E+02  0.00000000000E+00 0. -1.
         11    1    1    2    0    0  0.60402176800E+01 -0.49222553059E+02 -0.16504107503E+03  0.17233078775E+03  0.00000000000E+00 0.  1.
<mgrwt>
<rscale>  0 0.33816072E+03</rscale>
<asrwt>0</asrwt>
<pdfrwt beam="1">  1        1 0.65196920E-02 0.33816072E+03</pdfrwt>
<pdfrwt beam="2">  1       -1 0.10378451E+00 0.33816072E+03</pdfrwt>
<totfact> 0.10707446E+03</totfact>
</mgrwt>
</event>
<event>
 6    1  0.7457796E-006  0.1615706E+03  0.7546771E-02  0.1194343E+00
          1   -1    0    0  501    0  0.00000000000E+00  0.00000000000E+00  0.72229331084E+03  0.72229331084E+03  0.00000000000E+00 0. -1.
         -1   -1    0    0    0  501 -0.00000000000E+00 -0.00000000000E+00 -0.31068921675E+02  0.31068921675E+02  0.00000000000E+00 0.  1.
          5    1    1    2  502    0 -0.61850395487E+02  0.58775084044E+02  0.26433914937E+03  0.27780795132E+03  0.47000000000E+01 0. -1.
         -5    1    1    2    0  502 -0.40518211781E+02 -0.59537609898E+02  0.13732433096E+03  0.15513385946E+03  0.47000000000E+01 0. -1.
        -11    1    1    2    0    0  0.23133539463E+01  0.32207235996E+02  0.71007210869E+02  0.78004369444E+02  0.00000000000E+00 0.  1.
         11    1    1    2    0    0  0.10005525332E+03 -0.31444710142E+02  0.21855369797E+03  0.24241605229E+03  0.00000000000E+00 0. -1.
<mgrwt>
<rscale>  0 0.15509934E+03</rscale>
<asrwt>0</asrwt>
<pdfrwt beam="1">  1        1 0.11112204E+00 0.16157060E+03</pdfrwt>
<pdfrwt beam="2">  1       -1 0.47798346E-02 0.16157060E+03</pdfrwt>
<totfact> 0.49555352E+03</totfact>
</mgrwt>
</event>
<event>
 6    1  0.7457796E-006  0.1446230E+03  0.7546771E-02  0.1219902E+00
          2   -1    0    0  501    0  0.00000000000E+00  0.00000000000E+00  0.12495773066E+04  0.12495773066E+04  0.00000000000E+00 0. -1.
         -2   -1    0    0    0  501 -0.00000000000E+00 -0.00000000000E+00 -0.13916884395E+02  0.13916884395E+02  0.00000000000E+00 0.  1.
          5    1    1    2  502    0  0.37976063001E+02 -0.41271551047E+02  0.82738440194E+03  0.82929642521E+03  0.47000000000E+01 0. -1.
         -5    1    1    2    0  502 -0.24867695590E+02 -0.11982444571E+01  0.26176546672E+02  0.36429928210E+02  0.47000000000E+01 0.  1.
        -11    1    1    2    0    0 -0.20892981948E+02  0.73078768787E+02  0.30757478891E+03  0.31682688319E+03  0.00000000000E+00 0. -1.
         11    1    1    2    0    0  0.77846145368E+01 -0.30608973283E+02  0.74524684643E+02  0.80940954343E+02  0.00000000000E+00 0.  1.
<mgrwt>
<rscale>  0 0.13522553E+03</rscale>
<asrwt>0</asrwt>
<pdfrwt beam="1">  1        2 0.19224257E+00 0.14462305E+03</pdfrwt>
<pdfrwt beam="2">  1       -2 0.21410601E-02 0.14462305E+03</pdfrwt>
<totfact> 0.12694392E+04</totfact>
</mgrwt>
</event>
<event>
 6    1  0.7457796E-006  0.1640310E+03  0.7546771E-02  0.1189357E+00
         -2   -1    0    0    0  501 -0.00000000000E+00  0.00000000000E+00  0.99491239214E+03  0.99491239214E+03  0.00000000000E+00 0.  1.
          2   -1    0    0  501    0  0.00000000000E+00 -0.00000000000E+00 -0.29917148481E+02  0.29917148481E+02  0.00000000000E+00 0. -1.
          5    1    1    2  502    0 -0.27437861153E+02  0.22327129657E+02  0.55744505511E+02  0.66188192588E+02  0.47000000000E+01 0.  1.
         -5    1    1    2    0  502  0.70089653062E+02  0.74945419427E+02  0.67260491088E+03  0.68040343289E+03  0.47000000000E+01 0.  1.
        -11    1    1    2    0    0 -0.10648034193E+02 -0.95404624962E+02  0.22413019147E+03  0.24382322659E+03  0.00000000000E+00 0.  1.
         11    1    1    2    0    0 -0.32003757716E+02 -0.18679241216E+01  0.12515635805E+02  0.34414688551E+02  0.00000000000E+00 0. -1.
<mgrwt>
<rscale>  0 0.15941696E+03</rscale>
<asrwt>0</asrwt>
<pdfrwt beam="2">  1        2 0.46026390E-02 0.16403104E+03</pdfrwt>
<pdfrwt beam="1">  1       -2 0.15306342E+00 0.16403104E+03</pdfrwt>
<totfact> 0.52059188E+02</totfact>
</mgrwt>
</event>
<event>
 6    1  0.7457796E-006  0.2571211E+03  0.7546771E-02  0.1111180E+00
         -2   -1    0    0    0  501 -0.00000000000E+00  0.00000000000E+00  0.21498944462E+03  0.21498944462E+03  0.00000000000E+00 0.  1.
          2   -1    0    0  501    0  0.00000000000E+00 -0.00000000000E+00 -0.29043071076E+03  0.29043071076E+03  0.00000000000E+00 0. -1.
          5    1    1    2  502    0  0.27600027354E+01  0.21173853330E+01 -0.34046899291E+02  0.34545365638E+02  0.47000000000E+01 0.  1.
         -5    1    1    2    0  502  0.13567143399E+03 -0.17910459263E+03  0.62248214058E+00  0.22473911673E+03  0.47000000000E+01 0.  1.
        -11    1    1    2    0    0 -0.12401868021E+03  0.10284574798E+03 -0.53442899584E+02  0.16974694234E+03  0.00000000000E+00 0.  1.
         11    1    1    2    0    0 -0.14412756516E+02  0.74141459322E+02  0.11426050589E+02  0.76388730666E+02  0.00000000000E+00 0. -1.
<mgrwt>
<rscale>  0 0.25339116E+03</rscale>
<asrwt>0</asrwt>
<pdfrwt beam="2">  1        2 0.44681648E-01 0.25712108E+03</pdfrwt>
<pdfrwt beam="1">  1       -2 0.33075299E-01 0.25712108E+03</pdfrwt>
<totfact> 0.96785342E+02</totfact>
</mgrwt>
</event>
<event>
 6    1  0.7457796E-006  0.2174601E+03  0.7546771E-02  0.1139233E+00
          2   -1    0    0  501    0  0.00000000000E+00  0.00000000000E+00  0.16006105958E+04  0.16006105958E+04  0.00000000000E+00 0. -1.
         -2   -1    0    0    0  501 -0.00000000000E+00 -0.00000000000E+00 -0.32818461934E+02  0.32818461934E+02  0.00000000000E+00 0.  1.
          5    1    1    2  502    0  0.96240776305E+02 -0.12320451059E+03  0.35877689279E+03  0.39138802645E+03  0.47000000000E+01 0. -1.
         -5    1    1    2    0  502 -0.39524658060E+02 -0.45497768790E+02  0.11537354764E+03  0.13025126124E+03  0.47000000000E+01 0. -1.
        -11    1    1    2    0    0  0.22853144597E+02  0.16167063911E+02  0.15934679879E+03  0.16178702809E+03  0.00000000000E+00 0.  1.
         11    1    1    2    0    0 -0.79569262842E+02  0.15253521547E+03  0.93429489466E+03  0.95000274196E+03  0.00000000000E+00 0. -1.
<mgrwt>
<rscale>  0 0.21297334E+03</rscale>
<asrwt>0</asrwt>
<pdfrwt beam="1">  1        2 0.24624772E+00 0.21746013E+03</pdfrwt>
<pdfrwt beam="2">  1       -2 0.50489954E-02 0.21746013E+03</pdfrwt>
<totfact> 0.23281149E+03</totfact>
</mgrwt>
</event>
<event>
 6    1  0.7457796E-006  0.1395336E+03  0.7546771E-02  0.1225554E+00
         -2   -1    0    0    0  501 -0.00000000000E+00  0.00000000000E+00  0.40495243837E+02  0.40495243837E+02  0.00000000000E+00 0.  1.
          2   -1    0    0  501    0  0.00000000000E+00 -0.00000000000E+00 -0.42208318314E+03  0.42208318314E+03  0.00000000000E+00 0. -1.
          5    1    1    2  502    0  0.75077359113E+02 -0.31731386982E+02 -0.46840399522E+02  0.94125468384E+02  0.47000000000E+01 0. -1.
         -5    1    1    2    0  502 -0.13919726059E+02  0.42078005311E+02 -0.94519366286E+02  0.10450032492E+03  0.47000000000E+01 0. -1.
        -11    1    1    2    0    0 -0.32013461634E+02 -0.40477411866E+02 -0.61067773235E+02  0.79953458494E+02  0.00000000000E+00 0.  1.
         11    1    1    2    0    0 -0.29144171419E+02  0.30130793538E+02 -0.17916040026E+03  0.18399917519E+03  0.00000000000E+00 0. -1.
<mgrwt>
<rscale>  0 0.13129008E+03</rscale>
<asrwt>0</asrwt>
<pdfrwt beam="2">  1        2 0.64935879E-01 0.13953359E+03</pdfrwt>
<pdfrwt beam="1">  1       -2 0.62300371E-02 0.13953359E+03</pdfrwt>
<totfact> 0.10000328E+04</totfact>
</mgrwt>
</event>
<event>
 6    1  0.7457796E-006  0.1500901E+03  0.7546771E-02  0.1209037E+00
          2   -1    0    0  501    0  0.00000000000E+00  0.00000000000E+00  0.47587407793E+03  0.47587407793E+03  0.00000000000E+00 0. -1.
         -2   -1    0    0    0  501 -0.00000000000E+00 -0.00000000000E+00 -0.42343719690E+02  0.42343719690E+02  0.00000000000E+00 0.  1.
          5    1    1    2  502    0  0.65497379795E+02  0.64450856258E+01  0.28934893617E+02  0.72046956614E+02  0.47000000000E+01 0.  1.
         -5    1    1    2    0  502 -0.48036271353E+01 -0.63169716761E+02  0.14118318027E+03  0.15481688648E+03  0.47000000000E+01 0.  1.
        -11    1    1    2    0    0 -0.57566110514E+02  0.47050766664E+02  0.26945698357E+03  0.27952584446E+03  0.00000000000E+00 0. -1.
         11    1    1    2    0    0 -0.31276421458E+01  0.96738644711E+01 -0.60446992162E+01  0.11828110069E+02  0.00000000000E+00 0.  1.
<mgrwt>
<rscale>  0 0.14323837E+03</rscale>
<asrwt>0</asrwt>
<pdfrwt beam="1">  1        2 0.73211393E-01 0.15009012E+03</pdfrwt>
<pdfrwt beam="2">  1       -2 0.65144187E-02 0.15009012E+03</pdfrwt>
<totfact> 0.82431850E+03</totfact>
</mgrwt>
</event>
<event>
 6    1  0.7457796E-006  0.2082276E+03  0.7546771E-02  0.1146863E+00
          1   -1    0    0  501    0  0.00000000000E+00  0.00000000000E+00  0.66054033368E+03  0.66054033368E+03  0.00000000000E+00 0. -1.
         -1   -1    0    0    0  501 -0.00000000000E+00 -0.00000000000E+00 -0.63054198337E+02  0.63054198337E+02  0.00000000000E+00 0.  1.
          5    1    1    2  502    0  0.58047273498E+01 -0.22888388534E+02  0.49452271098E+02  0.55001730028E+02  0.47000000000E+01 0. -1.
         -5    1    1    2    0  502 -0.16357930258E+03  0.76197395306E+02  0.18223790508E+03  0.25650921101E+03  0.47000000000E+01 0. -1.
        -11    1    1    2    0    0  0.81622261112E+02  0.11992902053E+02  0.11139173269E+03  0.13861508331E+03  0.00000000000E+00 0. -1.
         11    1    1    2    0    0  0.76152314118E+02 -0.65301908825E+02  0.25440422647E+03  0.27346850767E+03  0.00000000000E+00 0.  1.
<mgrwt>
<rscale>  0 0.20344680E+03</rscale>
<asrwt>0</asrwt>
<pdfrwt beam="1">  1        1 0.10162158E+00 0.20822759E+03</pdfrwt>
<pdfrwt beam="2">  1       -1 0.97006464E-02 0.20822759E+03</pdfrwt>
<totfact> 0.19503148E+03</totfact>
</mgrwt>
</event>
<event>
 6    1  0.7457796E-006  0.1874687E+03  0.7546771E-02  0.1165873E+00
          2   -1    0    0  501    0  0.00000000000E+00  0.00000000000E+00  0.87887938243E+03  0.87887938243E+03  0.00000000000E+00 0. -1.
         -2   -1    0    0    0  501 -0.00000000000E+00 -0.00000000000E+00 -0.43694419524E+02  0.43694419524E+02  0.00000000000E+00 0.  1.
          5    1    1    2  502    0 -0.24843579782E+02  0.60657484445E+01 -0.40894439281E+00  0.26004884082E+02  0.47000000000E+01 0.  1.
         -5    1    1    2    0  502 -0.16120069896E+02 -0.13963872505E+03  0.24051299922E+03  0.27861698258E+03  0.47000000000E+01 0.  1.
        -11    1    1    2    0    0  0.32716644313E+02  0.12054454920E+03  0.58775574100E+03  0.60088116815E+03  0.00000000000E+00 0. -1.
         11    1    1    2    0    0  0.82470053652E+01  0.13028427405E+02  0.73251670707E+01  0.17070767140E+02  0.00000000000E+00 0.  1.
<mgrwt>
<rscale>  0 0.18200839E+03</rscale>
<asrwt>0</asrwt>
<pdfrwt beam="1">  1        2 0.13521220E+00 0.18746873E+03</pdfrwt>
<pdfrwt beam="2">  1       -2 0.67222190E-02 0.18746873E+03</pdfrwt>
<totfact> 0.38466517E+03</totfact>
</mgrwt>
</event>
<event>
 6    1  0.7457796E-006  0.3440229E+03  0.7546771E-02  0.1065095E+00
         -1   -1    0    0    0  501 -0.00000000000E+00  0.00000000000E+00  0.25664049745E+02  0.25664049745E+02  0.00000000000E+00 0.  1.
          1   -1    0    0  501    0  0.00000000000E+00 -0.00000000000E+00 -0.11528942176E+04  0.11528942176E+04  0.00000000000E+00 0. -1.
          5    1    1    2  502    0 -0.16036754577E+02 -0.14065030479E+02 -0.28646662011E+02  0.36023934045E+02  0.47000000000E+01 0. -1.
         -5    1    1    2    0  502  0.14561667497E+03 -0.15415847079E+00 -0.66232791727E+03  0.67816266470E+03  0.47000000000E+01 0. -1.
        -11    1    1    2    0    0 -0.10443399389E+03 -0.27198784913E+02 -0.33814716101E+03  0.35495032818E+03  0.00000000000E+00 0.  1.
         11    1    1    2    0    0 -0.25145926502E+02  0.41417973863E+02 -0.98108427534E+02  0.10942134039E+03  0.00000000000E+00 0. -1.
<mgrwt>
<rscale>  0 0.34402287E+03</rscale>
<asrwt>0</asrwt>
<pdfrwt beam="2">  1        1 0.17736834E+00 0.34402287E+03</pdfrwt>
<pdfrwt beam="1">  1       -1 0.39483154E-02 0.34402287E+03</pdfrwt>
<totfact> 0.31068639E+03</totfact>
</mgrwt>
</event>
<event>
 6    1  0.7457796E-006  0.1283735E+03  0.7546771E-02  0.1243174E+00
         -2   -1    0    0    0  501 -0.00000000000E+00  0.00000000000E+00  0.12588423954E+03  0.12588423954E+03  0.00000000000E+00 0.  1.
          2   -1    0    0  501    0  0.00000000000E+00 -0.00000000000E+00 -0.10407357181E+03  0.10407357181E+03  0.00000000000E+00 0. -1.
          5    1    1    2  502    0 -0.32815212927E+02  0.23456407214E+02  0.65258620786E+02  0.76862336848E+02  0.47000000000E+01 0.  1.
         -5    1    1    2    0  502  0.91396274133E+01 -0.40595976145E+02 -0.35518548503E+02  0.54911049490E+02  0.47000000000E+01 0.  1.
        -11    1    1    2    0    0  0.30367316655E+02  0.47943069668E+02  0.15591580989E+02  0.58854135350E+02  0.00000000000E+00 0.  1.
         11    1    1    2    0    0 -0.66917311420E+01 -0.30803500738E+02 -0.23520985542E+02  0.39330289653E+02  0.00000000000E+00 0. -1.
<mgrwt>
<rscale>  0 0.11995323E+03</rscale>
<asrwt>0</asrwt>
<pdfrwt beam="2">  1        2 0.16011319E-01 0.12837349E+03</pdfrwt>
<pdfrwt beam="1">  1       -2 0.19366806E-01 0.12837349E+03</pdfrwt>
<totfact> 0.75373803E+03</totfact>
</mgrwt>
</event>
<event>
 6    1  0.7457796E-006  0.2808053E+03  0.7546771E-02  0.1095250E+00
          1   -1    0    0  501    0  0.00000000000E+00  0.00000000000E+00  0.36445345199E+02  0.36445345199E+02  0.00000000000E+00 0. -1.
         -1   -1    0    0    0  501 -0.00000000000E+00 -0.00000000000E+00 -0.54088950953E+03  0.54088950953E+03  0.00000000000E+00 0.  1.
          5    1    1    2  502    0 -0.24052809662E+02  0.12105106043E+01 -0.15857764325E+02  0.29215777894E+02  0.47000000000E+01 0. -1.
         -5    1    1    2    0  502  0.15477249564E+02 -0.47272110116E+02 -0.42228653703E+03  0.42523194495E+03  0.47000000000E+01 0.  1.
        -11    1    1    2    0    0  0.19588692228E+02  0.22045994843E+02 -0.85358784103E+02  0.90309826571E+02  0.00000000000E+00 0.  1.
         11    1    1    2    0    0 -0.11013132129E+02  0.24015604668E+02  0.19058921128E+02  0.32577305312E+02  0.00000000000E+00 0. -1.
<mgrwt>
<rscale>  0 0.28080531E+03</rscale>
<asrwt>0</asrwt>
<pdfrwt beam="1">  1        1 0.56069767E-02 0.28080531E+03</pdfrwt>
<pdfrwt beam="2">  1       -1 0.83213763E-01 0.28080531E+03</pdfrwt>
<totfact> 0.21298384E+03</totfact>
</mgrwt>
</event>
<event>
 6    1  0.7457796E-006  0.1742875E+03  0.7546771E-02  0.1179454E+00
         -2   -1    0    0    0  501 -0.00000000000E+00  0.00000000000E+00  0.18929668376E+03  0.18929668376E+03  0.00000000000E+00 0.  1.
          2   -1    0    0  501    0  0.00000000000E+00 -0.00000000000E+00 -0.14145067426E+03  0.14145067426E+03  0.00000000000E+00 0. -1.
          5    1    1    2  502    0 -0.23017678265E+02  0.18497754055E+02 -0.23345343436E+02  0.37935148319E+02  0.47000000000E+01 0.  1.
         -5    1    1    2    0  502 -0.28211914671E+02 -0.12862021079E+03  0.37146980328E+02  0.13689798721E+03  0.47000000000E+01 0.  1.
        -11    1    1    2    0    0 -0.52994469130E+01  0.17577609940E+02  0.43344449535E+02  0.47072261623E+02  0.00000000000E+00 0.  1.
         11    1    1    2    0    0  0.56529039850E+02  0.92544846798E+02 -0.93000769203E+01  0.10884196087E+03  0.00000000000E+00 0. -1.
<mgrwt>
<rscale>  0 0.16846866E+03</rscale>
<asrwt>0</asrwt>
<pdfrwt beam="2">  1        2 0.21761642E-01 0.17428752E+03</pdfrwt>
<pdfrwt beam="1">  1       -2 0.29122567E-01 0.17428752E+03</pdfrwt>
<totfact> 0.26600393E+03</totfact>
</mgrwt>
</event>
<event>
 6    1  0.7457796E-006  0.1484853E+03  0.7546771E-02  0.1211962E+00
          1   -1    0    0  501    0  0.00000000000E+00  0.00000000000E+00  0.95293044695E+03  0.95293044695E+03  0.00000000000E+00 0. -1.
         -1   -1    0    0    0  501 -0.00000000000E+00 -0.00000000000E+00 -0.20399934044E+02  0.20399934044E+02  0.00000000000E+00 0.  1.
          5    1    1    2  502    0  0.11234770589E+02  0.79439525905E+02  0.37687498444E+03  0.38534880594E+03  0.47000000000E+01 0.  1.
         -5    1    1    2    0  502 -0.25776274079E+02 -0.61264214736E+00  0.83563305850E+01  0.27508360487E+02  0.47000000000E+01 0.  1.
        -11    1    1    2    0    0  0.21605371746E+00  0.18683862644E+02  0.47376347179E+02  0.50927906638E+02  0.00000000000E+00 0.  1.
         11    1    1    2    0    0  0.14325449773E+02 -0.97510746402E+02  0.49992285071E+03  0.50954530793E+03  0.00000000000E+00 0. -1.
<mgrwt>
<rscale>  0 0.14102094E+03</rscale>
<asrwt>0</asrwt>
<pdfrwt beam="1">  1        1 0.14660465E+00 0.14848526E+03</pdfrwt>
<pdfrwt beam="2">  1       -1 0.31384521E-02 0.14848526E+03</pdfrwt>
<totfact> 0.59805488E+03</totfact>
</mgrwt>
</event>
<event>
 6    1  0.7457796E-006  0.1872976E+03  0.7546771E-02  0.1166108E+00
          1   -1    0    0  501    0  0.00000000000E+00  0.00000000000E+00  0.48696219968E+03  0.48696219968E+03  0.00000000000E+00 0. -1.
         -1   -1    0    0    0  501 -0.00000000000E+00 -0.00000000000E+00 -0.75658062991E+02  0.75658062991E+02  0.00000000000E+00 0.  1.
          5    1    1    2  502    0 -0.13285907823E+02  0.13640313554E+03  0.59610637337E+02  0.14952541194E+03  0.47000000000E+01 0. -1.
         -5    1    1    2    0  502 -0.45094322373E+02 -0.97526742910E+01  0.46817327154E+02  0.65898138729E+02  0.47000000000E+01 0. -1.
        -11    1    1    2    0    0  0.10376692520E+02 -0.10853574018E+03  0.24613698784E+03  0.26920456799E+03  0.00000000000E+00 0.  1.
         11    1    1    2    0    0  0.48003537676E+02 -0.18114721070E+02  0.58739184349E+02  0.77992144007E+02  0.00000000000E+00 0. -1.
<mgrwt>
<rscale>  0 0.18176284E+03</rscale>
<asrwt>0</asrwt>
<pdfrwt beam="1">  1        1 0.74917259E-01 0.18729761E+03</pdfrwt>
<pdfrwt beam="2">  1       -1 0.11639702E-01 0.18729761E+03</pdfrwt>
<totfact> 0.22239260E+03</totfact>
</mgrwt>
</event>
<event>
 6    1  0.7457796E-006  0.3370999E+03  0.7546771E-02  0.1068038E+00
         -1   -1    0    0    0  501 -0.00000000000E+00  0.00000000000E+00  0.81133643945E+02  0.81133643945E+02  0.00000000000E+00 0.  1.
          1   -1    0    0  501    0  0.00000000000E+00 -0.00000000000E+00 -0.35015165226E+03  0.35015165226E+03  0.00000000000E+00 0. -1.
          5    1    1    2  502    0  0.11950184755E+03  0.62866942070E+02 -0.55184146047E+02  0.14594630502E+03  0.47000000000E+01 0.  1.
         -5    1    1    2    0  502 -0.30657975399E+02  0.19535826087E+02 -0.32474456429E+02  0.48971831463E+02  0.47000000000E+01 0.  1.
        -11    1    1    2    0    0 -0.30367316974E+02 -0.58154012007E+02 -0.29678763931E+02  0.72006194742E+02  0.00000000000E+00 0.  1.
         11    1    1    2    0    0 -0.58476555179E+02 -0.24248756151E+02 -0.15168064190E+03  0.16436096498E+03  0.00000000000E+00 0. -1.
<mgrwt>
<rscale>  0 0.33709986E+03</rscale>
<asrwt>0</asrwt>
<pdfrwt beam="2">  1        1 0.53869484E-01 0.33709986E+03</pdfrwt>
<pdfrwt beam="1">  1       -1 0.12482099E-01 0.33709986E+03</pdfrwt>
<totfact> 0.31028036E+03</totfact>
</mgrwt>
</event>
<event>
 6    1  0.1008366E-005  0.2890458E+03  0.7546771E-02  0.1090848E+00
         -1   -1    0    0    0  501 -0.00000000000E+00  0.00000000000E+00  0.38033546938E+02  0.38033546938E+02  0.00000000000E+00 0.  1.
          1   -1    0    0  501    0  0.00000000000E+00 -0.00000000000E+00 -0.54916963203E+03  0.54916963203E+03  0.00000000000E+00 0. -1.
          5    1    1    2  502    0  0.20245701017E+02 -0.25167167575E+02 -0.24712739717E+02  0.40940007789E+02  0.47000000000E+01 0. -1.
         -5    1    1    2    0  502 -0.10961322530E+03  0.42266021452E+02 -0.19544085422E+03  0.22808045342E+03  0.47000000000E+01 0. -1.
        -11    1    1    2    0    0  0.39434290647E+02  0.26800395677E+02 -0.53937576479E+02  0.71990184356E+02  0.00000000000E+00 0.  1.
         11    1    1    2    0    0  0.49933233641E+02 -0.43899249554E+02 -0.23704491467E+03  0.24619253341E+03  0.00000000000E+00 0. -1.
<mgrwt>
<rscale>  0 0.28904580E+03</rscale>
<asrwt>0</asrwt>
<pdfrwt beam="2">  1        1 0.84487628E-01 0.28904580E+03</pdfrwt>
<pdfrwt beam="1">  1       -1 0.58513154E-02 0.28904580E+03</pdfrwt>
<totfact> 0.55068811E+03</totfact>
</mgrwt>
</event>
<event>
 6    1  0.7457796E-006  0.1353215E+03  0.7546771E-02  0.1231710E+00
          3   -1    0    0  501    0  0.00000000000E+00  0.00000000000E+00  0.16341728969E+03  0.16341728969E+03  0.00000000000E+00 0. -1.
         -3   -1    0    0    0  501 -0.00000000000E+00 -0.00000000000E+00 -0.95833352533E+02  0.95833352533E+02  0.00000000000E+00 0.  1.
          5    1    1    2  502    0  0.39964819146E+02 -0.69539309570E+02  0.38746628092E+02  0.89198057901E+02  0.47000000000E+01 0.  1.
         -5    1    1    2    0  502 -0.12716901969E+02  0.25439727918E+02 -0.36039946651E+02  0.46150483279E+02  0.47000000000E+01 0.  1.
        -11    1    1    2    0    0 -0.21854545795E+02 -0.94867312607E+01 -0.14565434844E+02  0.27924382431E+02  0.00000000000E+00 0.  1.
         11    1    1    2    0    0 -0.53933713816E+01  0.53586312913E+02  0.79442690560E+02  0.95977718611E+02  0.00000000000E+00 0. -1.
<mgrwt>
<rscale>  0 0.12717411E+03</rscale>
<asrwt>0</asrwt>
<pdfrwt beam="1">  1        3 0.25141121E-01 0.13532147E+03</pdfrwt>
<pdfrwt beam="2">  1       -3 0.14743593E-01 0.13532147E+03</pdfrwt>
<totfact> 0.13076799E+03</totfact>
</mgrwt>
</event>
<event>
 6    1  0.7457796E-006  0.2710221E+03  0.7546771E-02  0.1102761E+00
          2   -1    0    0  501    0  0.00000000000E+00  0.00000000000E+00  0.34897873384E+03  0.34897873384E+03  0.00000000000E+00 0. -1.
         -2   -1    0    0    0  501 -0.00000000000E+00 -0.00000000000E+00 -0.22440125325E+03  0.22440125325E+03  0.00000000000E+00 0.  1.
          5    1    1    2  502    0 -0.10404848929E+03 -0.12106211734E+03 -0.78449101915E+02  0.17792828884E+03  0.47000000000E+01 0.  1.
         -5    1    1    2    0  502 -0.66392003534E+02 -0.48578520313E+02  0.47081940357E+02  0.94902949780E+02  0.47000000000E+01 0.  1.
        -11    1    1    2    0    0  0.12037152799E+03  0.63138016483E+02  0.59433387382E+02  0.14835107486E+03  0.00000000000E+00 0.  1.
         11    1    1    2    0    0  0.50068964830E+02  0.10650262117E+03  0.96511254764E+02  0.15219767361E+03  0.00000000000E+00 0. -1.
<mgrwt>
<rscale>  0 0.26742711E+03</rscale>
<asrwt>0</asrwt>
<pdfrwt beam="1">  1        2 0.53689036E-01 0.27102211E+03</pdfrwt>
<pdfrwt beam="2">  1       -2 0.34523270E-01 0.27102211E+03</pdfrwt>
<totfact> 0.73290154E+02</totfact>
</mgrwt>
</event>
<event>
 6    1  0.7457796E-006  0.1596125E+03  0.7546771E-02  0.1212868E+00
         -2   -1    0    0    0  501 -0.00000000000E+00  0.00000000000E+00  0.13111237768E+03  0.13111237768E+03  0.00000000000E+00 0.  1.
          2   -1    0    0  501    0  0.00000000000E+00 -0.00000000000E+00 -0.16648260746E+03  0.16648260746E+03  0.00000000000E+00 0. -1.
          5    1    1    2  502    0 -0.39226896588E+02  0.32817539233E+02 -0.44050006808E+02  0.67662644029E+02  0.47000000000E+01 0. -1.
         -5    1    1    2    0  502  0.20299132892E+02 -0.18280273452E+02  0.96414872311E+02  0.10032019137E+03  0.47000000000E+01 0.  1.
        -11    1    1    2    0    0 -0.30120678364E+02 -0.29493764538E+02 -0.26719884684E+02  0.49910816957E+02  0.00000000000E+00 0.  1.
         11    1    1    2    0    0  0.49048442060E+02  0.14956498758E+02 -0.61015210595E+02  0.79701332784E+02  0.00000000000E+00 0. -1.
<mgrwt>
<rscale>  0 0.14034323E+03</rscale>
<asrwt>0</asrwt>
<pdfrwt beam="2">  1        2 0.25612709E-01 0.15961251E+03</pdfrwt>
<pdfrwt beam="1">  1       -2 0.20171135E-01 0.15961251E+03</pdfrwt>
<totfact> 0.41946579E+03</totfact>
</mgrwt>
</event>
<event>
 6    1  0.7457796E-006  0.1828288E+03  0.7546771E-02  0.1178514E+00
          2   -1    0    0  501    0  0.00000000000E+00  0.00000000000E+00  0.64110530949E+03  0.64110530949E+03  0.00000000000E+00 0. -1.
         -2   -1    0    0    0  501 -0.00000000000E+00 -0.00000000000E+00 -0.39911356243E+02  0.39911356243E+02  0.00000000000E+00 0.  1.
          5    1    1    2  502    0  0.52502482278E+02 -0.35257679698E+02  0.26601072009E+03  0.27346555144E+03  0.47000000000E+01 0. -1.
         -5    1    1    2    0  502 -0.37128152587E+02 -0.61257047223E+02  0.37835080231E+02  0.81144986568E+02  0.47000000000E+01 0.  1.
        -11    1    1    2    0    0  0.17358031220E+02 -0.42795224835E+01  0.10794676435E+02  0.20883979503E+02  0.00000000000E+00 0.  1.
         11    1    1    2    0    0 -0.32732360911E+02  0.10079424940E+03  0.28655347649E+03  0.30552214822E+03  0.00000000000E+00 0. -1.
<mgrwt>
<rscale>  0 0.16936290E+03</rscale>
<asrwt>0</asrwt>
<pdfrwt beam="1">  1        2 0.98631578E-01 0.18282878E+03</pdfrwt>
<pdfrwt beam="2">  1       -2 0.61402091E-02 0.18282878E+03</pdfrwt>
<totfact> 0.65169915E+03</totfact>
</mgrwt>
</event>
<event>
 6    1  0.7457796E-006  0.1563950E+03  0.7546771E-02  0.1200929E+00
         -2   -1    0    0    0  501 -0.00000000000E+00  0.00000000000E+00  0.24219850186E+02  0.24219850186E+02  0.00000000000E+00 0.  1.
          2   -1    0    0  501    0  0.00000000000E+00 -0.00000000000E+00 -0.10803400695E+04  0.10803400695E+04  0.00000000000E+00 0. -1.
          5    1    1    2  502    0  0.47824495611E+02  0.36873671797E+01 -0.36614731272E+02  0.60526916353E+02  0.47000000000E+01 0.  1.
         -5    1    1    2    0  502 -0.19948734804E+01 -0.85733805817E+02 -0.27553633446E+03  0.28861154964E+03  0.47000000000E+01 0.  1.
        -11    1    1    2    0    0 -0.72900335320E+02  0.69979046359E+02 -0.59727395476E+03  0.60576208436E+03  0.00000000000E+00 0.  1.
         11    1    1    2    0    0  0.27070713189E+02  0.12067392278E+02 -0.14669519880E+03  0.14965936930E+03  0.00000000000E+00 0. -1.
<mgrwt>
<rscale>  0 0.14962976E+03</rscale>
<asrwt>0</asrwt>
<pdfrwt beam="2">  1        2 0.16620613E+00 0.15639495E+03</pdfrwt>
<pdfrwt beam="1">  1       -2 0.37261315E-02 0.15639495E+03</pdfrwt>
<totfact> 0.70223370E+03</totfact>
</mgrwt>
</event>
<event>
 6    1  0.7457796E-006  0.1745511E+03  0.7546771E-02  0.1179095E+00
         -1   -1    0    0    0  501 -0.00000000000E+00  0.00000000000E+00  0.43500436032E+02  0.43500436032E+02  0.00000000000E+00 0.  1.
          1   -1    0    0  501    0  0.00000000000E+00 -0.00000000000E+00 -0.67566663220E+03  0.67566663220E+03  0.00000000000E+00 0. -1.
          5    1    1    2  502    0 -0.54590949069E+01 -0.46041570760E+02 -0.15827831470E+03  0.16499619044E+03  0.47000000000E+01 0.  1.
         -5    1    1    2    0  502  0.92100935386E+02 -0.39554852029E+02 -0.69907226220E+02  0.12229586623E+03  0.47000000000E+01 0.  1.
        -11    1    1    2    0    0 -0.24993035668E+02  0.87134180135E+02 -0.25515734267E+03  0.27078088318E+03  0.00000000000E+00 0.  1.
         11    1    1    2    0    0 -0.61648804811E+02 -0.15377573462E+01 -0.14882331258E+03  0.16109412838E+03  0.00000000000E+00 0. -1.
<mgrwt>
<rscale>  0 0.16880989E+03</rscale>
<asrwt>0</asrwt>
<pdfrwt beam="2">  1        1 0.10394871E+00 0.17455109E+03</pdfrwt>
<pdfrwt beam="1">  1       -1 0.66923747E-02 0.17455109E+03</pdfrwt>
<totfact> 0.33085103E+03</totfact>
</mgrwt>
</event>
<event>
 6    1  0.7457796E-006  0.1357772E+03  0.7546771E-02  0.1227242E+00
          1   -1    0    0  501    0  0.00000000000E+00  0.00000000000E+00  0.10899602475E+03  0.10899602475E+03  0.00000000000E+00 0. -1.
         -1   -1    0    0    0  501 -0.00000000000E+00 -0.00000000000E+00 -0.19387770976E+03  0.19387770976E+03  0.00000000000E+00 0.  1.
          5    1    1    2  502    0  0.38576033966E+02  0.15823602039E+02 -0.52300018580E+02  0.67051314092E+02  0.47000000000E+01 0. -1.
         -5    1    1    2    0  502 -0.81245091027E+02  0.43055664617E+02 -0.69565317109E+02  0.11539488037E+03  0.47000000000E+01 0.  1.
        -11    1    1    2    0    0  0.61635091818E+01 -0.55063469482E+02 -0.14430890760E+02  0.57255786825E+02  0.00000000000E+00 0.  1.
         11    1    1    2    0    0  0.36505547879E+02 -0.38157971738E+01  0.51414541439E+02  0.63171753225E+02  0.00000000000E+00 0. -1.
<mgrwt>
<rscale>  0 0.13014394E+03</rscale>
<asrwt>0</asrwt>
<pdfrwt beam="1">  1        1 0.16768619E-01 0.13577722E+03</pdfrwt>
<pdfrwt beam="2">  1       -1 0.29827340E-01 0.13577722E+03</pdfrwt>
<totfact> 0.31994871E+03</totfact>
</mgrwt>
</event>
<event>
 6    1  0.7457796E-006  0.1899517E+03  0.7546771E-02  0.1185680E+00
          1   -1    0    0  501    0  0.00000000000E+00  0.00000000000E+00  0.41654333758E+02  0.41654333758E+02  0.00000000000E+00 0. -1.
         -1   -1    0    0    0  501 -0.00000000000E+00 -0.00000000000E+00 -0.51244942161E+03  0.51244942161E+03  0.00000000000E+00 0.  1.
          5    1    1    2  502    0 -0.38459855865E+02  0.68464869768E+02 -0.71138885431E+02  0.10606332979E+03  0.47000000000E+01 0. -1.
         -5    1    1    2    0  502  0.79563321280E+02 -0.55943014515E+02 -0.23287780768E+03  0.25241653329E+03  0.47000000000E+01 0.  1.
        -11    1    1    2    0    0  0.15871201578E+02  0.12186729664E+02 -0.10893114936E+03  0.11075381132E+03  0.00000000000E+00 0. -1.
         11    1    1    2    0    0 -0.56974666993E+02 -0.24708584917E+02 -0.57847245380E+02  0.84870080981E+02  0.00000000000E+00 0.  1.
<mgrwt>
<rscale>  0 0.16270132E+03</rscale>
<asrwt>0</asrwt>
<pdfrwt beam="1">  1        1 0.64083590E-02 0.18995174E+03</pdfrwt>
<pdfrwt beam="2">  1       -1 0.78838373E-01 0.18995174E+03</pdfrwt>
<totfact> 0.19553098E+03</totfact>
</mgrwt>
</event>
<event>
 6    1  0.7457796E-006  0.1427892E+03  0.7546771E-02  0.1220340E+00
          4   -1    0    0  501    0  0.00000000000E+00  0.00000000000E+00  0.27222808633E+02  0.27222808633E+02  0.00000000000E+00 0. -1.
         -4   -1    0    0    0  501 -0.00000000000E+00 -0.00000000000E+00 -0.80582766987E+03  0.80582766987E+03  0.00000000000E+00 0.  1.
          5    1    1    2  502    0 -0.69734056242E+02  0.12028154326E+02 -0.46845237325E+03  0.47379028177E+03  0.47000000000E+01 0. -1.
         -5    1    1    2    0  502  0.17208213215E+02 -0.56796099408E+02 -0.16097845424E+03  0.17163354054E+03  0.47000000000E+01 0. -1.
        -11    1    1    2    0    0  0.76198303732E+02  0.40176329062E+02 -0.94489625654E+02  0.12786167629E+03  0.00000000000E+00 0. -1.
         11    1    1    2    0    0 -0.23672460705E+02  0.45916160201E+01 -0.54684408098E+02  0.59764979901E+02  0.00000000000E+00 0.  1.
<mgrwt>
<rscale>  0 0.13491455E+03</rscale>
<asrwt>0</asrwt>
<pdfrwt beam="1">  1        4 0.41881239E-02 0.14278916E+03</pdfrwt>
<pdfrwt beam="2">  1       -4 0.12397350E+00 0.14278916E+03</pdfrwt>
<totfact> 0.27427012E+02</totfact>
</mgrwt>
</event>
<event>
 6    1  0.7457796E-006  0.4930939E+03  0.7546771E-02  0.1015597E+00
         -2   -1    0    0    0  501 -0.00000000000E+00  0.00000000000E+00  0.81653090169E+03  0.81653090169E+03  0.00000000000E+00 0.  1.
          2   -1    0    0  501    0  0.00000000000E+00 -0.00000000000E+00 -0.74443468602E+02  0.74443468602E+02  0.00000000000E+00 0. -1.
          5    1    1    2  502    0  0.80187313865E+01  0.17413374762E+02  0.35736371781E+02  0.40825285568E+02  0.47000000000E+01 0.  1.
         -5    1    1    2    0  502 -0.14404340471E+01 -0.20012003443E+03  0.57010655362E+03  0.60422982011E+03  0.47000000000E+01 0.  1.
        -11    1    1    2    0    0  0.23618638231E+02  0.13154115117E+03  0.53275558745E+02  0.14387216438E+03  0.00000000000E+00 0. -1.
         11    1    1    2    0    0 -0.30196935571E+02  0.51165508497E+02  0.82968948944E+02  0.10204710024E+03  0.00000000000E+00 0.  1.
<mgrwt>
<rscale>  0 0.49309388E+03</rscale>
<asrwt>0</asrwt>
<pdfrwt beam="2">  1        2 0.11452842E-01 0.49309388E+03</pdfrwt>
<pdfrwt beam="1">  1       -2 0.12562013E+00 0.49309388E+03</pdfrwt>
<totfact> 0.26885055E+02</totfact>
</mgrwt>
</event>
<event>
 6    1  0.7457796E-006  0.4672307E+03  0.7546771E-02  0.1023283E+00
          2   -1    0    0  501    0  0.00000000000E+00  0.00000000000E+00  0.61722478571E+03  0.61722478571E+03  0.00000000000E+00 0. -1.
         -2   -1    0    0    0  501 -0.00000000000E+00 -0.00000000000E+00 -0.36319665920E+03  0.36319665920E+03  0.00000000000E+00 0.  1.
          5    1    1    2  502    0 -0.10164933099E+03  0.26495384738E+03 -0.29051620906E+01  0.28383737897E+03  0.47000000000E+01 0.  1.
         -5    1    1    2    0  502 -0.14162760008E+03  0.11385402973E+03  0.29437617309E+02  0.18414608468E+03  0.47000000000E+01 0.  1.
        -11    1    1    2    0    0  0.99895037852E+02 -0.80865454649E+02  0.63465007444E+02  0.14333892532E+03  0.00000000000E+00 0.  1.
         11    1    1    2    0    0  0.14338189322E+03 -0.29794242246E+03  0.16403066385E+03  0.36909905593E+03  0.00000000000E+00 0. -1.
<mgrwt>
<rscale>  0 0.46520274E+03</rscale>
<asrwt>0</asrwt>
<pdfrwt beam="1">  1        2 0.94957659E-01 0.46723073E+03</pdfrwt>
<pdfrwt beam="2">  1       -2 0.55876409E-01 0.46723073E+03</pdfrwt>
<totfact> 0.14827722E+02</totfact>
</mgrwt>
</event>
<event>
 6    1  0.7457796E-006  0.1804504E+03  0.7546771E-02  0.1172898E+00
          1   -1    0    0  501    0  0.00000000000E+00  0.00000000000E+00  0.38157623580E+02  0.38157623580E+02  0.00000000000E+00 0. -1.
         -1   -1    0    0    0  501 -0.00000000000E+00 -0.00000000000E+00 -0.77481435600E+03  0.77481435600E+03  0.00000000000E+00 0.  1.
          5    1    1    2  502    0 -0.30676873856E+02 -0.78423283798E+02 -0.29311767720E+03  0.30501040100E+03  0.47000000000E+01 0.  1.
         -5    1    1    2    0  502 -0.55899069754E+02 -0.18658438019E+02 -0.33005237015E+02  0.67707303735E+02  0.47000000000E+01 0.  1.
        -11    1    1    2    0    0 -0.94745806753E+01  0.46840534121E+02 -0.90204526233E+02  0.10208163336E+03  0.00000000000E+00 0. -1.
         11    1    1    2    0    0  0.96050524285E+02  0.50241187695E+02 -0.32032929197E+03  0.33817264148E+03  0.00000000000E+00 0.  1.
<mgrwt>
<rscale>  0 0.17483482E+03</rscale>
<asrwt>0</asrwt>
<pdfrwt beam="1">  1        1 0.58704040E-02 0.18045036E+03</pdfrwt>
<pdfrwt beam="2">  1       -1 0.11920220E+00 0.18045036E+03</pdfrwt>
<totfact> 0.88798633E+02</totfact>
</mgrwt>
</event>
<event>
 6    1  0.7457796E-006  0.1255824E+03  0.7546771E-02  0.1250297E+00
          2   -1    0    0  501    0  0.00000000000E+00  0.00000000000E+00  0.25501678755E+03  0.25501678755E+03  0.00000000000E+00 0. -1.
         -2   -1    0    0    0  501 -0.00000000000E+00 -0.00000000000E+00 -0.52946640459E+02  0.52946640459E+02  0.00000000000E+00 0.  1.
          5    1    1    2  502    0  0.38694442122E+02  0.44192805833E+02  0.20876145063E+02  0.62515337088E+02  0.47000000000E+01 0.  1.
         -5    1    1    2    0  502 -0.35072842973E+02 -0.55701568411E+02  0.38440306728E+02  0.76370912126E+02  0.47000000000E+01 0.  1.
        -11    1    1    2    0    0  0.25268601449E+01  0.48869276050E+02  0.10378748400E+03  0.11474507832E+03  0.00000000000E+00 0. -1.
         11    1    1    2    0    0 -0.61484592942E+01 -0.37360513472E+02  0.38966211294E+02  0.54332100467E+02  0.00000000000E+00 0.  1.
<mgrwt>
<rscale>  0 0.11573894E+03</rscale>
<asrwt>0</asrwt>
<pdfrwt beam="1">  1        2 0.39233351E-01 0.12558244E+03</pdfrwt>
<pdfrwt beam="2">  1       -2 0.81456371E-02 0.12558244E+03</pdfrwt>
<totfact> 0.11236029E+04</totfact>
</mgrwt>
</event>
<event>
 6    1  0.7457796E-006  0.3663672E+03  0.7546771E-02  0.1056091E+00
         -1   -1    0    0    0  501 -0.00000000000E+00  0.00000000000E+00  0.11003218801E+03  0.11003218801E+03  0.00000000000E+00 0.  1.
          1   -1    0    0  501    0  0.00000000000E+00 -0.00000000000E+00 -0.30496743814E+03  0.30496743814E+03  0.00000000000E+00 0. -1.
          5    1    1    2  502    0  0.22423927172E+02  0.59940618132E+01 -0.84960211444E+02  0.88199142941E+02  0.47000000000E+01 0. -1.
         -5    1    1    2    0  502  0.32816588728E+02  0.13001592258E+03 -0.34209541756E+02  0.13846823234E+03  0.47000000000E+01 0. -1.
        -11    1    1    2    0    0 -0.57589606265E+02 -0.33433105409E+02 -0.12389582329E+02  0.67733573930E+02  0.00000000000E+00 0.  1.
         11    1    1    2    0    0  0.23490903648E+01 -0.10257687899E+03 -0.63375914595E+02  0.12059867694E+03  0.00000000000E+00 0. -1.
<mgrwt>
<rscale>  0 0.36636722E+03</rscale>
<asrwt>0</asrwt>
<pdfrwt beam="2">  1        1 0.46918067E-01 0.36636722E+03</pdfrwt>
<pdfrwt beam="1">  1       -1 0.16928029E-01 0.36636722E+03</pdfrwt>
<totfact> 0.22790926E+03</totfact>
</mgrwt>
</event>
<event>
 6    1  0.7457796E-006  0.3724423E+03  0.7546771E-02  0.1053763E+00
          1   -1    0    0  501    0  0.00000000000E+00  0.00000000000E+00  0.18905580818E+03  0.18905580818E+03  0.00000000000E+00 0. -1.
         -1   -1    0    0    0  501 -0.00000000000E+00 -0.00000000000E+00 -0.18342895600E+03  0.18342895600E+03  0.00000000000E+00 0.  1.
          5    1    1    2  502    0  0.38444490984E+02 -0.17217491745E+02  0.35895669674E+02  0.55542866422E+02  0.47000000000E+01 0. -1.
         -5    1    1    2    0  502  0.24736279701E+02 -0.11143306955E+03 -0.80618823426E+02  0.13982380775E+03  0.47000000000E+01 0. -1.
        -11    1    1    2    0    0 -0.67007966804E+01  0.74151636166E+02 -0.13835347040E+02  0.75728347731E+02  0.00000000000E+00 0.  1.
         11    1    1    2    0    0 -0.56479974005E+02  0.54498925127E+02  0.64185352971E+02  0.10138974228E+03  0.00000000000E+00 0. -1.
<mgrwt>
<rscale>  0 0.37244226E+03</rscale>
<asrwt>0</asrwt>
<pdfrwt beam="1">  1        1 0.29085509E-01 0.37244226E+03</pdfrwt>
<pdfrwt beam="2">  1       -1 0.28219839E-01 0.37244226E+03</pdfrwt>
<totfact> 0.17956817E+03</totfact>
</mgrwt>
</event>
<event>
 6    1  0.7457796E-006  0.1286929E+03  0.7546771E-02  0.1243640E+00
          2   -1    0    0  501    0  0.00000000000E+00  0.00000000000E+00  0.40968284749E+02  0.40968284749E+02  0.00000000000E+00 0. -1.
         -2   -1    0    0    0  501 -0.00000000000E+00 -0.00000000000E+00 -0.32160760841E+03  0.32160760841E+03  0.00000000000E+00 0.  1.
          5    1    1    2  502    0 -0.17423095008E+02  0.70542397448E+02 -0.10787650385E+03  0.13015077472E+03  0.47000000000E+01 0.  1.
         -5    1    1    2    0  502  0.33424073645E+02 -0.44483483819E+02 -0.87823235922E+02  0.10407189726E+03  0.47000000000E+01 0.  1.
        -11    1    1    2    0    0  0.28480693128E+02 -0.54180408574E+01 -0.72029258611E+02  0.77644826897E+02  0.00000000000E+00 0.  1.
         11    1    1    2    0    0 -0.44481671765E+02 -0.20640872772E+02 -0.12910325277E+02  0.50708394281E+02  0.00000000000E+00 0. -1.
<mgrwt>
<rscale>  0 0.11967166E+03</rscale>
<asrwt>0</asrwt>
<pdfrwt beam="1">  1        2 0.63028128E-02 0.12869294E+03</pdfrwt>
<pdfrwt beam="2">  1       -2 0.49478095E-01 0.12869294E+03</pdfrwt>
<totfact> 0.43058005E+03</totfact>
</mgrwt>
</event>
<event>
 6    1  0.7457796E-006  0.1382599E+03  0.7546771E-02  0.1243942E+00
          3   -1    0    0  501    0  0.00000000000E+00  0.00000000000E+00  0.31439388505E+02  0.31439388505E+02  0.00000000000E+00 0. -1.
         -3   -1    0    0    0  501 -0.00000000000E+00 -0.00000000000E+00 -0.65998661383E+03  0.65998661383E+03  0.00000000000E+00 0.  1.
          5    1    1    2  502    0 -0.50572137274E+02 -0.60428016042E+02 -0.23094911979E+03  0.24406694189E+03  0.47000000000E+01 0.  1.
         -5    1    1    2    0  502 -0.64487983762E+01  0.44970825196E+02 -0.35754241604E+03  0.36044782062E+03  0.47000000000E+01 0.  1.
        -11    1    1    2    0    0  0.21062267683E+02  0.23462244855E+02  0.12632241208E+01  0.31554584274E+02  0.00000000000E+00 0. -1.
         11    1    1    2    0    0  0.35958667968E+02 -0.80050540088E+01 -0.41318913606E+02  0.55356655547E+02  0.00000000000E+00 0.  1.
<mgrwt>
<rscale>  0 0.11948922E+03</rscale>
<asrwt>0</asrwt>
<pdfrwt beam="1">  1        3 0.48368289E-02 0.13825994E+03</pdfrwt>
<pdfrwt beam="2">  1       -3 0.10153641E+00 0.13825994E+03</pdfrwt>
<totfact> 0.48877661E+02</totfact>
</mgrwt>
</event>
<event>
 6    1  0.7457796E-006  0.2095967E+03  0.7546771E-02  0.1146551E+00
          1   -1    0    0  501    0  0.00000000000E+00  0.00000000000E+00  0.83197632109E+03  0.83197632109E+03  0.00000000000E+00 0. -1.
         -1   -1    0    0    0  501 -0.00000000000E+00 -0.00000000000E+00 -0.12244814177E+03  0.12244814177E+03  0.00000000000E+00 0.  1.
          5    1    1    2  502    0 -0.31142199006E+02  0.10413220028E+02 -0.30827674859E+02  0.45284735259E+02  0.47000000000E+01 0. -1.
         -5    1    1    2    0  502 -0.46637809951E+02 -0.15653914875E+03  0.19800984225E+02  0.16460182072E+03  0.47000000000E+01 0.  1.
        -11    1    1    2    0    0  0.14865564094E+02 -0.10704491704E+02  0.79853078111E+02  0.81927316704E+02  0.00000000000E+00 0.  1.
         11    1    1    2    0    0  0.62914444863E+02  0.15683042043E+03  0.64070179184E+03  0.66261059017E+03  0.00000000000E+00 0. -1.
<mgrwt>
<rscale>  0 0.20382596E+03</rscale>
<asrwt>0</asrwt>
<pdfrwt beam="1">  1        1 0.12799635E+00 0.20959670E+03</pdfrwt>
<pdfrwt beam="2">  1       -1 0.18838176E-01 0.20959670E+03</pdfrwt>
<totfact> 0.48715783E+02</totfact>
</mgrwt>
</event>
<event>
 6    1  0.7457796E-006  0.3777726E+03  0.7546771E-02  0.1051760E+00
          2   -1    0    0  501    0  0.00000000000E+00  0.00000000000E+00  0.12147987128E+03  0.12147987128E+03  0.00000000000E+00 0.  1.
         -2   -1    0    0    0  501 -0.00000000000E+00 -0.00000000000E+00 -0.29369497775E+03  0.29369497775E+03  0.00000000000E+00 0. -1.
          5    1    1    2  502    0  0.15633399697E+02 -0.16517298887E+01  0.11806930418E+02  0.20214475101E+02  0.47000000000E+01 0.  1.
         -5    1    1    2    0  502 -0.74143432775E+02  0.13487484775E+03 -0.16115355742E+03  0.22289242304E+03  0.47000000000E+01 0.  1.
        -11    1    1    2    0    0 -0.21946308970E+02 -0.49910778275E+02 -0.34494326018E+01  0.54631720188E+02  0.00000000000E+00 0.  1.
         11    1    1    2    0    0  0.80456342048E+02 -0.83312339581E+02 -0.19419046866E+02  0.11743623071E+03  0.00000000000E+00 0. -1.
<mgrwt>
<rscale>  0 0.37777257E+03</rscale>
<asrwt>0</asrwt>
<pdfrwt beam="1">  1        2 0.18689211E-01 0.37777257E+03</pdfrwt>
<pdfrwt beam="2">  1       -2 0.45183842E-01 0.37777257E+03</pdfrwt>
<totfact> 0.14209506E+03</totfact>
</mgrwt>
</event>
<event>
 6    1  0.7457796E-006  0.1423973E+03  0.7546771E-02  0.1220526E+00
          1   -1    0    0  501    0  0.00000000000E+00  0.00000000000E+00  0.84828127414E+03  0.84828127414E+03  0.00000000000E+00 0. -1.
         -1   -1    0    0    0  501 -0.00000000000E+00 -0.00000000000E+00 -0.19423374850E+02  0.19423374850E+02  0.00000000000E+00 0.  1.
          5    1    1    2  502    0 -0.58553094447E+02  0.26003920885E+02  0.11551206750E+03  0.13217335779E+03  0.47000000000E+01 0.  1.
         -5    1    1    2    0  502  0.43157872704E+02  0.40437065698E+02  0.33804663189E+03  0.34321330626E+03  0.47000000000E+01 0.  1.
        -11    1    1    2    0    0 -0.38380329366E+02 -0.24888409629E+02  0.17097186560E+03  0.17698548371E+03  0.00000000000E+00 0. -1.
         11    1    1    2    0    0  0.53775551108E+02 -0.41552576954E+02  0.20432733430E+03  0.21533250124E+03  0.00000000000E+00 0.  1.
<mgrwt>
<rscale>  0 0.13478310E+03</rscale>
<asrwt>0</asrwt>
<pdfrwt beam="1">  1        1 0.13050478E+00 0.14239728E+03</pdfrwt>
<pdfrwt beam="2">  1       -1 0.29882122E-02 0.14239728E+03</pdfrwt>
<totfact> 0.77199763E+03</totfact>
</mgrwt>
</event>
<event>
 6    1  0.7457796E-006  0.1277477E+03  0.7546771E-02  0.1243736E+00
         -3   -1    0    0    0  501 -0.00000000000E+00  0.00000000000E+00  0.34303151517E+02  0.34303151517E+02  0.00000000000E+00 0.  1.
          3   -1    0    0  501    0  0.00000000000E+00 -0.00000000000E+00 -0.41835664492E+03  0.41835664492E+03  0.00000000000E+00 0. -1.
          5    1    1    2  502    0 -0.48490734505E+02  0.40308156927E+02 -0.12585886812E+03  0.14084971967E+03  0.47000000000E+01 0. -1.
         -5    1    1    2    0  502  0.22144533107E+02 -0.40503945292E+02 -0.13770679048E+02  0.48401152178E+02  0.47000000000E+01 0. -1.
        -11    1    1    2    0    0 -0.11211050662E+02 -0.14482584268E+02 -0.29012255531E+01  0.18543193191E+02  0.00000000000E+00 0.  1.
         11    1    1    2    0    0  0.37557252060E+02  0.14678372632E+02 -0.24152272069E+03  0.24486573140E+03  0.00000000000E+00 0. -1.
<mgrwt>
<rscale>  0 0.11961379E+03</rscale>
<asrwt>0</asrwt>
<pdfrwt beam="2">  1        3 0.64362561E-01 0.12774773E+03</pdfrwt>
<pdfrwt beam="1">  1       -3 0.52774079E-02 0.12774773E+03</pdfrwt>
<totfact> 0.11353024E+03</totfact>
</mgrwt>
</event>
<event>
 6    1  0.7457796E-006  0.1383157E+03  0.7546771E-02  0.1226780E+00
         -1   -1    0    0    0  501 -0.00000000000E+00  0.00000000000E+00  0.36532925638E+02  0.36532925638E+02  0.00000000000E+00 0.  1.
          1   -1    0    0  501    0  0.00000000000E+00 -0.00000000000E+00 -0.63637096382E+03  0.63637096382E+03  0.00000000000E+00 0. -1.
          5    1    1    2  502    0  0.67102042630E+01  0.96646616155E+02 -0.77756761137E+02  0.12431331046E+03  0.47000000000E+01 0. -1.
         -5    1    1    2    0  502  0.69611768521E+01 -0.39023710803E+02 -0.49968258504E+02  0.63954865694E+02  0.47000000000E+01 0. -1.
        -11    1    1    2    0    0 -0.31003983062E+02 -0.76478165891E+02 -0.32522385666E+03  0.33553049603E+03  0.00000000000E+00 0. -1.
         11    1    1    2    0    0  0.17332601947E+02  0.18855260540E+02 -0.14688916188E+03  0.14910521727E+03  0.00000000000E+00 0.  1.
<mgrwt>
<rscale>  0 0.13045644E+03</rscale>
<asrwt>0</asrwt>
<pdfrwt beam="2">  1        1 0.97903217E-01 0.13831567E+03</pdfrwt>
<pdfrwt beam="1">  1       -1 0.56204506E-02 0.13831567E+03</pdfrwt>
<totfact> 0.46311351E+03</totfact>
</mgrwt>
</event>
<event>
 6    1  0.7457796E-006  0.3589631E+03  0.7546771E-02  0.1058995E+00
          1   -1    0    0  501    0  0.00000000000E+00  0.00000000000E+00  0.90266826555E+02  0.90266826555E+02  0.00000000000E+00 0. -1.
         -1   -1    0    0    0  501 -0.00000000000E+00 -0.00000000000E+00 -0.35687113674E+03  0.35687113674E+03  0.00000000000E+00 0.  1.
          5    1    1    2  502    0 -0.80475577189E+02  0.13506425999E+03 -0.13104558629E+03  0.20472837746E+03  0.47000000000E+01 0.  1.
         -5    1    1    2    0  502 -0.14233687465E+02 -0.28375707419E+02 -0.20790392380E+02  0.38237534514E+02  0.47000000000E+01 0.  1.
        -11    1    1    2    0    0  0.61883542282E+02 -0.44180603857E+02 -0.83919957773E+01  0.76497870269E+02  0.00000000000E+00 0. -1.
         11    1    1    2    0    0  0.32825722371E+02 -0.62507948719E+02 -0.10637633574E+03  0.12767418105E+03  0.00000000000E+00 0.  1.
<mgrwt>
<rscale>  0 0.35896309E+03</rscale>
<asrwt>0</asrwt>
<pdfrwt beam="1">  1        1 0.13887204E-01 0.35896309E+03</pdfrwt>
<pdfrwt beam="2">  1       -1 0.54903252E-01 0.35896309E+03</pdfrwt>
<totfact> 0.14276481E+03</totfact>
</mgrwt>
</event>
<event>
 6    1  0.7457796E-006  0.2094181E+03  0.7546771E-02  0.1145721E+00
         -2   -1    0    0    0  501 -0.00000000000E+00  0.00000000000E+00  0.14584855737E+03  0.14584855737E+03  0.00000000000E+00 0.  1.
          2   -1    0    0  501    0  0.00000000000E+00 -0.00000000000E+00 -0.28226309545E+03  0.28226309545E+03  0.00000000000E+00 0. -1.
          5    1    1    2  502    0  0.68945187702E+02  0.16315606561E+03 -0.39009002819E+02  0.18143079384E+03  0.47000000000E+01 0. -1.
         -5    1    1    2    0  502 -0.31179343064E+02  0.55908643370E+00  0.28298408360E+00  0.31537820018E+02  0.47000000000E+01 0. -1.
        -11    1    1    2    0    0 -0.63205190775E+02 -0.12631442757E+03 -0.94200671556E+02  0.16977631541E+03  0.00000000000E+00 0. -1.
         11    1    1    2    0    0  0.25439346137E+02 -0.37400724482E+02 -0.34878477864E+01  0.45366723552E+02  0.00000000000E+00 0.  1.
<mgrwt>
<rscale>  0 0.20483688E+03</rscale>
<asrwt>0</asrwt>
<pdfrwt beam="2">  1        2 0.43425091E-01 0.20941807E+03</pdfrwt>
<pdfrwt beam="1">  1       -2 0.22438240E-01 0.20941807E+03</pdfrwt>
<totfact> 0.19913473E+03</totfact>
</mgrwt>
</event>
<event>
 6    1  0.7457796E-006  0.3089173E+03  0.7546771E-02  0.1082398E+00
         -4   -1    0    0    0  501 -0.00000000000E+00  0.00000000000E+00  0.69123552174E+03  0.69123552174E+03  0.00000000000E+00 0.  1.
          4   -1    0    0  501    0  0.00000000000E+00 -0.00000000000E+00 -0.13659322332E+03  0.13659322332E+03  0.00000000000E+00 0. -1.
          5    1    1    2  502    0  0.50644857331E+02  0.15777150623E+02 -0.86959289174E+01  0.53958588154E+02  0.47000000000E+01 0.  1.
         -5    1    1    2    0  502  0.23181523556E+03 -0.20333755143E+02  0.22034012202E+03  0.32050526425E+03  0.47000000000E+01 0.  1.
        -11    1    1    2    0    0 -0.25944286905E+03  0.30042987323E+02  0.31395971834E+03  0.40839183161E+03  0.00000000000E+00 0. -1.
         11    1    1    2    0    0 -0.23017223841E+02 -0.25486382803E+02  0.29038386979E+02  0.44973061048E+02  0.00000000000E+00 0.  1.
<mgrwt>
<rscale>  0 0.30575628E+03</rscale>
<asrwt>0</asrwt>
<pdfrwt beam="2">  1        4 0.21014342E-01 0.30891732E+03</pdfrwt>
<pdfrwt beam="1">  1       -4 0.10634392E+00 0.30891732E+03</pdfrwt>
<totfact> 0.28243535E+01</totfact>
</mgrwt>
</event>
<event>
 6    1  0.7457796E-006  0.1436743E+03  0.7546771E-02  0.1214240E+00
         -1   -1    0    0    0  501 -0.00000000000E+00  0.00000000000E+00  0.36413631333E+02  0.36413631333E+02  0.00000000000E+00 0.  1.
          1   -1    0    0  501    0  0.00000000000E+00 -0.00000000000E+00 -0.53696923666E+03  0.53696923666E+03  0.00000000000E+00 0. -1.
          5    1    1    2  502    0 -0.29662034922E+02  0.96615678609E+01 -0.16808518551E+03  0.17102017951E+03  0.47000000000E+01 0. -1.
         -5    1    1    2    0  502 -0.21173816216E+02  0.61197933187E+02 -0.24820253690E+02  0.69510089287E+02  0.47000000000E+01 0.  1.
        -11    1    1    2    0    0  0.42336378372E+02 -0.84859062465E+02 -0.30026852944E+03  0.31488826460E+03  0.00000000000E+00 0. -1.
         11    1    1    2    0    0  0.84994727661E+01  0.13999561417E+02 -0.73816366840E+01  0.17964334591E+02  0.00000000000E+00 0.  1.
<mgrwt>
<rscale>  0 0.13932522E+03</rscale>
<asrwt>0</asrwt>
<pdfrwt beam="2">  1        1 0.82610652E-01 0.14367429E+03</pdfrwt>
<pdfrwt beam="1">  1       -1 0.56020971E-02 0.14367429E+03</pdfrwt>
<totfact> 0.58684189E+03</totfact>
</mgrwt>
</event>
<event>
 6    1  0.7457796E-006  0.1666503E+03  0.7546771E-02  0.1188458E+00
         -1   -1    0    0    0  501 -0.00000000000E+00  0.00000000000E+00  0.83515562029E+02  0.83515562029E+02  0.00000000000E+00 0.  1.
          1   -1    0    0  501    0  0.00000000000E+00 -0.00000000000E+00 -0.28832044644E+03  0.28832044644E+03  0.00000000000E+00 0. -1.
          5    1    1    2  502    0  0.40071535101E+02  0.11356041643E+03 -0.43964855032E+02  0.12828364893E+03  0.47000000000E+01 0.  1.
         -5    1    1    2    0  502  0.27589200739E+02 -0.26855492952E+02 -0.49165613577E+02  0.62623710027E+02  0.47000000000E+01 0.  1.
        -11    1    1    2    0    0 -0.13690238237E+02 -0.87245627702E+02 -0.71959105270E+02  0.11391810658E+03  0.00000000000E+00 0.  1.
         11    1    1    2    0    0 -0.53970497603E+02  0.54070422397E+00 -0.39715310528E+02  0.67010542924E+02  0.00000000000E+00 0. -1.
<mgrwt>
<rscale>  0 0.16021210E+03</rscale>
<asrwt>0</asrwt>
<pdfrwt beam="2">  1        1 0.44356993E-01 0.16665034E+03</pdfrwt>
<pdfrwt beam="1">  1       -1 0.12848548E-01 0.16665034E+03</pdfrwt>
<totfact> 0.36930832E+03</totfact>
</mgrwt>
</event>
<event>
 6    1  0.7457796E-006  0.3273018E+03  0.7546771E-02  0.1072337E+00
          1   -1    0    0  501    0  0.00000000000E+00  0.00000000000E+00  0.63325203781E+03  0.63325203781E+03  0.00000000000E+00 0. -1.
         -1   -1    0    0    0  501 -0.00000000000E+00 -0.00000000000E+00 -0.42292202040E+02  0.42292202040E+02  0.00000000000E+00 0.  1.
          5    1    1    2  502    0  0.11104857971E+03 -0.38993156798E+02  0.16208334796E+03  0.20036305802E+03  0.47000000000E+01 0.  1.
         -5    1    1    2    0  502 -0.16397876693E+01  0.46610748645E+02  0.42418627397E+02  0.63219306727E+02  0.47000000000E+01 0.  1.
        -11    1    1    2    0    0 -0.54803804292E+02 -0.35740799327E+02  0.29236040831E+03  0.29959217288E+03  0.00000000000E+00 0. -1.
         11    1    1    2    0    0 -0.54604987750E+02  0.28123207479E+02  0.94097452107E+02  0.11236970223E+03  0.00000000000E+00 0.  1.
<mgrwt>
<rscale>  0 0.32730184E+03</rscale>
<asrwt>0</asrwt>
<pdfrwt beam="1">  1        1 0.97423384E-01 0.32730184E+03</pdfrwt>
<pdfrwt beam="2">  1       -1 0.65064931E-02 0.32730184E+03</pdfrwt>
<totfact> 0.38572221E+03</totfact>
</mgrwt>
</event>
<event>
 6    1  0.7457796E-006  0.1372269E+03  0.7546771E-02  0.1228235E+00
          1   -1    0    0  501    0  0.00000000000E+00  0.00000000000E+00  0.33147116457E+02  0.33147116457E+02  0.00000000000E+00 0. -1.
         -1   -1    0    0    0  501 -0.00000000000E+00 -0.00000000000E+00 -0.45757853666E+03  0.45757853666E+03  0.00000000000E+00 0.  1.
          5    1    1    2  502    0  0.51308106354E+02 -0.81096158314E+02 -0.16270208664E+03  0.18895281863E+03  0.47000000000E+01 0.  1.
         -5    1    1    2    0  502 -0.15677520019E+02  0.37090514096E+02 -0.86670191886E+02  0.95683347723E+02  0.47000000000E+01 0.  1.
        -11    1    1    2    0    0 -0.51849443482E+01 -0.17820099835E+02 -0.10919651824E+03  0.11076244491E+03  0.00000000000E+00 0.  1.
         11    1    1    2    0    0 -0.30445641987E+02  0.61825744054E+02 -0.65862623445E+02  0.95327041865E+02  0.00000000000E+00 0. -1.
<mgrwt>
<rscale>  0 0.12947606E+03</rscale>
<asrwt>0</asrwt>
<pdfrwt beam="1">  1        1 0.50995566E-02 0.13722687E+03</pdfrwt>
<pdfrwt beam="2">  1       -1 0.70396695E-01 0.13722687E+03</pdfrwt>
<totfact> 0.33048101E+03</totfact>
</mgrwt>
</event>
<event>
 6    1  0.7457796E-006  0.1419877E+03  0.7546771E-02  0.1222729E+00
          2   -1    0    0  501    0  0.00000000000E+00  0.00000000000E+00  0.38558060167E+03  0.38558060167E+03  0.00000000000E+00 0. -1.
         -2   -1    0    0    0  501 -0.00000000000E+00 -0.00000000000E+00 -0.45977446336E+02  0.45977446336E+02  0.00000000000E+00 0.  1.
          5    1    1    2  502    0  0.13659946148E+02  0.36978097601E+02 -0.12734189248E+00  0.39699874646E+02  0.47000000000E+01 0.  1.
         -5    1    1    2    0  502 -0.79698122647E+02 -0.23899145721E+02  0.12013110894E+03  0.14620715870E+03  0.47000000000E+01 0.  1.
        -11    1    1    2    0    0 -0.13193359617E+02 -0.13443958173E+02  0.94757632216E+01  0.21085417662E+02  0.00000000000E+00 0.  1.
         11    1    1    2    0    0  0.79231536116E+02  0.36500629331E+00  0.21012362507E+03  0.22456559700E+03  0.00000000000E+00 0. -1.
<mgrwt>
<rscale>  0 0.13323808E+03</rscale>
<asrwt>0</asrwt>
<pdfrwt beam="1">  1        2 0.59320090E-01 0.14198775E+03</pdfrwt>
<pdfrwt beam="2">  1       -2 0.70734535E-02 0.14198775E+03</pdfrwt>
<totfact> 0.90868276E+03</totfact>
</mgrwt>
</event>
<event>
 6    1  0.7457796E-006  0.3007718E+03  0.7546771E-02  0.1084855E+00
         -2   -1    0    0    0  501 -0.00000000000E+00  0.00000000000E+00  0.55269516627E+03  0.55269516627E+03  0.00000000000E+00 0.  1.
          2   -1    0    0  501    0  0.00000000000E+00 -0.00000000000E+00 -0.40919335439E+02  0.40919335439E+02  0.00000000000E+00 0. -1.
          5    1    1    2  502    0 -0.21141008964E+02  0.18061099291E+02  0.13467704111E+03  0.13759775060E+03  0.47000000000E+01 0. -1.
         -5    1    1    2    0  502  0.11901438490E+03  0.22086255181E+02  0.17705752534E+03  0.21453131184E+03  0.47000000000E+01 0. -1.
        -11    1    1    2    0    0 -0.45814942550E+02 -0.75636079155E+01  0.18756361699E+02  0.50080118108E+02  0.00000000000E+00 0. -1.
         11    1    1    2    0    0 -0.52058433391E+02 -0.32583746557E+02  0.18128490269E+03  0.19140532116E+03  0.00000000000E+00 0.  1.
<mgrwt>
<rscale>  0 0.30077180E+03</rscale>
<asrwt>0</asrwt>
<pdfrwt beam="2">  1        2 0.62952828E-02 0.30077180E+03</pdfrwt>
<pdfrwt beam="1">  1       -2 0.85030020E-01 0.30077180E+03</pdfrwt>
<totfact> 0.14445561E+03</totfact>
</mgrwt>
</event>
<event>
 6    1  0.7457796E-006  0.1250345E+03  0.7546771E-02  0.1249975E+00
          1   -1    0    0  501    0  0.00000000000E+00  0.00000000000E+00  0.48341132817E+02  0.48341132817E+02  0.00000000000E+00 0. -1.
         -1   -1    0    0    0  501 -0.00000000000E+00 -0.00000000000E+00 -0.24462685073E+03  0.24462685073E+03  0.00000000000E+00 0.  1.
          5    1    1    2  502    0 -0.49604502127E+02  0.33005361438E+02 -0.74329228699E+02  0.95377590418E+02  0.47000000000E+01 0.  1.
         -5    1    1    2    0  502  0.51882853572E+02 -0.34789811651E+02 -0.42138522464E+02  0.75497725562E+02  0.47000000000E+01 0.  1.
        -11    1    1    2    0    0 -0.12021629491E+02  0.45701248412E+02 -0.37431506786E+02  0.60284669546E+02  0.00000000000E+00 0. -1.
         11    1    1    2    0    0  0.97432780453E+01 -0.43916798200E+02 -0.42386459965E+02  0.61807998022E+02  0.00000000000E+00 0.  1.
<mgrwt>
<rscale>  0 0.11592510E+03</rscale>
<asrwt>0</asrwt>
<pdfrwt beam="1">  1        1 0.74370974E-02 0.12503454E+03</pdfrwt>
<pdfrwt beam="2">  1       -1 0.37634900E-01 0.12503454E+03</pdfrwt>
<totfact> 0.62396573E+03</totfact>
</mgrwt>
</event>
<event>
 6    1  0.7457796E-006  0.2806692E+03  0.7546771E-02  0.1097298E+00
          1   -1    0    0  501    0  0.00000000000E+00  0.00000000000E+00  0.59738889601E+03  0.59738889601E+03  0.00000000000E+00 0. -1.
         -1   -1    0    0    0  501 -0.00000000000E+00 -0.00000000000E+00 -0.12586344075E+03  0.12586344075E+03  0.00000000000E+00 0.  1.
          5    1    1    2  502    0  0.10468736575E+02  0.11859863410E+03  0.11590197083E+03  0.16622450872E+03  0.47000000000E+01 0. -1.
         -5    1    1    2    0  502 -0.12059914414E+03  0.10728045554E+03  0.14965046051E+03  0.22016039617E+03  0.47000000000E+01 0. -1.
        -11    1    1    2    0    0  0.60982693280E+02 -0.16828439912E+03  0.18690402520E+03  0.25878879903E+03  0.00000000000E+00 0. -1.
         11    1    1    2    0    0  0.49147714290E+02 -0.57594690515E+02  0.19068998724E+02  0.78078632850E+02  0.00000000000E+00 0.  1.
<mgrwt>
<rscale>  0 0.27707365E+03</rscale>
<asrwt>0</asrwt>
<pdfrwt beam="1">  1        1 0.91905983E-01 0.28066920E+03</pdfrwt>
<pdfrwt beam="2">  1       -1 0.19363607E-01 0.28066920E+03</pdfrwt>
<totfact> 0.75472231E+02</totfact>
</mgrwt>
</event>
<event>
 6    1  0.7457796E-006  0.1261356E+03  0.7546771E-02  0.1248526E+00
          2   -1    0    0  501    0  0.00000000000E+00  0.00000000000E+00  0.15976665958E+03  0.15976665958E+03  0.00000000000E+00 0. -1.
         -2   -1    0    0    0  501 -0.00000000000E+00 -0.00000000000E+00 -0.77246157637E+02  0.77246157637E+02  0.00000000000E+00 0.  1.
          5    1    1    2  502    0 -0.41046367973E+01  0.58498029604E+02  0.44185197718E+02  0.73575058329E+02  0.47000000000E+01 0. -1.
         -5    1    1    2    0  502  0.18267576151E+02 -0.49157791603E+02 -0.17246562954E+02  0.55405114813E+02  0.47000000000E+01 0. -1.
        -11    1    1    2    0    0 -0.45337285043E+02  0.11453600071E+02  0.79588050439E+01  0.47434132725E+02  0.00000000000E+00 0.  1.
         11    1    1    2    0    0  0.31174345689E+02 -0.20793838071E+02  0.47623062139E+02  0.60598511355E+02  0.00000000000E+00 0. -1.
<mgrwt>
<rscale>  0 0.11676832E+03</rscale>
<asrwt>0</asrwt>
<pdfrwt beam="1">  1        2 0.24579486E-01 0.12613562E+03</pdfrwt>
<pdfrwt beam="2">  1       -2 0.11884024E-01 0.12613562E+03</pdfrwt>
<totfact> 0.10302555E+04</totfact>
</mgrwt>
</event>
<event>
 6    1  0.7457796E-006  0.1701318E+03  0.7546771E-02  0.1183209E+00
         -2   -1    0    0    0  501 -0.00000000000E+00  0.00000000000E+00  0.57123539279E+02  0.57123539279E+02  0.00000000000E+00 0.  1.
          2   -1    0    0  501    0  0.00000000000E+00 -0.00000000000E+00 -0.45073599113E+03  0.45073599113E+03  0.00000000000E+00 0. -1.
          5    1    1    2  502    0  0.21132277513E+02 -0.32922385431E+02 -0.46419701863E+02  0.60887891542E+02  0.47000000000E+01 0. -1.
         -5    1    1    2    0  502  0.58113055855E+02  0.11682840953E+03 -0.17548841195E+03  0.21873334739E+03  0.47000000000E+01 0. -1.
        -11    1    1    2    0    0 -0.44017274559E+02 -0.97836392710E+02 -0.97704809773E+02  0.14510585809E+03  0.00000000000E+00 0.  1.
         11    1    1    2    0    0 -0.35228058808E+02  0.13930368613E+02 -0.73999528268E+02  0.83132433388E+02  0.00000000000E+00 0. -1.
<mgrwt>
<rscale>  0 0.16495956E+03</rscale>
<asrwt>0</asrwt>
<pdfrwt beam="2">  1        2 0.69343996E-01 0.17013179E+03</pdfrwt>
<pdfrwt beam="1">  1       -2 0.87882371E-02 0.17013179E+03</pdfrwt>
<totfact> 0.55467908E+03</totfact>
</mgrwt>
</event>
<event>
 6    1  0.7457796E-006  0.1557345E+03  0.7546771E-02  0.1201841E+00
         -2   -1    0    0    0  501 -0.00000000000E+00  0.00000000000E+00  0.11038074504E+03  0.11038074504E+03  0.00000000000E+00 0.  1.
          2   -1    0    0  501    0  0.00000000000E+00 -0.00000000000E+00 -0.18633054743E+03  0.18633054743E+03  0.00000000000E+00 0. -1.
          5    1    1    2  502    0 -0.24417784776E+01  0.45868572792E+02  0.43476795621E+02  0.63420895686E+02  0.47000000000E+01 0. -1.
         -5    1    1    2    0  502 -0.54501383435E+02  0.27528423496E+02 -0.72658522788E+02  0.95024027647E+02  0.47000000000E+01 0. -1.
        -11    1    1    2    0    0  0.38644718772E+02 -0.94315346576E+02 -0.32220731175E+02  0.10689702712E+03  0.00000000000E+00 0.  1.
         11    1    1    2    0    0  0.18298443141E+02  0.20918350288E+02 -0.14547344043E+02  0.31369342021E+02  0.00000000000E+00 0. -1.
<mgrwt>
<rscale>  0 0.14889212E+03</rscale>
<asrwt>0</asrwt>
<pdfrwt beam="2">  1        2 0.28666238E-01 0.15573446E+03</pdfrwt>
<pdfrwt beam="1">  1       -2 0.16981653E-01 0.15573446E+03</pdfrwt>
<totfact> 0.49429180E+03</totfact>
</mgrwt>
</event>
<event>
 6    1  0.7457796E-006  0.1945909E+03  0.7546771E-02  0.1159001E+00
         -2   -1    0    0    0  501 -0.00000000000E+00  0.00000000000E+00  0.67037825364E+02  0.67037825364E+02  0.00000000000E+00 0.  1.
          2   -1    0    0  501    0  0.00000000000E+00 -0.00000000000E+00 -0.51944501567E+03  0.51944501567E+03  0.00000000000E+00 0. -1.
          5    1    1    2  502    0  0.61694377276E+02  0.43570817770E+02 -0.20387365609E+02  0.78373126932E+02  0.47000000000E+01 0.  1.
         -5    1    1    2    0  502  0.24217177274E+01  0.91075913144E+02 -0.17517845819E+03  0.19751017413E+03  0.47000000000E+01 0.  1.
        -11    1    1    2    0    0 -0.26555488618E+02 -0.13373443029E+03 -0.18897460361E+03  0.23302680668E+03  0.00000000000E+00 0.  1.
         11    1    1    2    0    0 -0.37560606385E+02 -0.91230062751E+00 -0.67866762895E+02  0.77572733291E+02  0.00000000000E+00 0. -1.
<mgrwt>
<rscale>  0 0.18940327E+03</rscale>
<asrwt>0</asrwt>
<pdfrwt beam="2">  1        2 0.79914616E-01 0.19459086E+03</pdfrwt>
<pdfrwt beam="1">  1       -2 0.10313512E-01 0.19459086E+03</pdfrwt>
<totfact> 0.37067979E+03</totfact>
</mgrwt>
</event>
<event>
 6    1  0.7457796E-006  0.1429627E+03  0.7546771E-02  0.1219299E+00
         -1   -1    0    0    0  501 -0.00000000000E+00  0.00000000000E+00  0.30651120340E+03  0.30651120340E+03  0.00000000000E+00 0.  1.
          1   -1    0    0  501    0  0.00000000000E+00 -0.00000000000E+00 -0.67695141125E+02  0.67695141125E+02  0.00000000000E+00 0. -1.
          5    1    1    2  502    0  0.21842487195E+02  0.56327660605E+02  0.11039958988E+03  0.12593672634E+03  0.47000000000E+01 0.  1.
         -5    1    1    2    0  502 -0.78775927119E+02 -0.16701580521E+02  0.10084769767E+03  0.12913921794E+03  0.47000000000E+01 0.  1.
        -11    1    1    2    0    0  0.54443917335E+02  0.14968005243E+02  0.30922313392E+02  0.64376787597E+02  0.00000000000E+00 0.  1.
         11    1    1    2    0    0  0.24895225886E+01 -0.54594085328E+02 -0.33535386717E+01  0.54753612640E+02  0.00000000000E+00 0. -1.
<mgrwt>
<rscale>  0 0.13565462E+03</rscale>
<asrwt>0</asrwt>
<pdfrwt beam="2">  1        1 0.10414637E-01 0.14296266E+03</pdfrwt>
<pdfrwt beam="1">  1       -1 0.47155569E-01 0.14296266E+03</pdfrwt>
<totfact> 0.26945777E+03</totfact>
</mgrwt>
</event>
<event>
 6    1  0.7457796E-006  0.1321158E+03  0.7546771E-02  0.1237285E+00
         -2   -1    0    0    0  501 -0.00000000000E+00  0.00000000000E+00  0.29272167321E+02  0.29272167321E+02  0.00000000000E+00 0.  1.
          2   -1    0    0  501    0  0.00000000000E+00 -0.00000000000E+00 -0.60389876911E+03  0.60389876911E+03  0.00000000000E+00 0. -1.
          5    1    1    2  502    0 -0.57655503123E+02  0.64054021043E+02 -0.12409156616E+03  0.15115515686E+03  0.47000000000E+01 0.  1.
         -5    1    1    2    0  502  0.33172873317E+02 -0.28973837664E+02 -0.41661625687E+02  0.60808748121E+02  0.47000000000E+01 0.  1.
        -11    1    1    2    0    0  0.30441258132E+02 -0.61498433140E+02 -0.34616210495E+03  0.35289790362E+03  0.00000000000E+00 0. -1.
         11    1    1    2    0    0 -0.59586283255E+01  0.26418249761E+02 -0.62711304991E+02  0.68309127836E+02  0.00000000000E+00 0.  1.
<mgrwt>
<rscale>  0 0.12359256E+03</rscale>
<asrwt>0</asrwt>
<pdfrwt beam="2">  1        2 0.92907501E-01 0.13211577E+03</pdfrwt>
<pdfrwt beam="1">  1       -2 0.45034105E-02 0.13211577E+03</pdfrwt>
<totfact> 0.10945669E+04</totfact>
</mgrwt>
</event>
<event>
 6    1  0.7457796E-006  0.4154982E+03  0.7546771E-02  0.1083743E+00
         -2   -1    0    0    0  501 -0.00000000000E+00  0.00000000000E+00  0.84543825044E+03  0.84543825044E+03  0.00000000000E+00 0.  1.
          2   -1    0    0  501    0  0.00000000000E+00 -0.00000000000E+00 -0.13194073554E+03  0.13194073554E+03  0.00000000000E+00 0. -1.
          5    1    1    2  502    0  0.14949041042E+03  0.88958276809E+01  0.90758245333E+02  0.17517325040E+03  0.47000000000E+01 0. -1.
         -5    1    1    2    0  502 -0.15692156147E+03 -0.80764188940E+02  0.65657761702E+03  0.67989961600E+03  0.47000000000E+01 0.  1.
        -11    1    1    2    0    0  0.14971007153E+02  0.22684558609E+02  0.30577022849E+02  0.40910568082E+02  0.00000000000E+00 0.  1.
         11    1    1    2    0    0 -0.75398561025E+01  0.49183802650E+02 -0.64415370302E+02  0.81395551502E+02  0.00000000000E+00 0. -1.
<mgrwt>
<rscale>  0 0.30301616E+03</rscale>
<asrwt>0</asrwt>
<pdfrwt beam="2">  1        2 0.20298575E-01 0.41549815E+03</pdfrwt>
<pdfrwt beam="1">  1       -2 0.13006742E+00 0.41549815E+03</pdfrwt>
<totfact> 0.12390008E+02</totfact>
</mgrwt>
</event>
<event>
 6    1  0.7457796E-006  0.3647455E+03  0.7546771E-02  0.1056721E+00
          1   -1    0    0  501    0  0.00000000000E+00  0.00000000000E+00  0.13399409908E+03  0.13399409908E+03  0.00000000000E+00 0. -1.
         -1   -1    0    0    0  501 -0.00000000000E+00 -0.00000000000E+00 -0.24821850083E+03  0.24821850083E+03  0.00000000000E+00 0.  1.
          5    1    1    2  502    0  0.13837202904E+03  0.89593391194E+02 -0.59246119065E+02  0.17523123806E+03  0.47000000000E+01 0. -1.
         -5    1    1    2    0  502 -0.20509844326E+02 -0.11165729507E+02 -0.57946738980E+01  0.24515209060E+02  0.47000000000E+01 0. -1.
        -11    1    1    2    0    0 -0.60153716397E+02  0.16918041709E+02 -0.53855464848E+01  0.62719166469E+02  0.00000000000E+00 0.  1.
         11    1    1    2    0    0 -0.57708468319E+02 -0.95345703396E+02 -0.43798062302E+02  0.11974698632E+03  0.00000000000E+00 0. -1.
<mgrwt>
<rscale>  0 0.36474547E+03</rscale>
<asrwt>0</asrwt>
<pdfrwt beam="1">  1        1 0.20614477E-01 0.36474547E+03</pdfrwt>
<pdfrwt beam="2">  1       -1 0.38187462E-01 0.36474547E+03</pdfrwt>
<totfact> 0.16532818E+03</totfact>
</mgrwt>
</event>
<event>
 6    1  0.7457796E-006  0.1768922E+03  0.7546771E-02  0.1176463E+00
         -2   -1    0    0    0  501 -0.00000000000E+00  0.00000000000E+00  0.44450757322E+02  0.44450757322E+02  0.00000000000E+00 0.  1.
          2   -1    0    0  501    0  0.00000000000E+00 -0.00000000000E+00 -0.67484302771E+03  0.67484302771E+03  0.00000000000E+00 0. -1.
          5    1    1    2  502    0 -0.56778828365E+02  0.30256703412E+02 -0.18351552110E+03  0.19452336604E+03  0.47000000000E+01 0. -1.
         -5    1    1    2    0  502  0.64580416091E+01  0.84350169284E+02 -0.49837300129E+02  0.98298035809E+02  0.47000000000E+01 0. -1.
        -11    1    1    2    0    0 -0.63117478523E+01 -0.83191277739E+02 -0.15628911098E+03  0.17716352069E+03  0.00000000000E+00 0.  1.
         11    1    1    2    0    0  0.56632534608E+02 -0.31415594957E+02 -0.24075033819E+03  0.24930886250E+03  0.00000000000E+00 0. -1.
<mgrwt>
<rscale>  0 0.17133432E+03</rscale>
<asrwt>0</asrwt>
<pdfrwt beam="2">  1        2 0.10382200E+00 0.17689215E+03</pdfrwt>
<pdfrwt beam="1">  1       -2 0.68385786E-02 0.17689215E+03</pdfrwt>
<totfact> 0.51926574E+03</totfact>
</mgrwt>
</event>
<event>
 6    1  0.7457796E-006  0.1276058E+03  0.7546771E-02  0.1245943E+00
         -2   -1    0    0    0  501 -0.00000000000E+00  0.00000000000E+00  0.90368223025E+02  0.90368223025E+02  0.00000000000E+00 0. -1.
          2   -1    0    0  501    0  0.00000000000E+00 -0.00000000000E+00 -0.17114703634E+03  0.17114703634E+03  0.00000000000E+00 0.  1.
          5    1    1    2  502    0  0.78522390885E+01  0.49222920464E+02 -0.43426409819E+02  0.66275912876E+02  0.47000000000E+01 0.  1.
         -5    1    1    2    0  502 -0.14311534157E+01 -0.24429298075E+02  0.56803940654E+02  0.62029158292E+02  0.47000000000E+01 0.  1.
        -11    1    1    2    0    0 -0.37790128361E+02 -0.12005595603E+02 -0.77512814867E+01  0.40401862481E+02  0.00000000000E+00 0. -1.
         11    1    1    2    0    0  0.31369042688E+02 -0.12788026786E+02 -0.86405062659E+02  0.92808325712E+02  0.00000000000E+00 0.  1.
<mgrwt>
<rscale>  0 0.11829095E+03</rscale>
<asrwt>0</asrwt>
<pdfrwt beam="2">  1        2 0.26330313E-01 0.12760577E+03</pdfrwt>
<pdfrwt beam="1">  1       -2 0.13902804E-01 0.12760577E+03</pdfrwt>
<totfact> 0.74325117E+03</totfact>
</mgrwt>
</event>
<event>
 6    1  0.7457796E-006  0.3184896E+03  0.7546771E-02  0.1076347E+00
         -2   -1    0    0    0  501 -0.00000000000E+00  0.00000000000E+00  0.49425857170E+02  0.49425857170E+02  0.00000000000E+00 0.  1.
          2   -1    0    0  501    0  0.00000000000E+00 -0.00000000000E+00 -0.51306968288E+03  0.51306968288E+03  0.00000000000E+00 0. -1.
          5    1    1    2  502    0 -0.24650178478E+02  0.89404345073E+02 -0.18751444694E+02  0.94733705169E+02  0.47000000000E+01 0. -1.
         -5    1    1    2    0  502 -0.12330423060E+02 -0.95078258009E+01 -0.93568967224E+02  0.94971994355E+02  0.47000000000E+01 0. -1.
        -11    1    1    2    0    0  0.58994188184E+02 -0.61251356323E+02 -0.18028650694E+03  0.19933706999E+03  0.00000000000E+00 0.  1.
         11    1    1    2    0    0 -0.22013586647E+02 -0.18645162949E+02 -0.17103690685E+03  0.17345277053E+03  0.00000000000E+00 0. -1.
<mgrwt>
<rscale>  0 0.31848962E+03</rscale>
<asrwt>0</asrwt>
<pdfrwt beam="2">  1        2 0.78933800E-01 0.31848962E+03</pdfrwt>
<pdfrwt beam="1">  1       -2 0.76039778E-02 0.31848962E+03</pdfrwt>
<totfact> 0.61962105E+03</totfact>
</mgrwt>
</event>
<event>
 6    1  0.7457796E-006  0.2003723E+03  0.7546771E-02  0.1153980E+00
         -3   -1    0    0    0  501 -0.00000000000E+00  0.00000000000E+00  0.68523590574E+03  0.68523590574E+03  0.00000000000E+00 0.  1.
          3   -1    0    0  501    0  0.00000000000E+00 -0.00000000000E+00 -0.61455223580E+02  0.61455223580E+02  0.00000000000E+00 0. -1.
          5    1    1    2  502    0 -0.19667263988E+02  0.10738861313E+03  0.14140604236E+03  0.17870890946E+03  0.47000000000E+01 0.  1.
         -5    1    1    2    0  502 -0.28188883635E+02  0.41720685438E+02  0.32508350681E+03  0.32899332083E+03  0.47000000000E+01 0.  1.
        -11    1    1    2    0    0  0.74433560967E+01 -0.45585790058E+02  0.10790957556E+03  0.11737948843E+03  0.00000000000E+00 0.  1.
         11    1    1    2    0    0  0.40412791526E+02 -0.10352350851E+03  0.49381557434E+02  0.12160941061E+03  0.00000000000E+00 0. -1.
<mgrwt>
<rscale>  0 0.19505397E+03</rscale>
<asrwt>0</asrwt>
<pdfrwt beam="2">  1        3 0.94546503E-02 0.20037229E+03</pdfrwt>
<pdfrwt beam="1">  1       -3 0.10542090E+00 0.20037229E+03</pdfrwt>
<totfact> 0.15850364E+02</totfact>
</mgrwt>
</event>
<event>
 6    1  0.7457796E-006  0.1272695E+03  0.7546771E-02  0.1240353E+00
         -1   -1    0    0    0  501 -0.00000000000E+00  0.00000000000E+00  0.21845267194E+02  0.21845267194E+02  0.00000000000E+00 0.  1.
          1   -1    0    0  501    0  0.00000000000E+00 -0.00000000000E+00 -0.62677641358E+03  0.62677641358E+03  0.00000000000E+00 0. -1.
          5    1    1    2  502    0 -0.22278707601E+02 -0.16351818122E+02 -0.27117304098E+03  0.27261810454E+03  0.47000000000E+01 0.  1.
         -5    1    1    2    0  502  0.46206211287E+02  0.15699580801E+02 -0.38987683176E+02  0.62638807765E+02  0.47000000000E+01 0.  1.
        -11    1    1    2    0    0 -0.59715989756E+02 -0.19497658561E+02 -0.14410726139E+03  0.15720388324E+03  0.00000000000E+00 0. -1.
         11    1    1    2    0    0  0.35788486070E+02  0.20149895883E+02 -0.15066316084E+03  0.15616088522E+03  0.00000000000E+00 0.  1.
<mgrwt>
<rscale>  0 0.12167906E+03</rscale>
<asrwt>0</asrwt>
<pdfrwt beam="2">  1        1 0.96427122E-01 0.12726949E+03</pdfrwt>
<pdfrwt beam="1">  1       -1 0.33608110E-02 0.12726949E+03</pdfrwt>
<totfact> 0.10031931E+04</totfact>
</mgrwt>
</event>
<event>
 6    1  0.7457796E-006  0.1267564E+03  0.7546771E-02  0.1247399E+00
          2   -1    0    0  501    0  0.00000000000E+00  0.00000000000E+00  0.11933492302E+03  0.11933492302E+03  0.00000000000E+00 0. -1.
         -2   -1    0    0    0  501 -0.00000000000E+00 -0.00000000000E+00 -0.10214038058E+03  0.10214038058E+03  0.00000000000E+00 0.  1.
          5    1    1    2  502    0 -0.29493727335E+02  0.42770129880E+02 -0.89165898155E+01  0.52922202675E+02  0.47000000000E+01 0. -1.
         -5    1    1    2    0  502  0.40173293344E+02 -0.60928644053E+02  0.10206679821E+02  0.73840771104E+02  0.47000000000E+01 0. -1.
        -11    1    1    2    0    0 -0.53744335133E+01  0.36265318716E+02 -0.28519189492E+02  0.46447842215E+02  0.00000000000E+00 0.  1.
         11    1    1    2    0    0 -0.53051324962E+01 -0.18106804543E+02  0.44423641932E+02  0.48264487607E+02  0.00000000000E+00 0. -1.
<mgrwt>
<rscale>  0 0.11742925E+03</rscale>
<asrwt>0</asrwt>
<pdfrwt beam="1">  1        2 0.18359219E-01 0.12675641E+03</pdfrwt>
<pdfrwt beam="2">  1       -2 0.15713905E-01 0.12675641E+03</pdfrwt>
<totfact> 0.91025491E+03</totfact>
</mgrwt>
</event>
<event>
 6    1  0.7457796E-006  0.1327266E+03  0.7546771E-02  0.1237077E+00
          1   -1    0    0  501    0  0.00000000000E+00  0.00000000000E+00  0.16398800981E+03  0.16398800981E+03  0.00000000000E+00 0. -1.
         -1   -1    0    0    0  501 -0.00000000000E+00 -0.00000000000E+00 -0.98338040496E+02  0.98338040496E+02  0.00000000000E+00 0.  1.
          5    1    1    2  502    0 -0.56817929057E+02  0.81044682600E+01 -0.36986097864E+02  0.68439907242E+02  0.47000000000E+01 0.  1.
         -5    1    1    2    0  502  0.37573710590E+02 -0.48311492625E+02  0.21830029492E+02  0.65149245850E+02  0.47000000000E+01 0.  1.
        -11    1    1    2    0    0  0.33959758452E+02  0.40914730853E+02  0.71840377920E+01  0.53655296046E+02  0.00000000000E+00 0.  1.
         11    1    1    2    0    0 -0.14715539985E+02 -0.70770648773E+00  0.73621999893E+02  0.75081601167E+02  0.00000000000E+00 0. -1.
<mgrwt>
<rscale>  0 0.12372417E+03</rscale>
<asrwt>0</asrwt>
<pdfrwt beam="1">  1        1 0.25228925E-01 0.13272662E+03</pdfrwt>
<pdfrwt beam="2">  1       -1 0.15128929E-01 0.13272662E+03</pdfrwt>
<totfact> 0.57037328E+03</totfact>
</mgrwt>
</event>
<event>
 6    1  0.7457796E-006  0.1323126E+03  0.7546771E-02  0.1237755E+00
          1   -1    0    0  501    0  0.00000000000E+00  0.00000000000E+00  0.16356834977E+03  0.16356834977E+03  0.00000000000E+00 0. -1.
         -1   -1    0    0    0  501 -0.00000000000E+00 -0.00000000000E+00 -0.88084224424E+02  0.88084224424E+02  0.00000000000E+00 0.  1.
          5    1    1    2  502    0 -0.39054545757E+02 -0.24837420405E+02  0.31181107783E+02  0.56004521953E+02  0.47000000000E+01 0.  1.
         -5    1    1    2    0  502  0.73840252382E+02 -0.10425918707E+01 -0.20368308648E+02  0.76749122906E+02  0.47000000000E+01 0.  1.
        -11    1    1    2    0    0 -0.43712095125E+02  0.51287662796E+02  0.62452561744E+02  0.91877603820E+02  0.00000000000E+00 0. -1.
         11    1    1    2    0    0  0.89263885000E+01 -0.25407650521E+02  0.22187644624E+01  0.27021325511E+02  0.00000000000E+00 0.  1.
<mgrwt>
<rscale>  0 0.12329732E+03</rscale>
<asrwt>0</asrwt>
<pdfrwt beam="1">  1        1 0.25164362E-01 0.13231256E+03</pdfrwt>
<pdfrwt beam="2">  1       -1 0.13551419E-01 0.13231256E+03</pdfrwt>
<totfact> 0.67936593E+03</totfact>
</mgrwt>
</event>
<event>
 6    1  0.7540959E-006  0.1827670E+03  0.7546771E-02  0.1170258E+00
         -1   -1    0    0    0  501 -0.00000000000E+00  0.00000000000E+00  0.11978080319E+03  0.11978080319E+03  0.00000000000E+00 0.  1.
          1   -1    0    0  501    0  0.00000000000E+00 -0.00000000000E+00 -0.26726450095E+03  0.26726450095E+03  0.00000000000E+00 0. -1.
          5    1    1    2  502    0 -0.42174188467E+02  0.19496628143E+02  0.26055562287E+02  0.53476752032E+02  0.47000000000E+01 0.  1.
         -5    1    1    2    0  502  0.38027383832E+02  0.11377486083E+03 -0.53129896770E+02  0.13128471658E+03  0.47000000000E+01 0.  1.
        -11    1    1    2    0    0  0.43575433856E+02 -0.10177758884E+03 -0.94490984450E+02  0.14555425850E+03  0.00000000000E+00 0.  1.
         11    1    1    2    0    0 -0.39428629221E+02 -0.31493900137E+02 -0.25918378825E+02  0.56729577022E+02  0.00000000000E+00 0. -1.
<mgrwt>
<rscale>  0 0.17748663E+03</rscale>
<asrwt>0</asrwt>
<pdfrwt beam="2">  1        1 0.41117615E-01 0.18276701E+03</pdfrwt>
<pdfrwt beam="1">  1       -1 0.18427816E-01 0.18276701E+03</pdfrwt>
<totfact> 0.23038138E+03</totfact>
</mgrwt>
</event>
<event>
 6    1  0.7457796E-006  0.2935854E+03  0.7546771E-02  0.1088492E+00
          2   -1    0    0  501    0  0.00000000000E+00  0.00000000000E+00  0.32270263988E+03  0.32270263988E+03  0.00000000000E+00 0. -1.
         -2   -1    0    0    0  501 -0.00000000000E+00 -0.00000000000E+00 -0.66773825611E+02  0.66773825611E+02  0.00000000000E+00 0.  1.
          5    1    1    2  502    0 -0.82512035527E+01 -0.21334148673E+02  0.79235398031E+02  0.82604882185E+02  0.47000000000E+01 0. -1.
         -5    1    1    2    0  502  0.10629427184E+03  0.26031897519E+02  0.42064275631E+02  0.11733552403E+03  0.47000000000E+01 0. -1.
        -11    1    1    2    0    0 -0.28486551235E+02 -0.38754260907E+02  0.22100603771E+02  0.52932154942E+02  0.00000000000E+00 0.  1.
         11    1    1    2    0    0 -0.69556517051E+02  0.34056512061E+02  0.11252853684E+03  0.13660390434E+03  0.00000000000E+00 0. -1.
<mgrwt>
<rscale>  0 0.29358535E+03</rscale>
<asrwt>0</asrwt>
<pdfrwt beam="1">  1        2 0.49646559E-01 0.29358535E+03</pdfrwt>
<pdfrwt beam="2">  1       -2 0.10272896E-01 0.29358535E+03</pdfrwt>
<totfact> 0.63941370E+03</totfact>
</mgrwt>
</event>
<event>
 6    1  0.7457796E-006  0.1273011E+03  0.7546771E-02  0.1247196E+00
          2   -1    0    0  501    0  0.00000000000E+00  0.00000000000E+00  0.31622808764E+02  0.31622808764E+02  0.00000000000E+00 0. -1.
         -2   -1    0    0    0  501 -0.00000000000E+00 -0.00000000000E+00 -0.41456562140E+03  0.41456562140E+03  0.00000000000E+00 0.  1.
          5    1    1    2  502    0 -0.69312959974E+02 -0.25701233324E+02 -0.14314618382E+03  0.16117617615E+03  0.47000000000E+01 0.  1.
         -5    1    1    2    0  502  0.50656930910E+02  0.10454207135E+02 -0.13791091869E+03  0.14736664001E+03  0.47000000000E+01 0.  1.
        -11    1    1    2    0    0 -0.32105444379E+02 -0.23197875993E+01 -0.15037578351E+02  0.35528435597E+02  0.00000000000E+00 0. -1.
         11    1    1    2    0    0  0.50761473442E+02  0.17566813788E+02 -0.86848131775E+02  0.10211717841E+03  0.00000000000E+00 0.  1.
<mgrwt>
<rscale>  0 0.11754902E+03</rscale>
<asrwt>0</asrwt>
<pdfrwt beam="1">  1        2 0.48650475E-02 0.12730112E+03</pdfrwt>
<pdfrwt beam="2">  1       -2 0.63779326E-01 0.12730112E+03</pdfrwt>
<totfact> 0.35971384E+03</totfact>
</mgrwt>
</event>
<event>
 6    1  0.7457796E-006  0.1323403E+03  0.7546771E-02  0.1236877E+00
         -2   -1    0    0    0  501 -0.00000000000E+00  0.00000000000E+00  0.17945923744E+03  0.17945923744E+03  0.00000000000E+00 0.  1.
          2   -1    0    0  501    0  0.00000000000E+00 -0.00000000000E+00 -0.15915427122E+03  0.15915427122E+03  0.00000000000E+00 0. -1.
          5    1    1    2  502    0 -0.43409424503E+02  0.32631979019E+02  0.14992733085E+02  0.56534027238E+02  0.47000000000E+01 0.  1.
         -5    1    1    2    0  502  0.71721498860E+01 -0.56648683781E+02  0.11753593707E+03  0.13075664271E+03  0.47000000000E+01 0.  1.
        -11    1    1    2    0    0 -0.80510129043E+01  0.37550386260E+02 -0.10904682177E+02  0.39921953990E+02  0.00000000000E+00 0.  1.
         11    1    1    2    0    0  0.44288287521E+02 -0.13533681498E+02 -0.10131902177E+03  0.11140088473E+03  0.00000000000E+00 0. -1.
<mgrwt>
<rscale>  0 0.12385030E+03</rscale>
<asrwt>0</asrwt>
<pdfrwt beam="2">  1        2 0.24485272E-01 0.13234027E+03</pdfrwt>
<pdfrwt beam="1">  1       -2 0.27609114E-01 0.13234027E+03</pdfrwt>
<totfact> 0.25329342E+03</totfact>
</mgrwt>
</event>
<event>
 6    1  0.8526218E-006  0.2807378E+03  0.7546771E-02  0.1097077E+00
         -1   -1    0    0    0  501 -0.00000000000E+00  0.00000000000E+00  0.41099182838E+03  0.41099182838E+03  0.00000000000E+00 0.  1.
          1   -1    0    0  501    0  0.00000000000E+00 -0.00000000000E+00 -0.18855200752E+03  0.18855200752E+03  0.00000000000E+00 0. -1.
          5    1    1    2  502    0 -0.46149323680E+02  0.15217334375E+03  0.12681964568E+03  0.20344974602E+03  0.47000000000E+01 0. -1.
         -5    1    1    2    0  502  0.60643286148E+02  0.98783112153E+02  0.37888267515E+02  0.12203819983E+03  0.47000000000E+01 0. -1.
        -11    1    1    2    0    0 -0.46623097365E+02 -0.78486644832E+02  0.76472137232E+01  0.91609751133E+02  0.00000000000E+00 0. -1.
         11    1    1    2    0    0  0.32129134896E+02 -0.17246981107E+03  0.50084693942E+02  0.18244613892E+03  0.00000000000E+00 0.  1.
<mgrwt>
<rscale>  0 0.27747336E+03</rscale>
<asrwt>0</asrwt>
<pdfrwt beam="2">  1        1 0.29008001E-01 0.28073779E+03</pdfrwt>
<pdfrwt beam="1">  1       -1 0.63229512E-01 0.28073779E+03</pdfrwt>
<totfact> 0.41655042E+02</totfact>
</mgrwt>
</event>
<event>
 6    1  0.7457796E-006  0.1377504E+03  0.7546771E-02  0.1228490E+00
          1   -1    0    0  501    0  0.00000000000E+00  0.00000000000E+00  0.60514363569E+02  0.60514363569E+02  0.00000000000E+00 0. -1.
         -1   -1    0    0    0  501 -0.00000000000E+00 -0.00000000000E+00 -0.25762615579E+03  0.25762615579E+03  0.00000000000E+00 0.  1.
          5    1    1    2  502    0 -0.66566938255E+01  0.46453628687E+02 -0.44254477130E+02  0.64674569476E+02  0.47000000000E+01 0.  1.
         -5    1    1    2    0  502 -0.39476888645E+02 -0.81225208817E+02 -0.97696543507E+02  0.13312649585E+03  0.47000000000E+01 0.  1.
        -11    1    1    2    0    0  0.49126162914E+02  0.22499759290E+02  0.91475477714E+01  0.54802341930E+02  0.00000000000E+00 0. -1.
         11    1    1    2    0    0 -0.29925804435E+01  0.12271820840E+02 -0.64308319361E+02  0.65537112108E+02  0.00000000000E+00 0.  1.
<mgrwt>
<rscale>  0 0.12930566E+03</rscale>
<asrwt>0</asrwt>
<pdfrwt beam="1">  1        1 0.93099022E-02 0.13775039E+03</pdfrwt>
<pdfrwt beam="2">  1       -1 0.39634793E-01 0.13775039E+03</pdfrwt>
<totfact> 0.42509145E+03</totfact>
</mgrwt>
</event>
<event>
 6    1  0.7457796E-006  0.1397893E+03  0.7546771E-02  0.1224323E+00
         -2   -1    0    0    0  501 -0.00000000000E+00  0.00000000000E+00  0.47140447667E+02  0.47140447667E+02  0.00000000000E+00 0.  1.
          2   -1    0    0  501    0  0.00000000000E+00 -0.00000000000E+00 -0.35273851764E+03  0.35273851764E+03  0.00000000000E+00 0. -1.
          5    1    1    2  502    0 -0.28657854522E+02 -0.20217691926E+02  0.96132268928E+01  0.36667858185E+02  0.47000000000E+01 0. -1.
         -5    1    1    2    0  502 -0.13140482369E+02  0.66815500877E+02 -0.13429635553E+03  0.15064721883E+03  0.47000000000E+01 0. -1.
        -11    1    1    2    0    0  0.13958314954E+02  0.19372314587E+02 -0.76282304093E+01  0.25066133088E+02  0.00000000000E+00 0.  1.
         11    1    1    2    0    0  0.27840021937E+02 -0.65970123538E+02 -0.17328671093E+03  0.18749775520E+03  0.00000000000E+00 0. -1.
<mgrwt>
<rscale>  0 0.13213431E+03</rscale>
<asrwt>0</asrwt>
<pdfrwt beam="2">  1        2 0.54267466E-01 0.13978933E+03</pdfrwt>
<pdfrwt beam="1">  1       -2 0.72523763E-02 0.13978933E+03</pdfrwt>
<totfact> 0.96050557E+03</totfact>
</mgrwt>
</event>
<event>
 6    1  0.7457796E-006  0.1518090E+03  0.7546771E-02  0.1207187E+00
          1   -1    0    0  501    0  0.00000000000E+00  0.00000000000E+00  0.20316976049E+03  0.20316976049E+03  0.00000000000E+00 0. -1.
         -1   -1    0    0    0  501 -0.00000000000E+00 -0.00000000000E+00 -0.10048113060E+03  0.10048113060E+03  0.00000000000E+00 0.  1.
          5    1    1    2  502    0 -0.61406896518E+02  0.11037795099E+02  0.50808241928E+02  0.80599052776E+02  0.47000000000E+01 0. -1.
         -5    1    1    2    0  502  0.16660680049E+02  0.62573596154E+02 -0.31980174049E+02  0.72373024861E+02  0.47000000000E+01 0. -1.
        -11    1    1    2    0    0  0.24568424912E+02 -0.72591755360E+01 -0.15174362682E+02  0.29775231568E+02  0.00000000000E+00 0.  1.
         11    1    1    2    0    0  0.20177791557E+02 -0.66352215716E+02  0.99034924694E+02  0.12090358188E+03  0.00000000000E+00 0. -1.
<mgrwt>
<rscale>  0 0.14466448E+03</rscale>
<asrwt>0</asrwt>
<pdfrwt beam="1">  1        1 0.31256886E-01 0.15180896E+03</pdfrwt>
<pdfrwt beam="2">  1       -1 0.15458636E-01 0.15180896E+03</pdfrwt>
<totfact> 0.42523485E+03</totfact>
</mgrwt>
</event>
<event>
 6    1  0.7457796E-006  0.2997166E+03  0.7546771E-02  0.1085382E+00
         -1   -1    0    0    0  501 -0.00000000000E+00  0.00000000000E+00  0.25279579054E+02  0.25279579054E+02  0.00000000000E+00 0.  1.
          1   -1    0    0  501    0  0.00000000000E+00 -0.00000000000E+00 -0.88836561273E+03  0.88836561273E+03  0.00000000000E+00 0. -1.
          5    1    1    2  502    0  0.63688949743E+02  0.95105605320E+02 -0.24637141409E+03  0.27170263555E+03  0.47000000000E+01 0.  1.
         -5    1    1    2    0  502 -0.31304477664E+02 -0.79230164948E+01 -0.16478590376E+03  0.16798579878E+03  0.47000000000E+01 0.  1.
        -11    1    1    2    0    0  0.30450033877E+02 -0.71893147685E+02 -0.23984140789E+03  0.25222951886E+03  0.00000000000E+00 0.  1.
         11    1    1    2    0    0 -0.62834505956E+02 -0.15289441141E+02 -0.21208730794E+03  0.22172723860E+03  0.00000000000E+00 0. -1.
<mgrwt>
<rscale>  0 0.29971659E+03</rscale>
<asrwt>0</asrwt>
<pdfrwt beam="2">  1        1 0.13667163E+00 0.29971659E+03</pdfrwt>
<pdfrwt beam="1">  1       -1 0.38891662E-02 0.29971659E+03</pdfrwt>
<totfact> 0.50084280E+03</totfact>
</mgrwt>
</event>
<event>
 6    1  0.7457796E-006  0.1464291E+03  0.7546771E-02  0.1214585E+00
         -2   -1    0    0    0  501 -0.00000000000E+00  0.00000000000E+00  0.31129610133E+02  0.31129610133E+02  0.00000000000E+00 0.  1.
          2   -1    0    0  501    0  0.00000000000E+00 -0.00000000000E+00 -0.56755275282E+03  0.56755275282E+03  0.00000000000E+00 0. -1.
          5    1    1    2  502    0 -0.15177041508E+02 -0.34796717519E+02 -0.63452782065E+02  0.74091157980E+02  0.47000000000E+01 0.  1.
         -5    1    1    2    0  502 -0.85119979676E+01  0.10729024540E+03 -0.21883599161E+03  0.24391582993E+03  0.47000000000E+01 0.  1.
        -11    1    1    2    0    0 -0.17822950491E+02 -0.72871213650E+02 -0.19004062750E+03  0.20431179957E+03  0.00000000000E+00 0. -1.
         11    1    1    2    0    0  0.41511989967E+02  0.37768576790E+00 -0.64093741513E+02  0.76363575471E+02  0.00000000000E+00 0.  1.
<mgrwt>
<rscale>  0 0.13907056E+03</rscale>
<asrwt>0</asrwt>
<pdfrwt beam="2">  1        2 0.87315809E-01 0.14642914E+03</pdfrwt>
<pdfrwt beam="1">  1       -2 0.47891707E-02 0.14642914E+03</pdfrwt>
<totfact> 0.10783978E+04</totfact>
</mgrwt>
</event>
<event>
 6    1  0.7457796E-006  0.1867207E+03  0.7546771E-02  0.1165934E+00
          2   -1    0    0  501    0  0.00000000000E+00  0.00000000000E+00  0.20677172238E+03  0.20677172238E+03  0.00000000000E+00 0. -1.
         -2   -1    0    0    0  501 -0.00000000000E+00 -0.00000000000E+00 -0.19478475154E+03  0.19478475154E+03  0.00000000000E+00 0.  1.
          5    1    1    2  502    0 -0.22015119596E+02 -0.23190556284E+02 -0.30431058436E+02  0.44391516184E+02  0.47000000000E+01 0.  1.
         -5    1    1    2    0  502 -0.45665771840E+02  0.14427378433E+03 -0.56868866444E+02  0.16172954441E+03  0.47000000000E+01 0.  1.
        -11    1    1    2    0    0  0.60759408055E+02 -0.98595188315E+02  0.11802541960E+03  0.16535633190E+03  0.00000000000E+00 0. -1.
         11    1    1    2    0    0  0.69214833814E+01 -0.22488039731E+02 -0.18738523879E+02  0.30079081441E+02  0.00000000000E+00 0.  1.
<mgrwt>
<rscale>  0 0.18194444E+03</rscale>
<asrwt>0</asrwt>
<pdfrwt beam="1">  1        2 0.31811034E-01 0.18672069E+03</pdfrwt>
<pdfrwt beam="2">  1       -2 0.29966885E-01 0.18672069E+03</pdfrwt>
<totfact> 0.16639297E+03</totfact>
</mgrwt>
</event>
<event>
 6    1  0.7457796E-006  0.1255328E+03  0.7546771E-02  0.1248403E+00
          2   -1    0    0  501    0  0.00000000000E+00  0.00000000000E+00  0.14681884484E+03  0.14681884484E+03  0.00000000000E+00 0. -1.
         -2   -1    0    0    0  501 -0.00000000000E+00 -0.00000000000E+00 -0.98013623102E+02  0.98013623102E+02  0.00000000000E+00 0.  1.
          5    1    1    2  502    0 -0.36624031688E+02  0.41801761981E+02  0.23011258104E+02  0.60335023008E+02  0.47000000000E+01 0. -1.
         -5    1    1    2    0  502  0.25194191786E+02 -0.43140942336E+02 -0.44408723365E+02  0.67008304831E+02  0.47000000000E+01 0. -1.
        -11    1    1    2    0    0  0.43909895691E+02 -0.21266236465E+02  0.58599040531E+02  0.76250765925E+02  0.00000000000E+00 0. -1.
         11    1    1    2    0    0 -0.32480055789E+02  0.22605416820E+02  0.11603646473E+02  0.41238374182E+02  0.00000000000E+00 0.  1.
<mgrwt>
<rscale>  0 0.11683973E+03</rscale>
<asrwt>0</asrwt>
<pdfrwt beam="1">  1        2 0.22587514E-01 0.12553275E+03</pdfrwt>
<pdfrwt beam="2">  1       -2 0.15079019E-01 0.12553275E+03</pdfrwt>
<totfact> 0.77051404E+03</totfact>
</mgrwt>
</event>
<event>
 6    1  0.7457796E-006  0.1342937E+03  0.7546771E-02  0.1234000E+00
          2   -1    0    0  501    0  0.00000000000E+00  0.00000000000E+00  0.76241521117E+03  0.76241521117E+03  0.00000000000E+00 0.  1.
         -2   -1    0    0    0  501 -0.00000000000E+00 -0.00000000000E+00 -0.19175223794E+02  0.19175223794E+02  0.00000000000E+00 0. -1.
          5    1    1    2  502    0 -0.32436999017E+02 -0.15225882962E+02  0.24935819620E+03  0.25196346249E+03  0.47000000000E+01 0.  1.
         -5    1    1    2    0  502  0.66182673075E+02 -0.20419577747E+02  0.95055978408E+02  0.11770656057E+03  0.47000000000E+01 0.  1.
        -11    1    1    2    0    0 -0.34708721747E+02 -0.23828576353E+02  0.20022223733E+03  0.20460068606E+03  0.00000000000E+00 0. -1.
         11    1    1    2    0    0  0.96304768906E+00  0.59474037062E+02  0.19860357544E+03  0.20731972584E+03  0.00000000000E+00 0.  1.
<mgrwt>
<rscale>  0 0.12568658E+03</rscale>
<asrwt>0</asrwt>
<pdfrwt beam="1">  1        2 0.11729462E+00 0.13429372E+03</pdfrwt>
<pdfrwt beam="2">  1       -2 0.29500350E-02 0.13429372E+03</pdfrwt>
<totfact> 0.15578748E+04</totfact>
</mgrwt>
</event>
<event>
 6    1  0.7457796E-006  0.1458794E+03  0.7546771E-02  0.1215763E+00
          3   -1    0    0  501    0  0.00000000000E+00  0.00000000000E+00  0.29801110979E+03  0.29801110979E+03  0.00000000000E+00 0. -1.
         -3   -1    0    0    0  501 -0.00000000000E+00 -0.00000000000E+00 -0.63505145958E+02  0.63505145958E+02  0.00000000000E+00 0.  1.
          5    1    1    2  502    0 -0.25488472214E+02 -0.24136842248E+02  0.14235622414E+02  0.38170568701E+02  0.47000000000E+01 0. -1.
         -5    1    1    2    0  502  0.72016839424E+02  0.83228899332E+02  0.62638187095E+02  0.12672453325E+03  0.47000000000E+01 0. -1.
        -11    1    1    2    0    0  0.12175505605E+01  0.15905799504E+02  0.35714776402E+00  0.15956329206E+02  0.00000000000E+00 0.  1.
         11    1    1    2    0    0 -0.47745917770E+02 -0.74997856588E+02  0.15727500656E+03  0.18066482459E+03  0.00000000000E+00 0. -1.
<mgrwt>
<rscale>  0 0.13820622E+03</rscale>
<asrwt>0</asrwt>
<pdfrwt beam="1">  1        3 0.45847862E-01 0.14587944E+03</pdfrwt>
<pdfrwt beam="2">  1       -3 0.97700227E-02 0.14587944E+03</pdfrwt>
<totfact> 0.85105499E+02</totfact>
</mgrwt>
</event>
<event>
 6    1  0.7457796E-006  0.1697833E+03  0.7546771E-02  0.1183278E+00
         -1   -1    0    0    0  501 -0.00000000000E+00  0.00000000000E+00  0.36904541595E+02  0.36904541595E+02  0.00000000000E+00 0.  1.
          1   -1    0    0  501    0  0.00000000000E+00 -0.00000000000E+00 -0.71118119967E+03  0.71118119967E+03  0.00000000000E+00 0. -1.
          5    1    1    2  502    0  0.30021884232E+02  0.49316826776E+02 -0.25230307892E+02  0.63183236482E+02  0.47000000000E+01 0.  1.
         -5    1    1    2    0  502  0.46234197954E+02  0.36628821563E+02 -0.27910251602E+03  0.28530610943E+03  0.47000000000E+01 0.  1.
        -11    1    1    2    0    0 -0.28551328968E+02 -0.78756907168E+02 -0.12860672013E+03  0.15348458318E+03  0.00000000000E+00 0.  1.
         11    1    1    2    0    0 -0.47704753218E+02 -0.71887411707E+01 -0.24133711404E+03  0.24611181217E+03  0.00000000000E+00 0. -1.
<mgrwt>
<rscale>  0 0.16489514E+03</rscale>
<asrwt>0</asrwt>
<pdfrwt beam="2">  1        1 0.10941249E+00 0.16978326E+03</pdfrwt>
<pdfrwt beam="1">  1       -1 0.56776219E-02 0.16978326E+03</pdfrwt>
<totfact> 0.39299553E+03</totfact>
</mgrwt>
</event>
<event>
 6    1  0.7457796E-006  0.1267808E+03  0.7546771E-02  0.1251114E+00
         -3   -1    0    0    0  501 -0.00000000000E+00  0.00000000000E+00  0.37929622200E+02  0.37929622200E+02  0.00000000000E+00 0.  1.
          3   -1    0    0  501    0  0.00000000000E+00 -0.00000000000E+00 -0.30184917510E+03  0.30184917510E+03  0.00000000000E+00 0. -1.
          5    1    1    2  502    0  0.66131655511E+01 -0.58106620263E+02 -0.94819981293E+02  0.11150350725E+03  0.47000000000E+01 0. -1.
         -5    1    1    2    0  502  0.14207819862E+02  0.61809176145E+02 -0.49459728224E+02  0.80564204936E+02  0.47000000000E+01 0. -1.
        -11    1    1    2    0    0 -0.79905680533E+01  0.32488195880E+02 -0.15800664722E+02  0.36999906148E+02  0.00000000000E+00 0.  1.
         11    1    1    2    0    0 -0.12830417360E+02 -0.36190751762E+02 -0.10383917866E+03  0.11071117896E+03  0.00000000000E+00 0. -1.
<mgrwt>
<rscale>  0 0.11526781E+03</rscale>
<asrwt>0</asrwt>
<pdfrwt beam="2">  1        3 0.46438335E-01 0.12678080E+03</pdfrwt>
<pdfrwt beam="1">  1       -3 0.58353265E-02 0.12678080E+03</pdfrwt>
<totfact> 0.18703510E+03</totfact>
</mgrwt>
</event>
<event>
 6    1  0.7457796E-006  0.1464291E+03  0.7546771E-02  0.1214496E+00
          1   -1    0    0  501    0  0.00000000000E+00  0.00000000000E+00  0.27735918549E+03  0.27735918549E+03  0.00000000000E+00 0. -1.
         -1   -1    0    0    0  501 -0.00000000000E+00 -0.00000000000E+00 -0.70022940399E+02  0.70022940399E+02  0.00000000000E+00 0.  1.
          5    1    1    2  502    0  0.46920685207E+02  0.14500087127E+02  0.26194496230E+02  0.55857361733E+02  0.47000000000E+01 0.  1.
         -5    1    1    2    0  502 -0.35885396025E+02 -0.89679662109E+02  0.35034438631E+02  0.10285769458E+03  0.47000000000E+01 0.  1.
        -11    1    1    2    0    0  0.90668334944E+01 -0.17432565406E+02  0.80988044904E+01  0.21253057202E+02  0.00000000000E+00 0. -1.
         11    1    1    2    0    0 -0.20102122677E+02  0.92612140388E+02  0.13800850574E+03  0.16741401237E+03  0.00000000000E+00 0.  1.
<mgrwt>
<rscale>  0 0.13913600E+03</rscale>
<asrwt>0</asrwt>
<pdfrwt beam="1">  1        1 0.42670643E-01 0.14642912E+03</pdfrwt>
<pdfrwt beam="2">  1       -1 0.10772760E-01 0.14642912E+03</pdfrwt>
<totfact> 0.50553849E+03</totfact>
</mgrwt>
</event>
<event>
 6    1  0.7457796E-006  0.4658040E+03  0.7546771E-02  0.1023111E+00
         -1   -1    0    0    0  501 -0.00000000000E+00  0.00000000000E+00  0.74699189229E+02  0.74699189229E+02  0.00000000000E+00 0.  1.
          1   -1    0    0  501    0  0.00000000000E+00 -0.00000000000E+00 -0.72615688955E+03  0.72615688955E+03  0.00000000000E+00 0. -1.
          5    1    1    2  502    0 -0.37144690157E+02  0.57100153908E+02 -0.70151551685E+02  0.97895279697E+02  0.47000000000E+01 0. -1.
         -5    1    1    2    0  502  0.92933912138E+02  0.10603958025E+03 -0.74436999970E+02  0.15951194805E+03  0.47000000000E+01 0. -1.
        -11    1    1    2    0    0 -0.31989239266E+02 -0.82857029310E+02 -0.38807194677E+03  0.39810605949E+03  0.00000000000E+00 0. -1.
         11    1    1    2    0    0 -0.23799982716E+02 -0.80282704848E+02 -0.11879720189E+03  0.14534279154E+03  0.00000000000E+00 0.  1.
<mgrwt>
<rscale>  0 0.46580395E+03</rscale>
<asrwt>0</asrwt>
<pdfrwt beam="2">  1        1 0.11171645E+00 0.46580395E+03</pdfrwt>
<pdfrwt beam="1">  1       -1 0.11492183E-01 0.46580395E+03</pdfrwt>
<totfact> 0.13097428E+03</totfact>
</mgrwt>
</event>
<event>
 6    1  0.7457796E-006  0.1256125E+03  0.7546771E-02  0.1248912E+00
          2   -1    0    0  501    0  0.00000000000E+00  0.00000000000E+00  0.14516849969E+03  0.14516849969E+03  0.00000000000E+00 0. -1.
         -2   -1    0    0    0  501 -0.00000000000E+00 -0.00000000000E+00 -0.87859647806E+02  0.87859647806E+02  0.00000000000E+00 0.  1.
          5    1    1    2  502    0  0.63385983157E+02 -0.12805936457E+02  0.19087822610E+02  0.67588533357E+02  0.47000000000E+01 0.  1.
         -5    1    1    2    0  502 -0.55746996473E+02  0.31938866547E+01 -0.15279372008E+02  0.58081647159E+02  0.47000000000E+01 0.  1.
        -11    1    1    2    0    0 -0.33235537440E+02  0.39475040240E+02  0.41547646128E+02  0.66250182261E+02  0.00000000000E+00 0.  1.
         11    1    1    2    0    0  0.25596550755E+02 -0.29862990438E+02  0.11952755151E+02  0.41107784715E+02  0.00000000000E+00 0. -1.
<mgrwt>
<rscale>  0 0.11654290E+03</rscale>
<asrwt>0</asrwt>
<pdfrwt beam="1">  1        2 0.22333615E-01 0.12561246E+03</pdfrwt>
<pdfrwt beam="2">  1       -2 0.13516869E-01 0.12561246E+03</pdfrwt>
<totfact> 0.93179380E+03</totfact>
</mgrwt>
</event>
<event>
 6    1  0.7457796E-006  0.1317052E+03  0.7546771E-02  0.1234565E+00
         -2   -1    0    0    0  501 -0.00000000000E+00  0.00000000000E+00  0.62181441581E+02  0.62181441581E+02  0.00000000000E+00 0.  1.
          2   -1    0    0  501    0  0.00000000000E+00 -0.00000000000E+00 -0.23572183888E+03  0.23572183888E+03  0.00000000000E+00 0. -1.
          5    1    1    2  502    0 -0.42838279112E+01  0.35453179958E+02 -0.67142506489E+02  0.76193735493E+02  0.47000000000E+01 0.  1.
         -5    1    1    2    0  502 -0.12572187375E+02 -0.73394560998E+02 -0.69821106933E+01  0.74937716466E+02  0.47000000000E+01 0.  1.
        -11    1    1    2    0    0  0.12850887282E+02 -0.27549524984E+02 -0.35550748088E+01  0.30606538316E+02  0.00000000000E+00 0.  1.
         11    1    1    2    0    0  0.40051280045E+01  0.65490906024E+02 -0.95860705308E+02  0.11616529019E+03  0.00000000000E+00 0. -1.
<mgrwt>
<rscale>  0 0.12532346E+03</rscale>
<asrwt>0</asrwt>
<pdfrwt beam="2">  1        2 0.36264898E-01 0.13170519E+03</pdfrwt>
<pdfrwt beam="1">  1       -2 0.95663757E-02 0.13170519E+03</pdfrwt>
<totfact> 0.95538956E+03</totfact>
</mgrwt>
</event>
<event>
 6    1  0.7457796E-006  0.1756491E+03  0.7546771E-02  0.1176273E+00
          1   -1    0    0  501    0  0.00000000000E+00  0.00000000000E+00  0.87730362646E+02  0.87730362646E+02  0.00000000000E+00 0. -1.
         -1   -1    0    0    0  501 -0.00000000000E+00 -0.00000000000E+00 -0.33954727415E+03  0.33954727415E+03  0.00000000000E+00 0.  1.
          5    1    1    2  502    0 -0.51471002734E+02  0.11787120270E+03 -0.77003380541E+02  0.14998164942E+03  0.47000000000E+01 0. -1.
         -5    1    1    2    0  502  0.41704807820E+02  0.10461527022E+02 -0.39749921412E+01  0.43435297921E+02  0.47000000000E+01 0.  1.
        -11    1    1    2    0    0  0.68853547429E+01 -0.96304788666E+02 -0.17652540394E+03  0.20120446980E+03  0.00000000000E+00 0.  1.
         11    1    1    2    0    0  0.28808401707E+01 -0.32027941052E+02  0.56868651135E+01  0.32656219667E+02  0.00000000000E+00 0. -1.
<mgrwt>
<rscale>  0 0.17151919E+03</rscale>
<asrwt>0</asrwt>
<pdfrwt beam="1">  1        1 0.13496979E-01 0.17564914E+03</pdfrwt>
<pdfrwt beam="2">  1       -1 0.52238040E-01 0.17564914E+03</pdfrwt>
<totfact> 0.16003506E+03</totfact>
</mgrwt>
</event>
<event>
 6    1  0.7457796E-006  0.1287388E+03  0.7546771E-02  0.1243966E+00
         -1   -1    0    0    0  501 -0.00000000000E+00  0.00000000000E+00  0.11162458347E+03  0.11162458347E+03  0.00000000000E+00 0.  1.
          1   -1    0    0  501    0  0.00000000000E+00 -0.00000000000E+00 -0.13206202392E+03  0.13206202392E+03  0.00000000000E+00 0. -1.
          5    1    1    2  502    0 -0.55419723887E+01  0.37736141785E+02  0.66607963868E+02  0.76898899247E+02  0.47000000000E+01 0. -1.
         -5    1    1    2    0  502  0.35348804630E+02 -0.30091471581E+02 -0.31796330406E+02  0.56463539369E+02  0.47000000000E+01 0. -1.
        -11    1    1    2    0    0 -0.56512269298E+01 -0.12888799421E+02 -0.76465116042E+02  0.77749414710E+02  0.00000000000E+00 0. -1.
         11    1    1    2    0    0 -0.24155605312E+02  0.52441292179E+01  0.21216042131E+02  0.32574754073E+02  0.00000000000E+00 0.  1.
<mgrwt>
<rscale>  0 0.11947454E+03</rscale>
<asrwt>0</asrwt>
<pdfrwt beam="2">  1        1 0.20317235E-01 0.12873884E+03</pdfrwt>
<pdfrwt beam="1">  1       -1 0.17173013E-01 0.12873884E+03</pdfrwt>
<totfact> 0.61254815E+03</totfact>
</mgrwt>
</event>
<event>
 6    1  0.7457796E-006  0.1217955E+03  0.7546771E-02  0.1249205E+00
          2   -1    0    0  501    0  0.00000000000E+00  0.00000000000E+00  0.40148221735E+02  0.40148221735E+02  0.00000000000E+00 0. -1.
         -2   -1    0    0    0  501 -0.00000000000E+00 -0.00000000000E+00 -0.43654034051E+03  0.43654034051E+03  0.00000000000E+00 0.  1.
          5    1    1    2  502    0  0.11150287083E+02  0.26291501548E+02 -0.13389957787E+02  0.31889699359E+02  0.47000000000E+01 0. -1.
         -5    1    1    2    0  502  0.19966918855E+02 -0.36949319224E+02 -0.32530463121E+03  0.32803829521E+03  0.47000000000E+01 0.  1.
        -11    1    1    2    0    0 -0.28380767073E+00 -0.40106547607E+02 -0.12135634054E+02  0.41903333062E+02  0.00000000000E+00 0.  1.
         11    1    1    2    0    0 -0.30833398268E+02  0.50764365284E+02 -0.45561895720E+02  0.74857234607E+02  0.00000000000E+00 0. -1.
<mgrwt>
<rscale>  0 0.11637219E+03</rscale>
<asrwt>0</asrwt>
<pdfrwt beam="1">  1        2 0.61766494E-02 0.12179547E+03</pdfrwt>
<pdfrwt beam="2">  1       -2 0.67160053E-01 0.12179547E+03</pdfrwt>
<totfact> 0.23641652E+03</totfact>
</mgrwt>
</event>
<event>
 6    1  0.7457796E-006  0.3299254E+03  0.7546771E-02  0.1072452E+00
         -1   -1    0    0    0  501 -0.00000000000E+00  0.00000000000E+00  0.18102399150E+03  0.18102399150E+03  0.00000000000E+00 0.  1.
          1   -1    0    0  501    0  0.00000000000E+00 -0.00000000000E+00 -0.65314441624E+03  0.65314441624E+03  0.00000000000E+00 0. -1.
          5    1    1    2  502    0  0.21767287386E+03  0.10532151199E+03 -0.10544049646E+03  0.26384444128E+03  0.47000000000E+01 0. -1.
         -5    1    1    2    0  502  0.76919919034E+02 -0.25073767021E+02  0.45352730318E+01  0.81166658415E+02  0.47000000000E+01 0. -1.
        -11    1    1    2    0    0 -0.10105225490E+03 -0.73116594799E+02 -0.15273707797E+03  0.19719586619E+03  0.00000000000E+00 0. -1.
         11    1    1    2    0    0 -0.19354053799E+03 -0.71311501665E+01 -0.21847812334E+03  0.29196144185E+03  0.00000000000E+00 0.  1.
<mgrwt>
<rscale>  0 0.32704407E+03</rscale>
<asrwt>0</asrwt>
<pdfrwt beam="2">  1        1 0.10048376E+00 0.32992544E+03</pdfrwt>
<pdfrwt beam="1">  1       -1 0.27849845E-01 0.32992544E+03</pdfrwt>
<totfact> 0.36260278E+02</totfact>
</mgrwt>
</event>
<event>
 6    1  0.7457796E-006  0.1253748E+03  0.7546771E-02  0.1251305E+00
         -2   -1    0    0    0  501 -0.00000000000E+00  0.00000000000E+00  0.98925335198E+02  0.98925335198E+02  0.00000000000E+00 0.  1.
          2   -1    0    0  501    0  0.00000000000E+00 -0.00000000000E+00 -0.13724896314E+03  0.13724896314E+03  0.00000000000E+00 0. -1.
          5    1    1    2  502    0  0.23545748037E+02  0.60570770783E+02 -0.34723006683E+01  0.65248504932E+02  0.47000000000E+01 0.  1.
         -5    1    1    2    0  502 -0.23458278683E+02 -0.50797197735E+02  0.27045062089E+02  0.62323121872E+02  0.47000000000E+01 0.  1.
        -11    1    1    2    0    0  0.89232717750E+01 -0.35499177127E+02  0.44520053198E+01  0.36873251921E+02  0.00000000000E+00 0.  1.
         11    1    1    2    0    0 -0.90107411286E+01  0.25725604079E+02 -0.66348394680E+02  0.71729419609E+02  0.00000000000E+00 0. -1.
<mgrwt>
<rscale>  0 0.11515821E+03</rscale>
<asrwt>0</asrwt>
<pdfrwt beam="2">  1        2 0.21115225E-01 0.12537482E+03</pdfrwt>
<pdfrwt beam="1">  1       -2 0.15219282E-01 0.12537482E+03</pdfrwt>
<totfact> 0.81820113E+03</totfact>
</mgrwt>
</event>
<event>
 6    1  0.7457796E-006  0.1297620E+03  0.7546771E-02  0.1242734E+00
          2   -1    0    0  501    0  0.00000000000E+00  0.00000000000E+00  0.43627401068E+03  0.43627401068E+03  0.00000000000E+00 0. -1.
         -2   -1    0    0    0  501 -0.00000000000E+00 -0.00000000000E+00 -0.38227124700E+02  0.38227124700E+02  0.00000000000E+00 0.  1.
          5    1    1    2  502    0  0.20298049710E+02 -0.64331346808E+02  0.18782653170E+02  0.70181272888E+02  0.47000000000E+01 0.  1.
         -5    1    1    2    0  502 -0.29211153900E+02  0.30694849528E+02  0.88322486129E+02  0.98073527803E+02  0.47000000000E+01 0.  1.
        -11    1    1    2    0    0  0.43026818779E+02  0.78019073538E+01  0.81626152308E+02  0.92601326304E+02  0.00000000000E+00 0.  1.
         11    1    1    2    0    0 -0.34113714589E+02  0.25834589926E+02  0.20931559437E+03  0.21364500838E+03  0.00000000000E+00 0. -1.
<mgrwt>
<rscale>  0 0.12022012E+03</rscale>
<asrwt>0</asrwt>
<pdfrwt beam="1">  1        2 0.67119075E-01 0.12976196E+03</pdfrwt>
<pdfrwt beam="2">  1       -2 0.58810964E-02 0.12976196E+03</pdfrwt>
<totfact> 0.10478189E+04</totfact>
</mgrwt>
</event>
<event>
 6    1  0.7457796E-006  0.1311180E+03  0.7546771E-02  0.1239639E+00
          1   -1    0    0  501    0  0.00000000000E+00  0.00000000000E+00  0.36262148831E+02  0.36262148831E+02  0.00000000000E+00 0. -1.
         -1   -1    0    0    0  501 -0.00000000000E+00 -0.00000000000E+00 -0.39930988114E+03  0.39930988114E+03  0.00000000000E+00 0.  1.
          5    1    1    2  502    0  0.56116234745E+00 -0.79687898228E+02 -0.22648681490E+03  0.24014338082E+03  0.47000000000E+01 0.  1.
         -5    1    1    2    0  502  0.50647236318E+01  0.40496411687E+02 -0.42560829286E+02  0.59153402053E+02  0.47000000000E+01 0.  1.
        -11    1    1    2    0    0  0.85392808665E+01  0.17804341193E+02 -0.10609306809E+03  0.10791502667E+03  0.00000000000E+00 0.  1.
         11    1    1    2    0    0 -0.14165166846E+02  0.21387145347E+02  0.12092979977E+02  0.28360220426E+02  0.00000000000E+00 0. -1.
<mgrwt>
<rscale>  0 0.12212043E+03</rscale>
<asrwt>0</asrwt>
<pdfrwt beam="1">  1        1 0.55787924E-02 0.13111800E+03</pdfrwt>
<pdfrwt beam="2">  1       -1 0.61432286E-01 0.13111800E+03</pdfrwt>
<totfact> 0.37987942E+03</totfact>
</mgrwt>
</event>
<event>
 6    1  0.7457796E-006  0.1287565E+03  0.7546771E-02  0.1243455E+00
         -1   -1    0    0    0  501 -0.00000000000E+00  0.00000000000E+00  0.65243285892E+02  0.65243285892E+02  0.00000000000E+00 0.  1.
          1   -1    0    0  501    0  0.00000000000E+00 -0.00000000000E+00 -0.23875955347E+03  0.23875955347E+03  0.00000000000E+00 0. -1.
          5    1    1    2  502    0 -0.77136088408E+02 -0.10153478630E+02 -0.53266513214E+01  0.78125107856E+02  0.47000000000E+01 0. -1.
         -5    1    1    2    0  502  0.46266067277E+02  0.10239630620E+02 -0.26545990912E+02  0.54517691166E+02  0.47000000000E+01 0. -1.
        -11    1    1    2    0    0 -0.10725818006E+02  0.37536311878E+02 -0.44576997143E+02  0.59254759772E+02  0.00000000000E+00 0. -1.
         11    1    1    2    0    0  0.41595839137E+02 -0.37622463869E+02 -0.97066628200E+02  0.11210528057E+03  0.00000000000E+00 0.  1.
<mgrwt>
<rscale>  0 0.11978301E+03</rscale>
<asrwt>0</asrwt>
<pdfrwt beam="2">  1        1 0.36732238E-01 0.12875654E+03</pdfrwt>
<pdfrwt beam="1">  1       -1 0.10037429E-01 0.12875654E+03</pdfrwt>
<totfact> 0.67258453E+03</totfact>
</mgrwt>
</event>
<event>
 6    1  0.7457796E-006  0.2386848E+03  0.7546771E-02  0.1125254E+00
         -3   -1    0    0    0  501 -0.00000000000E+00  0.00000000000E+00  0.74651051024E+03  0.74651051024E+03  0.00000000000E+00 0.  1.
          3   -1    0    0  501    0  0.00000000000E+00 -0.00000000000E+00 -0.68419712340E+02  0.68419712340E+02  0.00000000000E+00 0. -1.
          5    1    1    2  502    0 -0.94887728212E+02 -0.41700938993E+02  0.27256655145E+03  0.29164578558E+03  0.47000000000E+01 0. -1.
         -5    1    1    2    0  502 -0.69360796875E+02 -0.78168774991E+02  0.69988876359E+02  0.12586425363E+03  0.47000000000E+01 0. -1.
        -11    1    1    2    0    0  0.12263191637E+03  0.51872126860E+02  0.20386653703E+03  0.24349716503E+03  0.00000000000E+00 0.  1.
         11    1    1    2    0    0  0.41616608721E+02  0.67997587125E+02  0.13166883306E+03  0.15392301834E+03  0.00000000000E+00 0. -1.
<mgrwt>
<rscale>  0 0.23198036E+03</rscale>
<asrwt>0</asrwt>
<pdfrwt beam="2">  1        3 0.10526110E-01 0.23868475E+03</pdfrwt>
<pdfrwt beam="1">  1       -3 0.11484776E+00 0.23868475E+03</pdfrwt>
<totfact> 0.11017651E+02</totfact>
</mgrwt>
</event>
<event>
 6    1  0.7457796E-006  0.1437339E+03  0.7546771E-02  0.1218959E+00
         -1   -1    0    0    0  501 -0.00000000000E+00  0.00000000000E+00  0.10715228524E+03  0.10715228524E+03  0.00000000000E+00 0.  1.
          1   -1    0    0  501    0  0.00000000000E+00 -0.00000000000E+00 -0.16125350109E+03  0.16125350109E+03  0.00000000000E+00 0. -1.
          5    1    1    2  502    0  0.46386914182E+02 -0.63492684005E+02 -0.12025086420E+02  0.79685377786E+02  0.47000000000E+01 0.  1.
         -5    1    1    2    0  502 -0.63481277487E+02 -0.53695369156E+01  0.60919962691E+01  0.64170919711E+02  0.47000000000E+01 0.  1.
        -11    1    1    2    0    0 -0.13382287109E+02  0.53404505499E+01 -0.52030962464E+02  0.53989138494E+02  0.00000000000E+00 0. -1.
         11    1    1    2    0    0  0.30476650414E+02  0.63521770371E+02  0.38628367646E+01  0.70560350335E+02  0.00000000000E+00 0.  1.
<mgrwt>
<rscale>  0 0.13589701E+03</rscale>
<asrwt>0</asrwt>
<pdfrwt beam="2">  1        1 0.24808231E-01 0.14373390E+03</pdfrwt>
<pdfrwt beam="1">  1       -1 0.16484967E-01 0.14373390E+03</pdfrwt>
<totfact> 0.51143998E+03</totfact>
</mgrwt>
</event>
<event>
 6    1  0.7457796E-006  0.1784180E+03  0.7546771E-02  0.1195819E+00
         -1   -1    0    0    0  501 -0.00000000000E+00  0.00000000000E+00  0.77951531903E+02  0.77951531903E+02  0.00000000000E+00 0.  1.
          1   -1    0    0  501    0  0.00000000000E+00 -0.00000000000E+00 -0.24707961655E+03  0.24707961655E+03  0.00000000000E+00 0. -1.
          5    1    1    2  502    0  0.99297276749E+01  0.55192166977E+02 -0.13505563582E+03  0.14631093450E+03  0.47000000000E+01 0. -1.
         -5    1    1    2    0  502 -0.31378101632E+02 -0.33056212497E+02  0.35537214637E+02  0.57985188375E+02  0.47000000000E+01 0.  1.
        -11    1    1    2    0    0  0.18332054254E+02  0.35737561872E+02 -0.34682007847E+02  0.53066742975E+02  0.00000000000E+00 0. -1.
         11    1    1    2    0    0  0.31163197040E+01 -0.57873516353E+02 -0.34927655616E+02  0.67668282602E+02  0.00000000000E+00 0.  1.
<mgrwt>
<rscale>  0 0.15385130E+03</rscale>
<asrwt>0</asrwt>
<pdfrwt beam="2">  1        1 0.38012248E-01 0.17841802E+03</pdfrwt>
<pdfrwt beam="1">  1       -1 0.11992544E-01 0.17841802E+03</pdfrwt>
<totfact> 0.49989811E+03</totfact>
</mgrwt>
</event>
<event>
 6    1  0.7457796E-006  0.1670702E+03  0.7546771E-02  0.1188136E+00
          2   -1    0    0  501    0  0.00000000000E+00  0.00000000000E+00  0.71094135739E+02  0.71094135739E+02  0.00000000000E+00 0. -1.
         -2   -1    0    0    0  501 -0.00000000000E+00 -0.00000000000E+00 -0.34617205700E+03  0.34617205700E+03  0.00000000000E+00 0.  1.
          5    1    1    2  502    0  0.48750474381E+02 -0.76516801675E+02 -0.12157142624E+03  0.15176670046E+03  0.47000000000E+01 0. -1.
         -5    1    1    2    0  502 -0.65839509446E+02 -0.33007500586E+02 -0.61365875417E+02  0.95980189439E+02  0.47000000000E+01 0. -1.
        -11    1    1    2    0    0 -0.36762005443E+02  0.49041880795E+02 -0.41069482711E+02  0.73778408266E+02  0.00000000000E+00 0.  1.
         11    1    1    2    0    0  0.53851040508E+02  0.60482421466E+02 -0.51071136895E+02  0.95740894574E+02  0.00000000000E+00 0. -1.
<mgrwt>
<rscale>  0 0.16049782E+03</rscale>
<asrwt>0</asrwt>
<pdfrwt beam="1">  1        2 0.10937560E-01 0.16707024E+03</pdfrwt>
<pdfrwt beam="2">  1       -2 0.53257238E-01 0.16707024E+03</pdfrwt>
<totfact> 0.18934376E+03</totfact>
</mgrwt>
</event>
<event>
 6    1  0.7457796E-006  0.1435521E+03  0.7546771E-02  0.1218672E+00
         -1   -1    0    0    0  501 -0.00000000000E+00  0.00000000000E+00  0.58354310510E+02  0.58354310510E+02  0.00000000000E+00 0.  1.
          1   -1    0    0  501    0  0.00000000000E+00 -0.00000000000E+00 -0.29744892799E+03  0.29744892799E+03  0.00000000000E+00 0. -1.
          5    1    1    2  502    0  0.66872273912E+01  0.39225267804E+02 -0.24655060842E+02  0.47045750813E+02  0.47000000000E+01 0. -1.
         -5    1    1    2    0  502  0.32461664142E+02 -0.97980828837E+02 -0.76686200014E+02  0.12867348496E+03  0.47000000000E+01 0. -1.
        -11    1    1    2    0    0 -0.32980600101E+02  0.46604869205E+02 -0.15078298388E+03  0.16123040049E+03  0.00000000000E+00 0. -1.
         11    1    1    2    0    0 -0.61682914320E+01  0.12150691827E+02  0.13029627250E+02  0.18853602238E+02  0.00000000000E+00 0.  1.
<mgrwt>
<rscale>  0 0.13610203E+03</rscale>
<asrwt>0</asrwt>
<pdfrwt beam="2">  1        1 0.45761373E-01 0.14355208E+03</pdfrwt>
<pdfrwt beam="1">  1       -1 0.89775863E-02 0.14355208E+03</pdfrwt>
<totfact> 0.61170399E+03</totfact>
</mgrwt>
</event>
<event>
 6    1  0.7457796E-006  0.1633200E+03  0.7546771E-02  0.1195338E+00
         -2   -1    0    0    0  501 -0.00000000000E+00  0.00000000000E+00  0.39770817331E+02  0.39770817331E+02  0.00000000000E+00 0.  1.
          2   -1    0    0  501    0  0.00000000000E+00 -0.00000000000E+00 -0.59523328345E+03  0.59523328345E+03  0.00000000000E+00 0. -1.
          5    1    1    2  502    0 -0.77342591713E+01 -0.18774659415E+02  0.69029601637E+00  0.20853611430E+02  0.47000000000E+01 0. -1.
         -5    1    1    2    0  502  0.63472858022E+02  0.10789008122E+03 -0.21160075422E+03  0.24589843943E+03  0.47000000000E+01 0. -1.
        -11    1    1    2    0    0 -0.33443557568E+02  0.13830321354E+01 -0.58505484486E+02  0.67403828049E+02  0.00000000000E+00 0.  1.
         11    1    1    2    0    0 -0.22295041283E+02 -0.90498453944E+02 -0.28604652343E+03  0.30084822186E+03  0.00000000000E+00 0. -1.
<mgrwt>
<rscale>  0 0.15425687E+03</rscale>
<asrwt>0</asrwt>
<pdfrwt beam="2">  1        2 0.91574346E-01 0.16332004E+03</pdfrwt>
<pdfrwt beam="1">  1       -2 0.61185876E-02 0.16332004E+03</pdfrwt>
<totfact> 0.70996146E+03</totfact>
</mgrwt>
</event>
<event>
 6    1  0.7457796E-006  0.2904766E+03  0.7546771E-02  0.1090101E+00
         -2   -1    0    0    0  501 -0.00000000000E+00  0.00000000000E+00  0.15619881663E+03  0.15619881663E+03  0.00000000000E+00 0.  1.
          2   -1    0    0  501    0  0.00000000000E+00 -0.00000000000E+00 -0.13504684759E+03  0.13504684759E+03  0.00000000000E+00 0. -1.
          5    1    1    2  502    0 -0.77824861575E+01  0.21491158631E+02 -0.44241278103E+02  0.50018173480E+02  0.47000000000E+01 0.  1.
         -5    1    1    2    0  502 -0.87843225247E+02 -0.32197152442E+02  0.53680973754E+02  0.10796678096E+03  0.47000000000E+01 0.  1.
        -11    1    1    2    0    0  0.27872551769E+02  0.46445874169E+02  0.16170014228E+02  0.56529352814E+02  0.00000000000E+00 0.  1.
         11    1    1    2    0    0  0.67753159635E+02 -0.35739880358E+02 -0.44577408395E+01  0.76731356967E+02  0.00000000000E+00 0. -1.
<mgrwt>
<rscale>  0 0.29047656E+03</rscale>
<asrwt>0</asrwt>
<pdfrwt beam="2">  1        2 0.20776438E-01 0.29047656E+03</pdfrwt>
<pdfrwt beam="1">  1       -2 0.24030587E-01 0.29047656E+03</pdfrwt>
<totfact> 0.40384212E+03</totfact>
</mgrwt>
</event>
<event>
 6    1  0.7457796E-006  0.1262781E+03  0.7546771E-02  0.1249759E+00
          1   -1    0    0  501    0  0.00000000000E+00  0.00000000000E+00  0.21840420494E+03  0.21840420494E+03  0.00000000000E+00 0. -1.
         -1   -1    0    0    0  501 -0.00000000000E+00 -0.00000000000E+00 -0.75553186085E+02  0.75553186085E+02  0.00000000000E+00 0.  1.
          5    1    1    2  502    0 -0.48003528346E+02 -0.15167906053E+02 -0.45690571602E+02  0.68147798505E+02  0.47000000000E+01 0. -1.
         -5    1    1    2    0  502  0.33386892858E+02  0.48051819119E+01  0.47119097427E+02  0.58138401511E+02  0.47000000000E+01 0. -1.
        -11    1    1    2    0    0  0.33880613852E+02  0.38413056444E+02  0.11005951481E+03  0.12139421609E+03  0.00000000000E+00 0. -1.
         11    1    1    2    0    0 -0.19263978364E+02 -0.28050332303E+02  0.31362978220E+02  0.46276974918E+02  0.00000000000E+00 0.  1.
<mgrwt>
<rscale>  0 0.11605018E+03</rscale>
<asrwt>0</asrwt>
<pdfrwt beam="1">  1        1 0.33600647E-01 0.12627812E+03</pdfrwt>
<pdfrwt beam="2">  1       -1 0.11623567E-01 0.12627812E+03</pdfrwt>
<totfact> 0.59907212E+03</totfact>
</mgrwt>
</event>
<event>
 6    1  0.7457796E-006  0.1371326E+03  0.7546771E-02  0.1229781E+00
          2   -1    0    0  501    0  0.00000000000E+00  0.00000000000E+00  0.52640749298E+03  0.52640749298E+03  0.00000000000E+00 0. -1.
         -2   -1    0    0    0  501 -0.00000000000E+00 -0.00000000000E+00 -0.32094472595E+02  0.32094472595E+02  0.00000000000E+00 0.  1.
          5    1    1    2  502    0 -0.87800484327E+02 -0.27191407413E+02  0.12940018052E+03  0.15879166982E+03  0.47000000000E+01 0.  1.
         -5    1    1    2    0  502  0.35570575258E+02  0.26027277553E+02  0.46422631612E+02  0.64185946490E+02  0.47000000000E+01 0.  1.
        -11    1    1    2    0    0  0.51803885645E+02 -0.37637200641E+02  0.23302360563E+03  0.24166133787E+03  0.00000000000E+00 0. -1.
         11    1    1    2    0    0  0.42602342399E+00  0.38801330501E+02  0.85466602616E+02  0.93863011391E+02  0.00000000000E+00 0.  1.
<mgrwt>
<rscale>  0 0.12844554E+03</rscale>
<asrwt>0</asrwt>
<pdfrwt beam="1">  1        2 0.80985762E-01 0.13713262E+03</pdfrwt>
<pdfrwt beam="2">  1       -2 0.49376116E-02 0.13713262E+03</pdfrwt>
<totfact> 0.11154380E+04</totfact>
</mgrwt>
</event>
<event>
 6    1  0.7457796E-006  0.2452108E+03  0.7546771E-02  0.1118486E+00
          2   -1    0    0  501    0  0.00000000000E+00  0.00000000000E+00  0.44833225899E+03  0.44833225899E+03  0.00000000000E+00 0. -1.
         -2   -1    0    0    0  501 -0.00000000000E+00 -0.00000000000E+00 -0.12869452695E+03  0.12869452695E+03  0.00000000000E+00 0.  1.
          5    1    1    2  502    0 -0.13765504394E+02 -0.34088930636E+02  0.16943680181E+02  0.40751964385E+02  0.47000000000E+01 0.  1.
         -5    1    1    2    0  502  0.18815497353E+03 -0.84614514912E+02  0.17753827668E+03  0.27222020477E+03  0.47000000000E+01 0.  1.
        -11    1    1    2    0    0 -0.10133741582E+03  0.69019997580E+02  0.12585488020E+03  0.17570567088E+03  0.00000000000E+00 0.  1.
         11    1    1    2    0    0 -0.73052053312E+02  0.49683447968E+02 -0.69910501665E+00  0.88348945907E+02  0.00000000000E+00 0. -1.
<mgrwt>
<rscale>  0 0.24197200E+03</rscale>
<asrwt>0</asrwt>
<pdfrwt beam="1">  1        2 0.68974193E-01 0.24521082E+03</pdfrwt>
<pdfrwt beam="2">  1       -2 0.19799158E-01 0.24521082E+03</pdfrwt>
<totfact> 0.15019307E+03</totfact>
</mgrwt>
</event>
<event>
 6    1  0.7457796E-006  0.2672003E+03  0.7546771E-02  0.1102893E+00
         -3   -1    0    0    0  501 -0.00000000000E+00  0.00000000000E+00  0.26872604247E+03  0.26872604247E+03  0.00000000000E+00 0.  1.
          3   -1    0    0  501    0  0.00000000000E+00 -0.00000000000E+00 -0.66420810268E+02  0.66420810268E+02  0.00000000000E+00 0. -1.
          5    1    1    2  502    0 -0.10249691575E+03 -0.16608638058E+01  0.62625718029E+02  0.12021832957E+03  0.47000000000E+01 0. -1.
         -5    1    1    2    0  502  0.25001720493E+02 -0.80957721683E+01  0.82187374539E+02  0.86414594186E+02  0.47000000000E+01 0. -1.
        -11    1    1    2    0    0  0.24023343826E+02  0.38643435133E+02  0.49465212803E+02  0.67210441192E+02  0.00000000000E+00 0.  1.
         11    1    1    2    0    0  0.53471851427E+02 -0.28886799159E+02  0.80269268297E+01  0.61303487789E+02  0.00000000000E+00 0. -1.
<mgrwt>
<rscale>  0 0.26720031E+03</rscale>
<asrwt>0</asrwt>
<pdfrwt beam="2">  1        3 0.10218586E-01 0.26720031E+03</pdfrwt>
<pdfrwt beam="1">  1       -3 0.41342467E-01 0.26720031E+03</pdfrwt>
<totfact> 0.10506628E+03</totfact>
</mgrwt>
</event>
<event>
 6    1  0.7457796E-006  0.1414171E+03  0.7546771E-02  0.1225653E+00
         -1   -1    0    0    0  501 -0.00000000000E+00  0.00000000000E+00  0.62940836914E+02  0.62940836914E+02  0.00000000000E+00 0.  1.
          1   -1    0    0  501    0  0.00000000000E+00 -0.00000000000E+00 -0.24746894502E+03  0.24746894502E+03  0.00000000000E+00 0. -1.
          5    1    1    2  502    0 -0.33508542217E+02 -0.75223161623E+02 -0.60015862357E+01  0.82701000498E+02  0.47000000000E+01 0. -1.
         -5    1    1    2    0  502 -0.11201819061E+02  0.26528751400E+02 -0.74531223222E+02  0.80039044447E+02  0.47000000000E+01 0. -1.
        -11    1    1    2    0    0  0.54465440019E+02  0.18016720260E+02 -0.25404072562E+02  0.62741160876E+02  0.00000000000E+00 0.  1.
         11    1    1    2    0    0 -0.97550787408E+01  0.30677689964E+02 -0.78591226090E+02  0.84928576116E+02  0.00000000000E+00 0. -1.
<mgrwt>
<rscale>  0 0.13122230E+03</rscale>
<asrwt>0</asrwt>
<pdfrwt beam="2">  1        1 0.38072145E-01 0.14141707E+03</pdfrwt>
<pdfrwt beam="1">  1       -1 0.96832057E-02 0.14141707E+03</pdfrwt>
<totfact> 0.68392276E+03</totfact>
</mgrwt>
</event>
<event>
 6    1  0.7457796E-006  0.1285228E+03  0.7546771E-02  0.1244526E+00
          1   -1    0    0  501    0  0.00000000000E+00  0.00000000000E+00  0.18379636361E+02  0.18379636361E+02  0.00000000000E+00 0. -1.
         -1   -1    0    0    0  501 -0.00000000000E+00 -0.00000000000E+00 -0.89247732251E+03  0.89247732251E+03  0.00000000000E+00 0.  1.
          5    1    1    2  502    0  0.54704582468E+02  0.16904970073E+02 -0.29795557654E+03  0.30344354491E+03  0.47000000000E+01 0.  1.
         -5    1    1    2    0  502 -0.53071054826E+02 -0.46764660528E+02 -0.40995524458E+03  0.41603949679E+03  0.47000000000E+01 0.  1.
        -11    1    1    2    0    0  0.21633711833E+02 -0.12296284515E+02 -0.81812830512E+01  0.26194455385E+02  0.00000000000E+00 0. -1.
         11    1    1    2    0    0 -0.23267239474E+02  0.42155974971E+02 -0.15800558198E+03  0.16517946178E+03  0.00000000000E+00 0.  1.
<mgrwt>
<rscale>  0 0.11913822E+03</rscale>
<asrwt>0</asrwt>
<pdfrwt beam="1">  1        1 0.28276362E-02 0.12852283E+03</pdfrwt>
<pdfrwt beam="2">  1       -1 0.13730421E+00 0.12852283E+03</pdfrwt>
<totfact> 0.17072762E+03</totfact>
</mgrwt>
</event>
<event>
 6    1  0.7457796E-006  0.1254671E+03  0.7546771E-02  0.1250084E+00
         -2   -1    0    0    0  501 -0.00000000000E+00  0.00000000000E+00  0.33456485154E+02  0.33456485154E+02  0.00000000000E+00 0.  1.
          2   -1    0    0  501    0  0.00000000000E+00 -0.00000000000E+00 -0.43435978916E+03  0.43435978916E+03  0.00000000000E+00 0. -1.
          5    1    1    2  502    0  0.10597937591E+02  0.35553226247E+02 -0.13888938873E+03  0.14383567179E+03  0.47000000000E+01 0. -1.
         -5    1    1    2    0  502 -0.17807821005E+01 -0.29234705726E+02  0.14345226676E+02  0.32950185617E+02  0.47000000000E+01 0. -1.
        -11    1    1    2    0    0  0.48630927853E+01  0.41339859603E+02 -0.12242168839E+03  0.12930469230E+03  0.00000000000E+00 0. -1.
         11    1    1    2    0    0 -0.13680248276E+02 -0.47658380124E+02 -0.15393745356E+03  0.16172572460E+03  0.00000000000E+00 0.  1.
<mgrwt>
<rscale>  0 0.11586200E+03</rscale>
<asrwt>0</asrwt>
<pdfrwt beam="2">  1        2 0.66824578E-01 0.12546709E+03</pdfrwt>
<pdfrwt beam="1">  1       -2 0.51471520E-02 0.12546709E+03</pdfrwt>
<totfact> 0.12835962E+04</totfact>
</mgrwt>
</event>
<event>
 6    1  0.7457796E-006  0.1446417E+03  0.7546771E-02  0.1218056E+00
          1   -1    0    0  501    0  0.00000000000E+00  0.00000000000E+00  0.18343429641E+02  0.18343429641E+02  0.00000000000E+00 0. -1.
         -1   -1    0    0    0  501 -0.00000000000E+00 -0.00000000000E+00 -0.92156424597E+03  0.92156424597E+03  0.00000000000E+00 0.  1.
          5    1    1    2  502    0  0.77068845753E+00 -0.43924403114E+02 -0.34550032324E+03  0.34831381039E+03  0.47000000000E+01 0. -1.
         -5    1    1    2    0  502  0.71580188193E+02  0.35992321687E+02 -0.18730069328E+03  0.20377146578E+03  0.47000000000E+01 0. -1.
        -11    1    1    2    0    0 -0.13019829286E+02  0.18641559378E+02 -0.14805217077E+02  0.27133340070E+02  0.00000000000E+00 0. -1.
         11    1    1    2    0    0 -0.59331047365E+02 -0.10709477951E+02 -0.35561458273E+03  0.36068905937E+03  0.00000000000E+00 0.  1.
<mgrwt>
<rscale>  0 0.13654411E+03</rscale>
<asrwt>0</asrwt>
<pdfrwt beam="1">  1        1 0.28220667E-02 0.14464173E+03</pdfrwt>
<pdfrwt beam="2">  1       -1 0.14177908E+00 0.14464173E+03</pdfrwt>
<totfact> 0.15881255E+03</totfact>
</mgrwt>
</event>
<event>
 6    1  0.7457796E-006  0.2965287E+03  0.7546771E-02  0.1088662E+00
         -2   -1    0    0    0  501 -0.00000000000E+00  0.00000000000E+00  0.93650920364E+02  0.93650920364E+02  0.00000000000E+00 0.  1.
          2   -1    0    0  501    0  0.00000000000E+00 -0.00000000000E+00 -0.12268613543E+04  0.12268613543E+04  0.00000000000E+00 0. -1.
          5    1    1    2  502    0  0.10673407644E+03  0.63810523937E+02 -0.31789944091E+02  0.12843923304E+03  0.47000000000E+01 0. -1.
         -5    1    1    2    0  502  0.13634205286E+03  0.51157374219E+02 -0.20254641315E+03  0.24950625602E+03  0.47000000000E+01 0. -1.
        -11    1    1    2    0    0 -0.23221561376E+03 -0.10396079767E+03 -0.88782677356E+03  0.92356283953E+03  0.00000000000E+00 0. -1.
         11    1    1    2    0    0 -0.10860515546E+02 -0.11007100482E+02 -0.11047303112E+02  0.19003946038E+02  0.00000000000E+00 0.  1.
<mgrwt>
<rscale>  0 0.29325531E+03</rscale>
<asrwt>0</asrwt>
<pdfrwt beam="2">  1        2 0.18874790E+00 0.29652869E+03</pdfrwt>
<pdfrwt beam="1">  1       -2 0.14407834E-01 0.29652869E+03</pdfrwt>
<totfact> 0.70694978E+02</totfact>
</mgrwt>
</event>
<event>
 6    1  0.7457796E-006  0.2155222E+03  0.7546771E-02  0.1149709E+00
         -1   -1    0    0    0  501 -0.00000000000E+00  0.00000000000E+00  0.88184982504E+03  0.88184982504E+03  0.00000000000E+00 0.  1.
          1   -1    0    0  501    0  0.00000000000E+00 -0.00000000000E+00 -0.53188897326E+02  0.53188897326E+02  0.00000000000E+00 0. -1.
          5    1    1    2  502    0 -0.47465852976E+02 -0.22143437605E+02  0.37937242717E+02  0.64843376012E+02  0.47000000000E+01 0. -1.
         -5    1    1    2    0  502 -0.32810528608E+02 -0.81518905321E+02  0.65367425304E+03  0.65957105895E+03  0.47000000000E+01 0.  1.
        -11    1    1    2    0    0  0.49129870734E+02  0.22906744381E+01  0.21176827090E+02  0.53548570413E+02  0.00000000000E+00 0.  1.
         11    1    1    2    0    0  0.31146510850E+02  0.10137166849E+03  0.11587260486E+03  0.15707571699E+03  0.00000000000E+00 0. -1.
<mgrwt>
<rscale>  0 0.20003530E+03</rscale>
<asrwt>0</asrwt>
<pdfrwt beam="2">  1        1 0.81829079E-02 0.21552219E+03</pdfrwt>
<pdfrwt beam="1">  1       -1 0.13566919E+00 0.21552219E+03</pdfrwt>
<totfact> 0.41308521E+02</totfact>
</mgrwt>
</event>
<event>
 6    1  0.7457796E-006  0.3226560E+03  0.7546771E-02  0.1075781E+00
          4   -1    0    0  501    0  0.00000000000E+00  0.00000000000E+00  0.17728985851E+03  0.17728985851E+03  0.00000000000E+00 0. -1.
         -4   -1    0    0    0  501 -0.00000000000E+00 -0.00000000000E+00 -0.56730385634E+03  0.56730385634E+03  0.00000000000E+00 0.  1.
          5    1    1    2  502    0 -0.19664125648E+03  0.22733613610E+02 -0.89984298999E+02  0.21749451718E+03  0.47000000000E+01 0. -1.
         -5    1    1    2    0  502 -0.81949156374E+02  0.81523019271E+02 -0.12446291645E+03  0.16992579107E+03  0.47000000000E+01 0. -1.
        -11    1    1    2    0    0  0.24370191981E+03 -0.10596974652E+03 -0.18140595232E+03  0.32175818938E+03  0.00000000000E+00 0.  1.
         11    1    1    2    0    0  0.34888493041E+02  0.17131136435E+01  0.58391699332E+01  0.35415217218E+02  0.00000000000E+00 0. -1.
<mgrwt>
<rscale>  0 0.31971329E+03</rscale>
<asrwt>0</asrwt>
<pdfrwt beam="1">  1        4 0.27275362E-01 0.32265599E+03</pdfrwt>
<pdfrwt beam="2">  1       -4 0.87277519E-01 0.32265599E+03</pdfrwt>
<totfact> 0.27651617E+01</totfact>
</mgrwt>
</event>
<event>
 6    1  0.7457796E-006  0.4126005E+03  0.7546771E-02  0.1039502E+00
         -2   -1    0    0    0  501 -0.00000000000E+00  0.00000000000E+00  0.10367581242E+03  0.10367581242E+03  0.00000000000E+00 0. -1.
          2   -1    0    0  501    0  0.00000000000E+00 -0.00000000000E+00 -0.41050832602E+03  0.41050832602E+03  0.00000000000E+00 0.  1.
          5    1    1    2  502    0 -0.18282265075E+02 -0.63705452105E+01  0.92663303361E+01  0.21972253877E+02  0.47000000000E+01 0. -1.
         -5    1    1    2    0  502  0.13567689971E+03 -0.11923861540E+03 -0.12874834221E+03  0.22186548659E+03  0.47000000000E+01 0. -1.
        -11    1    1    2    0    0 -0.11911007356E+03  0.93015746011E+02 -0.11160793006E+03  0.18787088301E+03  0.00000000000E+00 0.  1.
         11    1    1    2    0    0  0.17154389301E+01  0.32593414596E+02 -0.75742571672E+02  0.82475514969E+02  0.00000000000E+00 0. -1.
<mgrwt>
<rscale>  0 0.41260046E+03</rscale>
<asrwt>0</asrwt>
<pdfrwt beam="2">  1        2 0.63155127E-01 0.41260046E+03</pdfrwt>
<pdfrwt beam="1">  1       -2 0.15950125E-01 0.41260046E+03</pdfrwt>
<totfact> 0.24119533E+03</totfact>
</mgrwt>
</event>
<event>
 6    1  0.7457796E-006  0.1253169E+03  0.7546771E-02  0.1249624E+00
         -2   -1    0    0    0  501 -0.00000000000E+00  0.00000000000E+00  0.47769585507E+02  0.47769585507E+02  0.00000000000E+00 0.  1.
          2   -1    0    0  501    0  0.00000000000E+00 -0.00000000000E+00 -0.25615043136E+03  0.25615043136E+03  0.00000000000E+00 0. -1.
          5    1    1    2  502    0  0.19548534008E+02  0.23977457782E+01  0.27851937732E+02  0.34434209765E+02  0.47000000000E+01 0.  1.
         -5    1    1    2    0  502 -0.11749617609E+02 -0.67940601989E+01 -0.12064763873E+03  0.12149961110E+03  0.47000000000E+01 0.  1.
        -11    1    1    2    0    0  0.33147785735E+02  0.18727333376E+02 -0.89756549690E+02  0.97497317536E+02  0.00000000000E+00 0. -1.
         11    1    1    2    0    0 -0.40946702134E+02 -0.14331018956E+02 -0.25828595165E+02  0.50488878460E+02  0.00000000000E+00 0.  1.
<mgrwt>
<rscale>  0 0.11612862E+03</rscale>
<asrwt>0</asrwt>
<pdfrwt beam="2">  1        2 0.39407758E-01 0.12531686E+03</pdfrwt>
<pdfrwt beam="1">  1       -2 0.73491672E-02 0.12531686E+03</pdfrwt>
<totfact> 0.13097967E+04</totfact>
</mgrwt>
</event>
<event>
 6    1  0.7457796E-006  0.1257265E+03  0.7546771E-02  0.1248682E+00
          2   -1    0    0  501    0  0.00000000000E+00  0.00000000000E+00  0.12753315558E+03  0.12753315558E+03  0.00000000000E+00 0. -1.
         -2   -1    0    0    0  501 -0.00000000000E+00 -0.00000000000E+00 -0.99332113477E+02  0.99332113477E+02  0.00000000000E+00 0.  1.
          5    1    1    2  502    0 -0.36070787217E+02  0.32556802690E+02  0.25503170925E+02  0.55077661707E+02  0.47000000000E+01 0. -1.
         -5    1    1    2    0  502  0.42245766246E+02 -0.44545654644E+02 -0.35435164784E+02  0.71040558955E+02  0.47000000000E+01 0. -1.
        -11    1    1    2    0    0  0.12987018614E+02  0.30461000342E+02  0.58507258812E+02  0.67228227167E+02  0.00000000000E+00 0. -1.
         11    1    1    2    0    0 -0.19161997644E+02 -0.18472148389E+02 -0.20374222850E+02  0.33518821229E+02  0.00000000000E+00 0.  1.
<mgrwt>
<rscale>  0 0.11667670E+03</rscale>
<asrwt>0</asrwt>
<pdfrwt beam="1">  1        2 0.19620485E-01 0.12572653E+03</pdfrwt>
<pdfrwt beam="2">  1       -2 0.15281864E-01 0.12572653E+03</pdfrwt>
<totfact> 0.88295001E+03</totfact>
</mgrwt>
</event>
<event>
 6    1  0.7457796E-006  0.1332270E+03  0.7546771E-02  0.1231730E+00
          2   -1    0    0  501    0  0.00000000000E+00  0.00000000000E+00  0.27037026080E+03  0.27037026080E+03  0.00000000000E+00 0. -1.
         -2   -1    0    0    0  501 -0.00000000000E+00 -0.00000000000E+00 -0.61889746788E+02  0.61889746788E+02  0.00000000000E+00 0.  1.
          5    1    1    2  502    0  0.28905813914E+02  0.38814106363E+02  0.92636263967E+02  0.10462145254E+03  0.47000000000E+01 0. -1.
         -5    1    1    2    0  502  0.81983937650E+01  0.17643906746E+02 -0.35173494930E+02  0.40469566976E+02  0.47000000000E+01 0.  1.
        -11    1    1    2    0    0 -0.40232874304E+02  0.59168279252E+01  0.28520742196E+02  0.49670169748E+02  0.00000000000E+00 0.  1.
         11    1    1    2    0    0  0.31286666244E+01 -0.62374841035E+02  0.12249700278E+03  0.13749881831E+03  0.00000000000E+00 0. -1.
<mgrwt>
<rscale>  0 0.12716107E+03</rscale>
<asrwt>0</asrwt>
<pdfrwt beam="1">  1        2 0.41595424E-01 0.13322700E+03</pdfrwt>
<pdfrwt beam="2">  1       -2 0.95214997E-02 0.13322700E+03</pdfrwt>
<totfact> 0.83248006E+03</totfact>
</mgrwt>
</event>
<event>
 6    1  0.7457796E-006  0.2845788E+03  0.7546771E-02  0.1093214E+00
          2   -1    0    0  501    0  0.00000000000E+00  0.00000000000E+00  0.69284573952E+03  0.69284573952E+03  0.00000000000E+00 0. -1.
         -2   -1    0    0    0  501 -0.00000000000E+00 -0.00000000000E+00 -0.29221898181E+02  0.29221898181E+02  0.00000000000E+00 0.  1.
          5    1    1    2  502    0  0.30420980216E+01 -0.10053281374E+02 -0.12454399203E+02  0.16956558798E+02  0.47000000000E+01 0.  1.
         -5    1    1    2    0  502  0.76870027291E+02 -0.20736227737E+02  0.27333996526E+03  0.28473815839E+03  0.47000000000E+01 0.  1.
        -11    1    1    2    0    0 -0.26484814219E+02  0.54899367252E+02  0.17946839276E+03  0.18953704100E+03  0.00000000000E+00 0.  1.
         11    1    1    2    0    0 -0.53427311094E+02 -0.24109858142E+02  0.22326988252E+03  0.23083587951E+03  0.00000000000E+00 0. -1.
<mgrwt>
<rscale>  0 0.28457876E+03</rscale>
<asrwt>0</asrwt>
<pdfrwt beam="1">  1        2 0.10659164E+00 0.28457876E+03</pdfrwt>
<pdfrwt beam="2">  1       -2 0.44956771E-02 0.28457876E+03</pdfrwt>
<totfact> 0.97554436E+03</totfact>
</mgrwt>
</event>
<event>
 6    1  0.7457796E-006  0.1359377E+03  0.7546771E-02  0.1231387E+00
         -1   -1    0    0    0  501 -0.00000000000E+00  0.00000000000E+00  0.13784332110E+03  0.13784332110E+03  0.00000000000E+00 0.  1.
          1   -1    0    0  501    0  0.00000000000E+00 -0.00000000000E+00 -0.11689795942E+03  0.11689795942E+03  0.00000000000E+00 0. -1.
          5    1    1    2  502    0 -0.44454381989E+02  0.72422747878E+02  0.15655881575E+02  0.86535790954E+02  0.47000000000E+01 0.  1.
         -5    1    1    2    0  502 -0.21318374123E+01 -0.46266977588E+02  0.36140364007E+02  0.58935505906E+02  0.47000000000E+01 0.  1.
        -11    1    1    2    0    0  0.49300594297E+02 -0.40788084817E+02 -0.52658642941E+02  0.82868263753E+02  0.00000000000E+00 0. -1.
         11    1    1    2    0    0 -0.27143748959E+01  0.14632314527E+02  0.21807759044E+02  0.26401719906E+02  0.00000000000E+00 0.  1.
<mgrwt>
<rscale>  0 0.12738563E+03</rscale>
<asrwt>0</asrwt>
<pdfrwt beam="2">  1        1 0.17984301E-01 0.13593766E+03</pdfrwt>
<pdfrwt beam="1">  1       -1 0.21206665E-01 0.13593766E+03</pdfrwt>
<totfact> 0.51261008E+03</totfact>
</mgrwt>
</event>
<event>
 6    1  0.7457796E-006  0.1437119E+03  0.7546771E-02  0.1223761E+00
         -1   -1    0    0    0  501 -0.00000000000E+00  0.00000000000E+00  0.38234445894E+03  0.38234445894E+03  0.00000000000E+00 0.  1.
          1   -1    0    0  501    0  0.00000000000E+00 -0.00000000000E+00 -0.44165909197E+02  0.44165909197E+02  0.00000000000E+00 0. -1.
          5    1    1    2  502    0 -0.74933629275E+02  0.20956547245E+02  0.18919508508E+03  0.20462427980E+03  0.47000000000E+01 0.  1.
         -5    1    1    2    0  502  0.13977462034E+02 -0.57183122238E+02  0.68555379140E+02  0.90483196909E+02  0.47000000000E+01 0.  1.
        -11    1    1    2    0    0  0.33959507070E+02  0.32032991923E+02  0.23551780842E+00  0.46684217469E+02  0.00000000000E+00 0. -1.
         11    1    1    2    0    0  0.26996660171E+02  0.41935830698E+01  0.80192567723E+02  0.84718673959E+02  0.00000000000E+00 0.  1.
<mgrwt>
<rscale>  0 0.13252193E+03</rscale>
<asrwt>0</asrwt>
<pdfrwt beam="2">  1        1 0.67947555E-02 0.14371194E+03</pdfrwt>
<pdfrwt beam="1">  1       -1 0.58822222E-01 0.14371194E+03</pdfrwt>
<totfact> 0.31740627E+03</totfact>
</mgrwt>
</event>
<event>
 6    1  0.7457796E-006  0.1211566E+03  0.7546771E-02  0.1251461E+00
         -1   -1    0    0    0  501 -0.00000000000E+00  0.00000000000E+00  0.13108881617E+03  0.13108881617E+03  0.00000000000E+00 0.  1.
          1   -1    0    0  501    0  0.00000000000E+00 -0.00000000000E+00 -0.11338148167E+03  0.11338148167E+03  0.00000000000E+00 0. -1.
          5    1    1    2  502    0 -0.56868383747E+02  0.24532293043E+01  0.27856343792E+02  0.63546025001E+02  0.47000000000E+01 0. -1.
         -5    1    1    2    0  502  0.54175406253E+02  0.33767992417E+02  0.34487222000E+02  0.72709768504E+02  0.47000000000E+01 0.  1.
        -11    1    1    2    0    0 -0.11337530577E+02  0.24436339028E+02  0.64258275248E+01  0.27694142414E+02  0.00000000000E+00 0.  1.
         11    1    1    2    0    0  0.14030508070E+02 -0.60657560749E+02 -0.51062058820E+02  0.80520361919E+02  0.00000000000E+00 0. -1.
<mgrwt>
<rscale>  0 0.11506873E+03</rscale>
<asrwt>0</asrwt>
<pdfrwt beam="2">  1        1 0.17443305E-01 0.12115660E+03</pdfrwt>
<pdfrwt beam="1">  1       -1 0.20167510E-01 0.12115660E+03</pdfrwt>
<totfact> 0.57344975E+03</totfact>
</mgrwt>
</event>
<event>
 6    1  0.7457796E-006  0.1787004E+03  0.7546771E-02  0.1174872E+00
         -1   -1    0    0    0  501 -0.00000000000E+00  0.00000000000E+00  0.11052365197E+03  0.11052365197E+03  0.00000000000E+00 0.  1.
          1   -1    0    0  501    0  0.00000000000E+00 -0.00000000000E+00 -0.25915596769E+03  0.25915596769E+03  0.00000000000E+00 0. -1.
          5    1    1    2  502    0  0.26618420820E+02 -0.47020741734E+02 -0.14573932031E+02  0.56160306045E+02  0.47000000000E+01 0.  1.
         -5    1    1    2    0  502  0.99101288837E+02  0.69459653272E+02 -0.89992201500E+02  0.15088537110E+03  0.47000000000E+01 0.  1.
        -11    1    1    2    0    0 -0.38296232019E+02 -0.53676864868E+01  0.28257834521E+02  0.47894870883E+02  0.00000000000E+00 0.  1.
         11    1    1    2    0    0 -0.87423477639E+02 -0.17071225051E+02 -0.72324016708E+02  0.11473907164E+03  0.00000000000E+00 0. -1.
<mgrwt>
<rscale>  0 0.17288511E+03</rscale>
<asrwt>0</asrwt>
<pdfrwt beam="2">  1        1 0.39870149E-01 0.17870041E+03</pdfrwt>
<pdfrwt beam="1">  1       -1 0.17003639E-01 0.17870041E+03</pdfrwt>
<totfact> 0.27204039E+03</totfact>
</mgrwt>
</event>
<event>
 6    1  0.7457796E-006  0.3708250E+03  0.7546771E-02  0.1054378E+00
         -2   -1    0    0    0  501 -0.00000000000E+00  0.00000000000E+00  0.10940256408E+03  0.10940256408E+03  0.00000000000E+00 0.  1.
          2   -1    0    0  501    0  0.00000000000E+00 -0.00000000000E+00 -0.31423203707E+03  0.31423203707E+03  0.00000000000E+00 0. -1.
          5    1    1    2  502    0 -0.24807193898E+02 -0.15155523767E+03 -0.63402809268E+02  0.16621189235E+03  0.47000000000E+01 0.  1.
         -5    1    1    2    0  502 -0.22668808905E+02  0.17431287755E+02  0.98430711624E+01  0.30605567138E+02  0.47000000000E+01 0.  1.
        -11    1    1    2    0    0 -0.25661842457E+01  0.77200822400E+02 -0.12434633165E+03  0.14638498037E+03  0.00000000000E+00 0. -1.
         11    1    1    2    0    0  0.50042187048E+02  0.56923127514E+02 -0.26923403225E+02  0.80432161302E+02  0.00000000000E+00 0.  1.
<mgrwt>
<rscale>  0 0.37082498E+03</rscale>
<asrwt>0</asrwt>
<pdfrwt beam="2">  1        2 0.48343390E-01 0.37082498E+03</pdfrwt>
<pdfrwt beam="1">  1       -2 0.16831164E-01 0.37082498E+03</pdfrwt>
<totfact> 0.29479183E+03</totfact>
</mgrwt>
</event>
<event>
 6    1  0.7457796E-006  0.2898333E+03  0.7546771E-02  0.1090436E+00
         -1   -1    0    0    0  501 -0.00000000000E+00  0.00000000000E+00  0.58034082496E+02  0.58034082496E+02  0.00000000000E+00 0.  1.
          1   -1    0    0  501    0  0.00000000000E+00 -0.00000000000E+00 -0.36187077217E+03  0.36187077217E+03  0.00000000000E+00 0. -1.
          5    1    1    2  502    0 -0.83538700761E+02  0.35008068478E+02 -0.11049201095E+03  0.14295052944E+03  0.47000000000E+01 0.  1.
         -5    1    1    2    0  502  0.19411992453E+02  0.14297534054E+02  0.19655961111E+02  0.31459366462E+02  0.47000000000E+01 0.  1.
        -11    1    1    2    0    0  0.53603994277E+02 -0.17137700360E+02 -0.39577841327E+02  0.68800396076E+02  0.00000000000E+00 0.  1.
         11    1    1    2    0    0  0.10522714032E+02 -0.32167902172E+02 -0.17342279851E+03  0.17669456269E+03  0.00000000000E+00 0. -1.
<mgrwt>
<rscale>  0 0.28983332E+03</rscale>
<asrwt>0</asrwt>
<pdfrwt beam="2">  1        1 0.55672427E-01 0.28983332E+03</pdfrwt>
<pdfrwt beam="1">  1       -1 0.89283203E-02 0.28983332E+03</pdfrwt>
<totfact> 0.49940622E+03</totfact>
</mgrwt>
</event>
<event>
 6    1  0.7457796E-006  0.1250481E+03  0.7546771E-02  0.1248917E+00
         -2   -1    0    0    0  501 -0.00000000000E+00  0.00000000000E+00  0.24959087350E+02  0.24959087350E+02  0.00000000000E+00 0.  1.
          2   -1    0    0  501    0  0.00000000000E+00 -0.00000000000E+00 -0.49611941477E+03  0.49611941477E+03  0.00000000000E+00 0. -1.
          5    1    1    2  502    0 -0.39276119911E+02  0.55040442426E+02 -0.17976189745E+03  0.19211583400E+03  0.47000000000E+01 0. -1.
         -5    1    1    2    0  502  0.40729504907E+02 -0.22749154581E+02 -0.44445713506E+02  0.64605944410E+02  0.47000000000E+01 0.  1.
        -11    1    1    2    0    0 -0.20010296931E+02  0.10000180106E+02 -0.12966505152E+02  0.25856253427E+02  0.00000000000E+00 0. -1.
         11    1    1    2    0    0  0.18556911936E+02 -0.42291467950E+02 -0.23398621131E+03  0.23850047028E+03  0.00000000000E+00 0.  1.
<mgrwt>
<rscale>  0 0.11653983E+03</rscale>
<asrwt>0</asrwt>
<pdfrwt beam="2">  1        2 0.76326059E-01 0.12504807E+03</pdfrwt>
<pdfrwt beam="1">  1       -2 0.38398598E-02 0.12504807E+03</pdfrwt>
<totfact> 0.17194786E+04</totfact>
</mgrwt>
</event>
<event>
 6    1  0.7457796E-006  0.1379877E+03  0.7546771E-02  0.1226921E+00
         -2   -1    0    0    0  501 -0.00000000000E+00  0.00000000000E+00  0.81720147582E+02  0.81720147582E+02  0.00000000000E+00 0.  1.
          2   -1    0    0  501    0  0.00000000000E+00 -0.00000000000E+00 -0.61314028199E+03  0.61314028199E+03  0.00000000000E+00 0. -1.
          5    1    1    2  502    0  0.11421432787E+02  0.37576866568E+02 -0.53765965264E+02  0.66748326187E+02  0.47000000000E+01 0. -1.
         -5    1    1    2    0  502  0.14222363681E+02  0.19613179448E+02  0.67560904289E+02  0.71927173064E+02  0.47000000000E+01 0.  1.
        -11    1    1    2    0    0  0.27102465839E+02 -0.46920658999E+02 -0.32646502434E+03  0.33093126781E+03  0.00000000000E+00 0. -1.
         11    1    1    2    0    0 -0.52746262307E+02 -0.10269387017E+02 -0.21875004910E+03  0.22525366252E+03  0.00000000000E+00 0.  1.
<mgrwt>
<rscale>  0 0.13036123E+03</rscale>
<asrwt>0</asrwt>
<pdfrwt beam="2">  1        2 0.94329273E-01 0.13798766E+03</pdfrwt>
<pdfrwt beam="1">  1       -2 0.12572331E-01 0.13798766E+03</pdfrwt>
<totfact> 0.22150512E+03</totfact>
</mgrwt>
</event>
<event>
 6    1  0.7457796E-006  0.2549809E+03  0.7546771E-02  0.1110197E+00
         -1   -1    0    0    0  501 -0.00000000000E+00  0.00000000000E+00  0.26493034693E+03  0.26493034693E+03  0.00000000000E+00 0.  1.
          1   -1    0    0  501    0  0.00000000000E+00 -0.00000000000E+00 -0.61351258618E+02  0.61351258618E+02  0.00000000000E+00 0. -1.
          5    1    1    2  502    0  0.68569300812E+02 -0.28920548452E+00  0.22518531560E+02  0.72325700255E+02  0.47000000000E+01 0. -1.
         -5    1    1    2    0  502 -0.14370352839E+02  0.19574663251E+02  0.13320933792E+03  0.13548613284E+03  0.47000000000E+01 0. -1.
        -11    1    1    2    0    0 -0.16130936388E+01 -0.37466058186E+02  0.50341627555E+02  0.62774095390E+02  0.00000000000E+00 0.  1.
         11    1    1    2    0    0 -0.52585854334E+02  0.18180600419E+02 -0.24904087283E+01  0.55695677061E+02  0.00000000000E+00 0. -1.
<mgrwt>
<rscale>  0 0.25498086E+03</rscale>
<asrwt>0</asrwt>
<pdfrwt beam="2">  1        1 0.94386553E-02 0.25498086E+03</pdfrwt>
<pdfrwt beam="1">  1       -1 0.40758514E-01 0.25498086E+03</pdfrwt>
<totfact> 0.41066651E+03</totfact>
</mgrwt>
</event>
<event>
 6    1  0.7457796E-006  0.1643727E+03  0.7546771E-02  0.1191059E+00
         -2   -1    0    0    0  501 -0.00000000000E+00  0.00000000000E+00  0.50183609304E+03  0.50183609304E+03  0.00000000000E+00 0.  1.
          2   -1    0    0  501    0  0.00000000000E+00 -0.00000000000E+00 -0.56872804647E+02  0.56872804647E+02  0.00000000000E+00 0. -1.
          5    1    1    2  502    0  0.60814193974E+01  0.66773537849E+02  0.55634059734E+02  0.87252092361E+02  0.47000000000E+01 0.  1.
         -5    1    1    2    0  502  0.42697694287E+02  0.28157023766E+02  0.30214119429E+03  0.30647561465E+03  0.47000000000E+01 0.  1.
        -11    1    1    2    0    0 -0.22305408620E+02 -0.86746290416E+02  0.19255533756E+02  0.91614549799E+02  0.00000000000E+00 0. -1.
         11    1    1    2    0    0 -0.26473705064E+02 -0.81842711989E+01  0.67932500607E+02  0.73366640878E+02  0.00000000000E+00 0.  1.
<mgrwt>
<rscale>  0 0.15792518E+03</rscale>
<asrwt>0</asrwt>
<pdfrwt beam="2">  1        2 0.87496626E-02 0.16437267E+03</pdfrwt>
<pdfrwt beam="1">  1       -2 0.77205550E-01 0.16437267E+03</pdfrwt>
<totfact> 0.11465926E+03</totfact>
</mgrwt>
</event>
<event>
 6    1  0.7457796E-006  0.1663535E+03  0.7546771E-02  0.1188346E+00
          1   -1    0    0  501    0  0.00000000000E+00  0.00000000000E+00  0.32577725188E+03  0.32577725188E+03  0.00000000000E+00 0. -1.
         -1   -1    0    0    0  501 -0.00000000000E+00 -0.00000000000E+00 -0.86615083569E+02  0.86615083569E+02  0.00000000000E+00 0.  1.
          5    1    1    2  502    0 -0.81654606909E+02 -0.69848744884E+02  0.64350369563E+02  0.12533707374E+03  0.47000000000E+01 0.  1.
         -5    1    1    2    0  502 -0.23310046697E+02  0.37749183899E+02 -0.16809761153E+02  0.47676170485E+02  0.47000000000E+01 0.  1.
        -11    1    1    2    0    0  0.90813873222E+02 -0.10188119399E+02  0.89337955109E+02  0.12779760393E+03  0.00000000000E+00 0.  1.
         11    1    1    2    0    0  0.14150780384E+02  0.42287680383E+02  0.10228360479E+03  0.11158148730E+03  0.00000000000E+00 0. -1.
<mgrwt>
<rscale>  0 0.16031119E+03</rscale>
<asrwt>0</asrwt>
<pdfrwt beam="1">  1        1 0.50119577E-01 0.16635346E+03</pdfrwt>
<pdfrwt beam="2">  1       -1 0.13325398E-01 0.16635346E+03</pdfrwt>
<totfact> 0.29958738E+03</totfact>
</mgrwt>
</event>
<event>
 6    1  0.7457796E-006  0.1287364E+03  0.7546771E-02  0.1243087E+00
          2   -1    0    0  501    0  0.00000000000E+00  0.00000000000E+00  0.26220225696E+03  0.26220225696E+03  0.00000000000E+00 0. -1.
         -2   -1    0    0    0  501 -0.00000000000E+00 -0.00000000000E+00 -0.56575836979E+02  0.56575836979E+02  0.00000000000E+00 0.  1.
          5    1    1    2  502    0  0.35184863008E+02 -0.13833567711E+02 -0.23576327029E+02  0.44802626895E+02  0.47000000000E+01 0.  1.
         -5    1    1    2    0  502 -0.51170424698E+02 -0.12488276007E+02  0.79671651347E+02  0.95624429042E+02  0.47000000000E+01 0.  1.
        -11    1    1    2    0    0  0.36949475779E+02  0.22322504562E+02  0.15091150433E+03  0.15696445492E+03  0.00000000000E+00 0. -1.
         11    1    1    2    0    0 -0.20963914090E+02  0.39993391567E+01 -0.13804086670E+01  0.21386583077E+02  0.00000000000E+00 0.  1.
<mgrwt>
<rscale>  0 0.12000587E+03</rscale>
<asrwt>0</asrwt>
<pdfrwt beam="1">  1        2 0.40338808E-01 0.12873645E+03</pdfrwt>
<pdfrwt beam="2">  1       -2 0.87039750E-02 0.12873645E+03</pdfrwt>
<totfact> 0.98655650E+03</totfact>
</mgrwt>
</event>
<event>
 6    1  0.7457796E-006  0.1281098E+03  0.7546771E-02  0.1245000E+00
         -1   -1    0    0    0  501 -0.00000000000E+00  0.00000000000E+00  0.26746001810E+02  0.26746001810E+02  0.00000000000E+00 0.  1.
          1   -1    0    0  501    0  0.00000000000E+00 -0.00000000000E+00 -0.47474170580E+03  0.47474170580E+03  0.00000000000E+00 0. -1.
          5    1    1    2  502    0 -0.60619550536E+02  0.85473659590E+01 -0.20722173672E+03  0.21612664237E+03  0.47000000000E+01 0.  1.
         -5    1    1    2    0  502  0.33297572921E+02 -0.14943682196E+02 -0.13726180715E+02  0.39275183475E+02  0.47000000000E+01 0.  1.
        -11    1    1    2    0    0  0.31583087743E+02 -0.26198382709E+02 -0.19803494426E+03  0.20224165208E+03  0.00000000000E+00 0.  1.
         11    1    1    2    0    0 -0.42611101274E+01  0.32594698946E+02 -0.29012842296E+02  0.43844229688E+02  0.00000000000E+00 0. -1.
<mgrwt>
<rscale>  0 0.11885367E+03</rscale>
<asrwt>0</asrwt>
<pdfrwt beam="2">  1        1 0.73037182E-01 0.12810976E+03</pdfrwt>
<pdfrwt beam="1">  1       -1 0.41147697E-02 0.12810976E+03</pdfrwt>
<totfact> 0.10794931E+04</totfact>
</mgrwt>
</event>
<event>
 6    1  0.7457796E-006  0.1953362E+03  0.7546771E-02  0.1158902E+00
          2   -1    0    0  501    0  0.00000000000E+00  0.00000000000E+00  0.15187554390E+03  0.15187554390E+03  0.00000000000E+00 0. -1.
         -2   -1    0    0    0  501 -0.00000000000E+00 -0.00000000000E+00 -0.23553725215E+03  0.23553725215E+03  0.00000000000E+00 0.  1.
          5    1    1    2  502    0 -0.16104752777E+02  0.41106305309E+02 -0.80610500580E+02  0.92028442353E+02  0.47000000000E+01 0.  1.
         -5    1    1    2    0  502 -0.11984902578E+03  0.22511978146E+02 -0.75155865327E+01  0.12226672557E+03  0.47000000000E+01 0.  1.
        -11    1    1    2    0    0  0.89822615044E+02 -0.47793420214E+02 -0.37841291679E+02  0.10855540772E+03  0.00000000000E+00 0.  1.
         11    1    1    2    0    0  0.46131163514E+02 -0.15824863241E+02  0.42305670548E+02  0.64562220410E+02  0.00000000000E+00 0. -1.
<mgrwt>
<rscale>  0 0.18951177E+03</rscale>
<asrwt>0</asrwt>
<pdfrwt beam="1">  1        2 0.23365468E-01 0.19533615E+03</pdfrwt>
<pdfrwt beam="2">  1       -2 0.36236500E-01 0.19533615E+03</pdfrwt>
<totfact> 0.16517728E+03</totfact>
</mgrwt>
</event>
<event>
 6    1  0.7457796E-006  0.2476515E+03  0.7546771E-02  0.1114798E+00
          2   -1    0    0  501    0  0.00000000000E+00  0.00000000000E+00  0.12934185088E+03  0.12934185088E+03  0.00000000000E+00 0. -1.
         -2   -1    0    0    0  501 -0.00000000000E+00 -0.00000000000E+00 -0.11854491756E+03  0.11854491756E+03  0.00000000000E+00 0.  1.
          5    1    1    2  502    0 -0.23425251880E+02 -0.87190185918E+01 -0.65865764534E+02  0.70605613435E+02  0.47000000000E+01 0.  1.
         -5    1    1    2    0  502  0.59672769493E+02  0.12792705017E+02  0.24633497124E+02  0.65980238717E+02  0.47000000000E+01 0.  1.
        -11    1    1    2    0    0 -0.30951594552E+02  0.40582365548E+02  0.15427881898E+02  0.53319312999E+02  0.00000000000E+00 0. -1.
         11    1    1    2    0    0 -0.52959230610E+01 -0.44656051973E+02  0.36601318831E+02  0.57981603281E+02  0.00000000000E+00 0.  1.
<mgrwt>
<rscale>  0 0.24765152E+03</rscale>
<asrwt>0</asrwt>
<pdfrwt beam="1">  1        2 0.19898746E-01 0.24765152E+03</pdfrwt>
<pdfrwt beam="2">  1       -2 0.18237680E-01 0.24765152E+03</pdfrwt>
<totfact> 0.67805142E+03</totfact>
</mgrwt>
</event>
<event>
 6    1  0.7457796E-006  0.1256178E+03  0.7546771E-02  0.1242426E+00
         -1   -1    0    0    0  501 -0.00000000000E+00  0.00000000000E+00  0.41126821795E+03  0.41126821795E+03  0.00000000000E+00 0.  1.
          1   -1    0    0  501    0  0.00000000000E+00 -0.00000000000E+00 -0.39723694065E+03  0.39723694065E+03  0.00000000000E+00 0. -1.
          5    1    1    2  502    0  0.16348742623E+02 -0.22659510348E+02  0.32748887670E+02  0.43304900857E+02  0.47000000000E+01 0. -1.
         -5    1    1    2    0  502 -0.63028243338E+02  0.50726986746E+02  0.36149998966E+03  0.37047283189E+03  0.47000000000E+01 0.  1.
        -11    1    1    2    0    0  0.39053292963E+02 -0.59900738320E+02 -0.22475697355E+03  0.23585791337E+03  0.00000000000E+00 0.  1.
         11    1    1    2    0    0  0.76262077530E+01  0.31833261922E+02 -0.15546062648E+03  0.15886951248E+03  0.00000000000E+00 0. -1.
<mgrwt>
<rscale>  0 0.12040792E+03</rscale>
<asrwt>0</asrwt>
<pdfrwt beam="2">  1        1 0.61113375E-01 0.12561781E+03</pdfrwt>
<pdfrwt beam="1">  1       -1 0.63272034E-01 0.12561781E+03</pdfrwt>
<totfact> 0.16605921E+02</totfact>
</mgrwt>
</event>
<event>
 6    1  0.7457796E-006  0.2014732E+03  0.7546771E-02  0.1152781E+00
          2   -1    0    0  501    0  0.00000000000E+00  0.00000000000E+00  0.30871275237E+03  0.30871275237E+03  0.00000000000E+00 0. -1.
         -2   -1    0    0    0  501 -0.00000000000E+00 -0.00000000000E+00 -0.11948621956E+03  0.11948621956E+03  0.00000000000E+00 0.  1.
          5    1    1    2  502    0  0.43800058581E+02 -0.59050259340E+02 -0.24606066885E+01  0.73712433450E+02  0.47000000000E+01 0.  1.
         -5    1    1    2    0  502 -0.41713622850E+02 -0.98950944806E+02  0.11355977772E+03  0.15636249206E+03  0.47000000000E+01 0.  1.
        -11    1    1    2    0    0  0.40558934882E+02  0.50023770879E+02  0.15600773574E+02  0.66263028815E+02  0.00000000000E+00 0.  1.
         11    1    1    2    0    0 -0.42645370613E+02  0.10797743327E+03  0.62526588212E+02  0.13186101760E+03  0.00000000000E+00 0. -1.
<mgrwt>
<rscale>  0 0.19643649E+03</rscale>
<asrwt>0</asrwt>
<pdfrwt beam="1">  1        2 0.47494269E-01 0.20147319E+03</pdfrwt>
<pdfrwt beam="2">  1       -2 0.18382495E-01 0.20147319E+03</pdfrwt>
<totfact> 0.25412279E+03</totfact>
</mgrwt>
</event>
<event>
 6    1  0.7457796E-006  0.1595058E+03  0.7546771E-02  0.1196785E+00
          2   -1    0    0  501    0  0.00000000000E+00  0.00000000000E+00  0.73201122974E+03  0.73201122974E+03  0.00000000000E+00 0. -1.
         -2   -1    0    0    0  501 -0.00000000000E+00 -0.00000000000E+00 -0.38093276463E+02  0.38093276463E+02  0.00000000000E+00 0.  1.
          5    1    1    2  502    0 -0.31371169305E+02  0.73838173226E+02  0.10840068805E+03  0.13494082132E+03  0.47000000000E+01 0.  1.
         -5    1    1    2    0  502  0.76826900908E+02  0.14199111689E+02  0.80139655766E+02  0.11201982817E+03  0.47000000000E+01 0.  1.
        -11    1    1    2    0    0  0.91907956567E+01 -0.74316293187E+02  0.22413662635E+03  0.23631464075E+03  0.00000000000E+00 0.  1.
         11    1    1    2    0    0 -0.54646527259E+02 -0.13720991728E+02  0.28124098311E+03  0.28682921597E+03  0.00000000000E+00 0. -1.
<mgrwt>
<rscale>  0 0.15304125E+03</rscale>
<asrwt>0</asrwt>
<pdfrwt beam="1">  1        2 0.11261710E+00 0.15950580E+03</pdfrwt>
<pdfrwt beam="2">  1       -2 0.58605046E-02 0.15950580E+03</pdfrwt>
<totfact> 0.59372552E+03</totfact>
</mgrwt>
</event>
<event>
 6    1  0.7457796E-006  0.1309899E+03  0.7546771E-02  0.1238776E+00
         -1   -1    0    0    0  501 -0.00000000000E+00  0.00000000000E+00  0.27693785418E+03  0.27693785418E+03  0.00000000000E+00 0.  1.
          1   -1    0    0  501    0  0.00000000000E+00 -0.00000000000E+00 -0.64893638173E+02  0.64893638173E+02  0.00000000000E+00 0. -1.
          5    1    1    2  502    0 -0.31316775245E+02  0.72380555476E+02  0.12984258136E+03  0.15198970740E+03  0.47000000000E+01 0. -1.
         -5    1    1    2    0  502 -0.17785432168E+01 -0.51442101313E+02  0.71982295074E+02  0.88617119156E+02  0.47000000000E+01 0. -1.
        -11    1    1    2    0    0  0.14602280241E+02 -0.17140324399E+02  0.51294216978E+02  0.56018871857E+02  0.00000000000E+00 0.  1.
         11    1    1    2    0    0  0.18493038221E+02 -0.37981297636E+01 -0.41074877399E+02  0.45205793939E+02  0.00000000000E+00 0. -1.
<mgrwt>
<rscale>  0 0.12265744E+03</rscale>
<asrwt>0</asrwt>
<pdfrwt beam="2">  1        1 0.99836368E-02 0.13098994E+03</pdfrwt>
<pdfrwt beam="1">  1       -1 0.42605823E-01 0.13098994E+03</pdfrwt>
<totfact> 0.34012222E+03</totfact>
</mgrwt>
</event>
<event>
 6    1  0.7457796E-006  0.1477229E+03  0.7546771E-02  0.1213792E+00
         -2   -1    0    0    0  501 -0.00000000000E+00  0.00000000000E+00  0.41539240322E+03  0.41539240322E+03  0.00000000000E+00 0.  1.
          2   -1    0    0  501    0  0.00000000000E+00 -0.00000000000E+00 -0.44216593456E+02  0.44216593456E+02  0.00000000000E+00 0. -1.
          5    1    1    2  502    0  0.19251851469E+02 -0.57469386248E+02  0.29022569202E+02  0.67362924994E+02  0.47000000000E+01 0.  1.
         -5    1    1    2    0  502 -0.19966865359E+02 -0.21254195791E+02  0.22156788087E+03  0.22352814673E+03  0.47000000000E+01 0.  1.
        -11    1    1    2    0    0  0.11883376571E+02  0.74126157325E+02  0.13215712195E+03  0.15199146924E+03  0.00000000000E+00 0.  1.
         11    1    1    2    0    0 -0.11168362681E+02  0.45974247132E+01 -0.11571762255E+02  0.16726455711E+02  0.00000000000E+00 0. -1.
<mgrwt>
<rscale>  0 0.13965607E+03</rscale>
<asrwt>0</asrwt>
<pdfrwt beam="2">  1        2 0.68025531E-02 0.14772286E+03</pdfrwt>
<pdfrwt beam="1">  1       -2 0.63906521E-01 0.14772286E+03</pdfrwt>
<totfact> 0.23459800E+03</totfact>
</mgrwt>
</event>
<event>
 6    1  0.7457796E-006  0.1262334E+03  0.7546771E-02  0.1248321E+00
          3   -1    0    0  501    0  0.00000000000E+00  0.00000000000E+00  0.20187688292E+03  0.20187688292E+03  0.00000000000E+00 0. -1.
         -3   -1    0    0    0  501 -0.00000000000E+00 -0.00000000000E+00 -0.59520836413E+02  0.59520836413E+02  0.00000000000E+00 0.  1.
          5    1    1    2  502    0  0.39323849216E+02  0.53181998379E+02  0.62261244587E+02  0.90957367191E+02  0.47000000000E+01 0.  1.
         -5    1    1    2    0  502 -0.21792907628E+02 -0.52819012701E+02  0.25263578465E+02  0.62650756759E+02  0.47000000000E+01 0.  1.
        -11    1    1    2    0    0 -0.45510429306E+02 -0.16559134067E+02  0.57703457869E+02  0.75333214100E+02  0.00000000000E+00 0. -1.
         11    1    1    2    0    0  0.27979487718E+02  0.16196148389E+02 -0.28722344129E+01  0.32456381284E+02  0.00000000000E+00 0.  1.
<mgrwt>
<rscale>  0 0.11688787E+03</rscale>
<asrwt>0</asrwt>
<pdfrwt beam="1">  1        3 0.31057982E-01 0.12623336E+03</pdfrwt>
<pdfrwt beam="2">  1       -3 0.91570519E-02 0.12623336E+03</pdfrwt>
<totfact> 0.19456584E+03</totfact>
</mgrwt>
</event>
<event>
 6    1  0.7457796E-006  0.1287191E+03  0.7546771E-02  0.1244874E+00
         -1   -1    0    0    0  501 -0.00000000000E+00  0.00000000000E+00  0.44742071879E+03  0.44742071879E+03  0.00000000000E+00 0. -1.
          1   -1    0    0  501    0  0.00000000000E+00 -0.00000000000E+00 -0.27673312574E+02  0.27673312574E+02  0.00000000000E+00 0.  1.
          5    1    1    2  502    0  0.44565598561E+02  0.28275223738E+02  0.16066116056E+03  0.16917351851E+03  0.47000000000E+01 0. -1.
         -5    1    1    2    0  502 -0.66457013807E+02 -0.67330598188E+01  0.85406376865E+02  0.10852745269E+03  0.47000000000E+01 0. -1.
        -11    1    1    2    0    0  0.34984025127E+02  0.25759062168E+02  0.65470838027E+02  0.78573799258E+02  0.00000000000E+00 0.  1.
         11    1    1    2    0    0 -0.13092609881E+02 -0.47301226087E+02  0.10820903077E+03  0.11881926091E+03  0.00000000000E+00 0. -1.
<mgrwt>
<rscale>  0 0.11892915E+03</rscale>
<asrwt>0</asrwt>
<pdfrwt beam="2">  1        1 0.42574330E-02 0.12871906E+03</pdfrwt>
<pdfrwt beam="1">  1       -1 0.68833952E-01 0.12871906E+03</pdfrwt>
<totfact> 0.44045493E+03</totfact>
</mgrwt>
</event>
<event>
 6    1  0.7457796E-006  0.2141492E+03  0.7546771E-02  0.1141814E+00
          2   -1    0    0  501    0  0.00000000000E+00  0.00000000000E+00  0.43746163524E+03  0.43746163524E+03  0.00000000000E+00 0. -1.
         -2   -1    0    0    0  501 -0.00000000000E+00 -0.00000000000E+00 -0.15879113898E+03  0.15879113898E+03  0.00000000000E+00 0.  1.
          5    1    1    2  502    0 -0.60482750139E+02  0.22280924891E+02  0.35667014151E+02  0.73816180996E+02  0.47000000000E+01 0. -1.
         -5    1    1    2    0  502 -0.11172135288E+03 -0.46384234121E+02 -0.79338499539E+02  0.14474061411E+03  0.47000000000E+01 0. -1.
        -11    1    1    2    0    0  0.10649854993E+03  0.21385722766E+02  0.27776587959E+03  0.29825018716E+03  0.00000000000E+00 0. -1.
         11    1    1    2    0    0  0.65705553091E+02  0.27175864634E+01  0.44576102061E+02  0.79445791947E+02  0.00000000000E+00 0.  1.
<mgrwt>
<rscale>  0 0.20968683E+03</rscale>
<asrwt>0</asrwt>
<pdfrwt beam="1">  1        2 0.67301789E-01 0.21414919E+03</pdfrwt>
<pdfrwt beam="2">  1       -2 0.24429406E-01 0.21414919E+03</pdfrwt>
<totfact> 0.10698964E+03</totfact>
</mgrwt>
</event>
<event>
 6    1  0.7457796E-006  0.3087433E+03  0.7546771E-02  0.1082139E+00
          1   -1    0    0  501    0  0.00000000000E+00  0.00000000000E+00  0.23698191409E+03  0.23698191409E+03  0.00000000000E+00 0. -1.
         -1   -1    0    0    0  501 -0.00000000000E+00 -0.00000000000E+00 -0.39011839137E+03  0.39011839137E+03  0.00000000000E+00 0.  1.
          5    1    1    2  502    0  0.44907232281E+02  0.20709488789E+03 -0.32448870310E+02  0.21442940863E+03  0.47000000000E+01 0.  1.
         -5    1    1    2    0  502 -0.58923306345E+02  0.74864277679E+02 -0.34922919527E+02  0.10157911405E+03  0.47000000000E+01 0.  1.
        -11    1    1    2    0    0  0.38179937803E+02 -0.20378795308E+03 -0.24292626705E+02  0.20875193217E+03  0.00000000000E+00 0. -1.
         11    1    1    2    0    0 -0.24163863739E+02 -0.78171212488E+02 -0.61472060731E+02  0.10233985061E+03  0.00000000000E+00 0.  1.
<mgrwt>
<rscale>  0 0.30628732E+03</rscale>
<asrwt>0</asrwt>
<pdfrwt beam="1">  1        1 0.36458757E-01 0.30874330E+03</pdfrwt>
<pdfrwt beam="2">  1       -1 0.60018213E-01 0.30874330E+03</pdfrwt>
<totfact> 0.34455192E+02</totfact>
</mgrwt>
</event>
<event>
 6    1  0.7457796E-006  0.2559285E+03  0.7546771E-02  0.1109614E+00
          2   -1    0    0  501    0  0.00000000000E+00  0.00000000000E+00  0.14095153935E+03  0.14095153935E+03  0.00000000000E+00 0. -1.
         -2   -1    0    0    0  501 -0.00000000000E+00 -0.00000000000E+00 -0.11617362983E+03  0.11617362983E+03  0.00000000000E+00 0.  1.
          5    1    1    2  502    0  0.14028120810E+02 -0.37327137883E+02  0.21014818557E+02  0.45319046713E+02  0.47000000000E+01 0. -1.
         -5    1    1    2    0  502 -0.72623790574E+02  0.66417820956E+02  0.92259839322E+01  0.98958327984E+02  0.47000000000E+01 0. -1.
        -11    1    1    2    0    0  0.12502849260E+02 -0.57273935934E+02 -0.90749700697E+00  0.58629758040E+02  0.00000000000E+00 0.  1.
         11    1    1    2    0    0  0.46092820504E+02  0.28183252861E+02 -0.45553959665E+01  0.54218036448E+02  0.00000000000E+00 0. -1.
<mgrwt>
<rscale>  0 0.25592852E+03</rscale>
<asrwt>0</asrwt>
<pdfrwt beam="1">  1        2 0.21684852E-01 0.25592852E+03</pdfrwt>
<pdfrwt beam="2">  1       -2 0.17872866E-01 0.25592852E+03</pdfrwt>
<totfact> 0.63703821E+03</totfact>
</mgrwt>
</event>
<event>
 6    1  0.7457796E-006  0.1602738E+03  0.7546771E-02  0.1196104E+00
          2   -1    0    0  501    0  0.00000000000E+00  0.00000000000E+00  0.68337084741E+03  0.68337084741E+03  0.00000000000E+00 0. -1.
         -2   -1    0    0    0  501 -0.00000000000E+00 -0.00000000000E+00 -0.41541917115E+02  0.41541917115E+02  0.00000000000E+00 0.  1.
          5    1    1    2  502    0 -0.63706883217E+00 -0.93760437884E+02  0.86282262666E+02  0.12750742888E+03  0.47000000000E+01 0.  1.
         -5    1    1    2    0  502 -0.63162795580E+02  0.16352164147E+02  0.81834251312E+02  0.10476577068E+03  0.47000000000E+01 0.  1.
        -11    1    1    2    0    0  0.50005506272E+02  0.82946606591E+02  0.46587305056E+03  0.47583441389E+03  0.00000000000E+00 0.  1.
         11    1    1    2    0    0  0.13794358140E+02 -0.55383328547E+01  0.78393657545E+01  0.16805151077E+02  0.00000000000E+00 0. -1.
<mgrwt>
<rscale>  0 0.15361173E+03</rscale>
<asrwt>0</asrwt>
<pdfrwt beam="1">  1        2 0.10513397E+00 0.16027376E+03</pdfrwt>
<pdfrwt beam="2">  1       -2 0.63910647E-02 0.16027376E+03</pdfrwt>
<totfact> 0.56510196E+03</totfact>
</mgrwt>
</event>
<event>
 6    1  0.7457796E-006  0.1362328E+03  0.7546771E-02  0.1230542E+00
         -1   -1    0    0    0  501 -0.00000000000E+00  0.00000000000E+00  0.63711827693E+02  0.63711827693E+02  0.00000000000E+00 0.  1.
          1   -1    0    0  501    0  0.00000000000E+00 -0.00000000000E+00 -0.23526383155E+03  0.23526383155E+03  0.00000000000E+00 0. -1.
          5    1    1    2  502    0  0.16549646406E+02  0.57238986278E+02  0.26536218652E+01  0.59827452355E+02  0.47000000000E+01 0.  1.
         -5    1    1    2    0  502  0.35743549681E+02 -0.43108090504E+02 -0.77139635305E+02  0.95438577869E+02  0.47000000000E+01 0.  1.
        -11    1    1    2    0    0 -0.58849962075E+02  0.26598927034E+02 -0.55617865453E+02  0.85230088074E+02  0.00000000000E+00 0.  1.
         11    1    1    2    0    0  0.65567659874E+01 -0.40729822808E+02 -0.41448124966E+02  0.58479540947E+02  0.00000000000E+00 0. -1.
<mgrwt>
<rscale>  0 0.12794162E+03</rscale>
<asrwt>0</asrwt>
<pdfrwt beam="2">  1        1 0.36194435E-01 0.13623279E+03</pdfrwt>
<pdfrwt beam="1">  1       -1 0.98018197E-02 0.13623279E+03</pdfrwt>
<totfact> 0.71296365E+03</totfact>
</mgrwt>
</event>
<event>
 6    1  0.7457796E-006  0.1296839E+03  0.7546771E-02  0.1240465E+00
         -2   -1    0    0    0  501 -0.00000000000E+00  0.00000000000E+00  0.25857615325E+02  0.25857615325E+02  0.00000000000E+00 0.  1.
          2   -1    0    0  501    0  0.00000000000E+00 -0.00000000000E+00 -0.51148791856E+03  0.51148791856E+03  0.00000000000E+00 0. -1.
          5    1    1    2  502    0 -0.55047106704E+02 -0.45776742831E+02 -0.88199908061E+02  0.11369700050E+03  0.47000000000E+01 0. -1.
         -5    1    1    2    0  502  0.24199003652E+02  0.30238195567E+02 -0.18041007402E+03  0.18458013181E+03  0.47000000000E+01 0. -1.
        -11    1    1    2    0    0 -0.26522301571E+02 -0.12804110559E+02 -0.11441569944E+03  0.11814537657E+03  0.00000000000E+00 0. -1.
         11    1    1    2    0    0  0.57370404623E+02  0.28342657823E+02 -0.10260462171E+03  0.12092302500E+03  0.00000000000E+00 0.  1.
<mgrwt>
<rscale>  0 0.12160941E+03</rscale>
<asrwt>0</asrwt>
<pdfrwt beam="2">  1        2 0.78690454E-01 0.12968394E+03</pdfrwt>
<pdfrwt beam="1">  1       -2 0.39780944E-02 0.12968394E+03</pdfrwt>
<totfact> 0.15828212E+04</totfact>
</mgrwt>
</event>
<event>
 6    1  0.7457796E-006  0.1324869E+03  0.7546771E-02  0.1237196E+00
         -2   -1    0    0    0  501 -0.00000000000E+00  0.00000000000E+00  0.23518911328E+03  0.23518911328E+03  0.00000000000E+00 0. -1.
          2   -1    0    0  501    0  0.00000000000E+00 -0.00000000000E+00 -0.74560402677E+02  0.74560402677E+02  0.00000000000E+00 0.  1.
          5    1    1    2  502    0  0.44414874235E+02 -0.58578934424E+01  0.18032948395E+03  0.18587040849E+03  0.47000000000E+01 0.  1.
         -5    1    1    2    0  502 -0.46620758794E+01 -0.12765156277E+02 -0.18399642297E+02  0.23352109176E+02  0.47000000000E+01 0.  1.
        -11    1    1    2    0    0  0.13887939934E+02 -0.26420899336E+02  0.47378034085E+01  0.30222269578E+02  0.00000000000E+00 0.  1.
         11    1    1    2    0    0 -0.53640738289E+02  0.45043949055E+02 -0.60389344583E+01  0.70304728718E+02  0.00000000000E+00 0. -1.
<mgrwt>
<rscale>  0 0.12364922E+03</rscale>
<asrwt>0</asrwt>
<pdfrwt beam="2">  1        2 0.11470831E-01 0.13248694E+03</pdfrwt>
<pdfrwt beam="1">  1       -2 0.36182940E-01 0.13248694E+03</pdfrwt>
<totfact> 0.37232050E+03</totfact>
</mgrwt>
</event>
<event>
 6    1  0.7457796E-006  0.3709136E+03  0.7546771E-02  0.1055318E+00
         -1   -1    0    0    0  501 -0.00000000000E+00  0.00000000000E+00  0.20661831787E+03  0.20661831787E+03  0.00000000000E+00 0.  1.
          1   -1    0    0  501    0  0.00000000000E+00 -0.00000000000E+00 -0.64910832912E+03  0.64910832912E+03  0.00000000000E+00 0. -1.
          5    1    1    2  502    0  0.87094447989E+02 -0.46167345410E+02 -0.60260048956E+02  0.11562971138E+03  0.47000000000E+01 0. -1.
         -5    1    1    2    0  502  0.26066523623E+03  0.78029417794E+02 -0.18256455244E+03  0.32769934579E+03  0.47000000000E+01 0. -1.
        -11    1    1    2    0    0 -0.42397127614E+02  0.17279475615E+02 -0.53174289183E+02  0.70168381323E+02  0.00000000000E+00 0. -1.
         11    1    1    2    0    0 -0.30536255661E+03 -0.49141547999E+02 -0.14649112067E+03  0.34222920850E+03  0.00000000000E+00 0.  1.
<mgrwt>
<rscale>  0 0.36836910E+03</rscale>
<asrwt>0</asrwt>
<pdfrwt beam="2">  1        1 0.99862819E-01 0.37091356E+03</pdfrwt>
<pdfrwt beam="1">  1       -1 0.31787434E-01 0.37091356E+03</pdfrwt>
<totfact> 0.29063569E+02</totfact>
</mgrwt>
</event>
<event>
 6    1  0.7457796E-006  0.1303313E+03  0.7546771E-02  0.1239959E+00
          1   -1    0    0  501    0  0.00000000000E+00  0.00000000000E+00  0.16764819519E+03  0.16764819519E+03  0.00000000000E+00 0. -1.
         -1   -1    0    0    0  501 -0.00000000000E+00 -0.00000000000E+00 -0.92404991989E+02  0.92404991989E+02  0.00000000000E+00 0.  1.
          5    1    1    2  502    0 -0.41732755297E+02  0.24635649873E+02  0.49331542059E+02  0.69312546853E+02  0.47000000000E+01 0. -1.
         -5    1    1    2    0  502  0.48846686575E+01 -0.22268381373E+02 -0.56624975218E+02  0.61222696897E+02  0.47000000000E+01 0. -1.
        -11    1    1    2    0    0  0.61207706929E+02 -0.25099837498E+02  0.59837753383E+02  0.89201692584E+02  0.00000000000E+00 0. -1.
         11    1    1    2    0    0 -0.24359620290E+02  0.22732568998E+02  0.22698882979E+02  0.40316250848E+02  0.00000000000E+00 0.  1.
<mgrwt>
<rscale>  0 0.12192232E+03</rscale>
<asrwt>0</asrwt>
<pdfrwt beam="1">  1        1 0.25792030E-01 0.13033133E+03</pdfrwt>
<pdfrwt beam="2">  1       -1 0.14216153E-01 0.13033133E+03</pdfrwt>
<totfact> 0.61074380E+03</totfact>
</mgrwt>
</event>
<event>
 6    1  0.7457796E-006  0.1769101E+03  0.7546771E-02  0.1176621E+00
         -1   -1    0    0    0  501 -0.00000000000E+00  0.00000000000E+00  0.37240592294E+02  0.37240592294E+02  0.00000000000E+00 0.  1.
          1   -1    0    0  501    0  0.00000000000E+00 -0.00000000000E+00 -0.74115406492E+03  0.74115406492E+03  0.00000000000E+00 0. -1.
          5    1    1    2  502    0 -0.28504678422E+02  0.48576545525E+02 -0.16678750727E+03  0.17610326529E+03  0.47000000000E+01 0. -1.
         -5    1    1    2    0  502  0.10260516973E+03  0.52326280620E+02 -0.19244396534E+03  0.22432706100E+03  0.47000000000E+01 0. -1.
        -11    1    1    2    0    0 -0.35609942556E+02 -0.31379215771E+02 -0.36986051637E+02  0.60172179676E+02  0.00000000000E+00 0.  1.
         11    1    1    2    0    0 -0.38490548756E+02 -0.69523610374E+02 -0.30769594838E+03  0.31779215125E+03  0.00000000000E+00 0. -1.
<mgrwt>
<rscale>  0 0.17118156E+03</rscale>
<asrwt>0</asrwt>
<pdfrwt beam="2">  1        1 0.11402369E+00 0.17691013E+03</pdfrwt>
<pdfrwt beam="1">  1       -1 0.57293225E-02 0.17691013E+03</pdfrwt>
<totfact> 0.36551678E+03</totfact>
</mgrwt>
</event>
<event>
 6    1  0.7457796E-006  0.1247757E+03  0.7546771E-02  0.1252001E+00
          1   -1    0    0  501    0  0.00000000000E+00  0.00000000000E+00  0.29964352921E+02  0.29964352921E+02  0.00000000000E+00 0. -1.
         -1   -1    0    0    0  501 -0.00000000000E+00 -0.00000000000E+00 -0.38551218116E+03  0.38551218116E+03  0.00000000000E+00 0.  1.
          5    1    1    2  502    0  0.27164130688E+02 -0.38144311225E-01  0.15438037970E+01  0.27610954007E+02  0.47000000000E+01 0. -1.
         -5    1    1    2    0  502 -0.34187671977E+02  0.14097124975E+02 -0.22726408002E+03  0.23030105930E+03  0.47000000000E+01 0.  1.
        -11    1    1    2    0    0 -0.25849616603E+02 -0.34743477746E+02 -0.98729812006E+02  0.10780949728E+03  0.00000000000E+00 0. -1.
         11    1    1    2    0    0  0.32873157891E+02  0.20684497083E+02 -0.31097740009E+02  0.49755023495E+02  0.00000000000E+00 0.  1.
<mgrwt>
<rscale>  0 0.11475962E+03</rscale>
<asrwt>0</asrwt>
<pdfrwt beam="1">  1        1 0.46099003E-02 0.12477565E+03</pdfrwt>
<pdfrwt beam="2">  1       -1 0.59309568E-01 0.12477565E+03</pdfrwt>
<totfact> 0.52500218E+03</totfact>
</mgrwt>
</event>
<event>
 6    1  0.7457796E-006  0.1286394E+03  0.7546771E-02  0.1243079E+00
          4   -1    0    0  501    0  0.00000000000E+00  0.00000000000E+00  0.39508372852E+02  0.39508372852E+02  0.00000000000E+00 0.  1.
         -4   -1    0    0    0  501 -0.00000000000E+00 -0.00000000000E+00 -0.41019889473E+03  0.41019889473E+03  0.00000000000E+00 0. -1.
          5    1    1    2  502    0 -0.21859008384E+02 -0.27261961593E+02 -0.27077713401E+03  0.27306295446E+03  0.47000000000E+01 0.  1.
         -5    1    1    2    0  502 -0.51972689231E+00  0.47796338583E+02 -0.37363417478E+02  0.60851253591E+02  0.47000000000E+01 0.  1.
        -11    1    1    2    0    0 -0.14180621504E+02  0.11673711990E+02 -0.64466661681E+02  0.67032201562E+02  0.00000000000E+00 0. -1.
         11    1    1    2    0    0  0.36559356780E+02 -0.32208088980E+02  0.19166912919E+01  0.48760857965E+02  0.00000000000E+00 0.  1.
<mgrwt>
<rscale>  0 0.12001084E+03</rscale>
<asrwt>0</asrwt>
<pdfrwt beam="1">  1        4 0.60782112E-02 0.12863941E+03</pdfrwt>
<pdfrwt beam="2">  1       -4 0.63107522E-01 0.12863941E+03</pdfrwt>
<totfact> 0.67895890E+02</totfact>
</mgrwt>
</event>
<event>
 6    1  0.7457796E-006  0.1358877E+03  0.7546771E-02  0.1231456E+00
         -1   -1    0    0    0  501 -0.00000000000E+00  0.00000000000E+00  0.19543965174E+03  0.19543965174E+03  0.00000000000E+00 0.  1.
          1   -1    0    0  501    0  0.00000000000E+00 -0.00000000000E+00 -0.74410981241E+02  0.74410981241E+02  0.00000000000E+00 0. -1.
          5    1    1    2  502    0 -0.35533668513E+02 -0.34649244693E+01 -0.34088533732E+02  0.49585939858E+02  0.47000000000E+01 0. -1.
         -5    1    1    2    0  502 -0.11333528260E+02  0.28835961856E+02  0.93700902525E+02  0.98802382021E+02  0.47000000000E+01 0. -1.
        -11    1    1    2    0    0  0.53535453170E+02  0.19791785267E+01 -0.36092607570E+00  0.53573241095E+02  0.00000000000E+00 0. -1.
         11    1    1    2    0    0 -0.66682563974E+01 -0.27350215914E+02  0.61777227781E+02  0.67889070006E+02  0.00000000000E+00 0.  1.
<mgrwt>
<rscale>  0 0.12734032E+03</rscale>
<asrwt>0</asrwt>
<pdfrwt beam="2">  1        1 0.11447843E-01 0.13588767E+03</pdfrwt>
<pdfrwt beam="1">  1       -1 0.30067639E-01 0.13588767E+03</pdfrwt>
<totfact> 0.51864534E+03</totfact>
</mgrwt>
</event>
<event>
 6    1  0.7457796E-006  0.2137168E+03  0.7546771E-02  0.1142165E+00
          1   -1    0    0  501    0  0.00000000000E+00  0.00000000000E+00  0.12908345889E+04  0.12908345889E+04  0.00000000000E+00 0. -1.
         -1   -1    0    0    0  501 -0.00000000000E+00 -0.00000000000E+00 -0.33000837699E+02  0.33000837699E+02  0.00000000000E+00 0.  1.
          5    1    1    2  502    0  0.16642137788E+02 -0.57476639787E+02  0.31236738191E+03  0.31808174445E+03  0.47000000000E+01 0. -1.
         -5    1    1    2    0  502  0.13161649276E+03 -0.32350911952E+02  0.26743903852E+03  0.29985865336E+03  0.47000000000E+01 0. -1.
        -11    1    1    2    0    0 -0.66086861206E+02  0.26136893570E+02  0.13061203856E+03  0.14869470416E+03  0.00000000000E+00 0.  1.
         11    1    1    2    0    0 -0.82171769343E+02  0.63690658169E+02  0.54741529225E+03  0.55720032466E+03  0.00000000000E+00 0. -1.
<mgrwt>
<rscale>  0 0.20924521E+03</rscale>
<asrwt>0</asrwt>
<pdfrwt beam="1">  1        1 0.19858990E+00 0.21371675E+03</pdfrwt>
<pdfrwt beam="2">  1       -1 0.50770529E-02 0.21371675E+03</pdfrwt>
<totfact> 0.17037442E+03</totfact>
</mgrwt>
</event>
<event>
 6    1  0.7457796E-006  0.1155802E+03  0.7546771E-02  0.1269993E+00
         -1   -1    0    0    0  501 -0.00000000000E+00  0.00000000000E+00  0.72254249416E+02  0.72254249416E+02  0.00000000000E+00 0.  1.
          1   -1    0    0  501    0  0.00000000000E+00 -0.00000000000E+00 -0.17430694435E+03  0.17430694435E+03  0.00000000000E+00 0. -1.
          5    1    1    2  502    0  0.60234565038E+02  0.16844779480E+02 -0.91209992788E+01  0.63381638105E+02  0.47000000000E+01 0. -1.
         -5    1    1    2    0  502 -0.50130094994E+02  0.76388026212E+01  0.11573272774E+02  0.52224595472E+02  0.47000000000E+01 0.  1.
        -11    1    1    2    0    0  0.40390506089E+01  0.22296935308E+02 -0.62608055197E+02  0.66582548987E+02  0.00000000000E+00 0. -1.
         11    1    1    2    0    0 -0.14143520653E+02 -0.46780517410E+02 -0.41896913233E+02  0.64372411203E+02  0.00000000000E+00 0.  1.
<mgrwt>
<rscale>  0 0.10506437E+03</rscale>
<asrwt>0</asrwt>
<pdfrwt beam="2">  1        1 0.26816453E-01 0.11558022E+03</pdfrwt>
<pdfrwt beam="1">  1       -1 0.11116038E-01 0.11558022E+03</pdfrwt>
<totfact> 0.84301077E+03</totfact>
</mgrwt>
</event>
<event>
 6    1  0.7457796E-006  0.1333177E+03  0.7546771E-02  0.1235320E+00
         -1   -1    0    0    0  501 -0.00000000000E+00  0.00000000000E+00  0.35680573139E+03  0.35680573139E+03  0.00000000000E+00 0.  1.
          1   -1    0    0  501    0  0.00000000000E+00 -0.00000000000E+00 -0.39117188952E+02  0.39117188952E+02  0.00000000000E+00 0. -1.
          5    1    1    2  502    0 -0.67891153219E+02  0.63773782430E+01  0.71089434627E+02  0.98618848879E+02  0.47000000000E+01 0. -1.
         -5    1    1    2    0  502  0.48455149860E+02  0.35713143105E+02  0.12064826888E+03  0.13491265664E+03  0.47000000000E+01 0. -1.
        -11    1    1    2    0    0  0.30860275574E+02  0.17166960475E+02  0.76907596035E+02  0.84627651913E+02  0.00000000000E+00 0.  1.
         11    1    1    2    0    0 -0.11424272214E+02 -0.59257481823E+02  0.49043242891E+02  0.77763762903E+02  0.00000000000E+00 0. -1.
<mgrwt>
<rscale>  0 0.12483967E+03</rscale>
<asrwt>0</asrwt>
<pdfrwt beam="2">  1        1 0.60180293E-02 0.13331773E+03</pdfrwt>
<pdfrwt beam="1">  1       -1 0.54893187E-01 0.13331773E+03</pdfrwt>
<totfact> 0.42410964E+03</totfact>
</mgrwt>
</event>
<event>
 6    1  0.7457796E-006  0.1384128E+03  0.7546771E-02  0.1227052E+00
          2   -1    0    0  501    0  0.00000000000E+00  0.00000000000E+00  0.39137575233E+03  0.39137575233E+03  0.00000000000E+00 0. -1.
         -2   -1    0    0    0  501 -0.00000000000E+00 -0.00000000000E+00 -0.30892868472E+03  0.30892868472E+03  0.00000000000E+00 0.  1.
          5    1    1    2  502    0 -0.18020354969E+02  0.16745666385E+00  0.83987819788E+01  0.20430143750E+02  0.47000000000E+01 0.  1.
         -5    1    1    2    0  502 -0.40607514390E+02  0.95827686233E+01 -0.29356457952E+03  0.29655193816E+03  0.47000000000E+01 0.  1.
        -11    1    1    2    0    0  0.46174632031E+01 -0.41241131663E+02  0.95627571556E+02  0.10424386960E+03  0.00000000000E+00 0.  1.
         11    1    1    2    0    0  0.54010406156E+02  0.31490906376E+02  0.27198529360E+03  0.27907848554E+03  0.00000000000E+00 0. -1.
<mgrwt>
<rscale>  0 0.13027252E+03</rscale>
<asrwt>0</asrwt>
<pdfrwt beam="1">  1        2 0.60211654E-01 0.13841282E+03</pdfrwt>
<pdfrwt beam="2">  1       -2 0.47527490E-01 0.13841282E+03</pdfrwt>
<totfact> 0.35172600E+02</totfact>
</mgrwt>
</event>
<event>
 6    1  0.7457796E-006  0.1316060E+03  0.7546771E-02  0.1238314E+00
         -4   -1    0    0    0  501 -0.00000000000E+00  0.00000000000E+00  0.88684569970E+02  0.88684569970E+02  0.00000000000E+00 0.  1.
          4   -1    0    0  501    0  0.00000000000E+00 -0.00000000000E+00 -0.15465473593E+03  0.15465473593E+03  0.00000000000E+00 0. -1.
          5    1    1    2  502    0 -0.31134161971E+02  0.42605872443E+02 -0.76473378209E+02  0.93031521449E+02  0.47000000000E+01 0.  1.
         -5    1    1    2    0  502 -0.10056252432E+02 -0.42848772376E+02  0.21968057515E+02  0.49414887009E+02  0.47000000000E+01 0.  1.
        -11    1    1    2    0    0  0.66046829512E+02  0.21895047943E+00 -0.27249967309E+02  0.71447829542E+02  0.00000000000E+00 0. -1.
         11    1    1    2    0    0 -0.24856415108E+02  0.23949453946E-01  0.15785122046E+02  0.29445067899E+02  0.00000000000E+00 0.  1.
<mgrwt>
<rscale>  0 0.12294658E+03</rscale>
<asrwt>0</asrwt>
<pdfrwt beam="2">  1        4 0.23793036E-01 0.13160604E+03</pdfrwt>
<pdfrwt beam="1">  1       -4 0.13643780E-01 0.13160604E+03</pdfrwt>
<totfact> 0.11966892E+03</totfact>
</mgrwt>
</event>
<event>
 6    1  0.7457796E-006  0.1310127E+03  0.7546771E-02  0.1245852E+00
         -2   -1    0    0    0  501 -0.00000000000E+00  0.00000000000E+00  0.30548855971E+02  0.30548855971E+02  0.00000000000E+00 0.  1.
          2   -1    0    0  501    0  0.00000000000E+00 -0.00000000000E+00 -0.41024900473E+03  0.41024900473E+03  0.00000000000E+00 0. -1.
          5    1    1    2  502    0  0.11648812447E+02  0.48209964314E+02 -0.12934009931E+03  0.13860319903E+03  0.47000000000E+01 0. -1.
         -5    1    1    2    0  502 -0.50505496490E+02 -0.42927802243E+02 -0.48420576823E+02  0.82220700806E+02  0.47000000000E+01 0. -1.
        -11    1    1    2    0    0 -0.57668259842E+01 -0.25135399705E+02 -0.23222509200E+02  0.34703451324E+02  0.00000000000E+00 0. -1.
         11    1    1    2    0    0  0.44623510026E+02  0.19853237633E+02 -0.17871696343E+03  0.18527050955E+03  0.00000000000E+00 0.  1.
<mgrwt>
<rscale>  0 0.11834530E+03</rscale>
<asrwt>0</asrwt>
<pdfrwt beam="2">  1        2 0.63115229E-01 0.13101274E+03</pdfrwt>
<pdfrwt beam="1">  1       -2 0.46998242E-02 0.13101274E+03</pdfrwt>
<totfact> 0.15693361E+04</totfact>
</mgrwt>
</event>
<event>
 6    1  0.7457796E-006  0.1301396E+03  0.7546771E-02  0.1241010E+00
          1   -1    0    0  501    0  0.00000000000E+00  0.00000000000E+00  0.26462740001E+02  0.26462740001E+02  0.00000000000E+00 0. -1.
         -1   -1    0    0    0  501 -0.00000000000E+00 -0.00000000000E+00 -0.53896366216E+03  0.53896366216E+03  0.00000000000E+00 0.  1.
          5    1    1    2  502    0  0.97001820271E+01 -0.51412906404E+02 -0.86693438652E+02  0.10136677356E+03  0.47000000000E+01 0.  1.
         -5    1    1    2    0  502 -0.45626276636E+02  0.46928586038E+02 -0.28479790128E+03  0.29226013050E+03  0.47000000000E+01 0.  1.
        -11    1    1    2    0    0  0.28404077282E+02 -0.31702342627E+02 -0.12402037365E+03  0.13112163518E+03  0.00000000000E+00 0.  1.
         11    1    1    2    0    0  0.75220173268E+01  0.36186662993E+02 -0.16989208580E+02  0.40677862916E+02  0.00000000000E+00 0. -1.
<mgrwt>
<rscale>  0 0.12127413E+03</rscale>
<asrwt>0</asrwt>
<pdfrwt beam="1">  1        1 0.40711903E-02 0.13013963E+03</pdfrwt>
<pdfrwt beam="2">  1       -1 0.82917495E-01 0.13013963E+03</pdfrwt>
<totfact> 0.32226190E+03</totfact>
</mgrwt>
</event>
<event>
 6    1  0.7457796E-006  0.3687473E+03  0.7546771E-02  0.1055173E+00
         -1   -1    0    0    0  501 -0.00000000000E+00  0.00000000000E+00  0.19261891416E+03  0.19261891416E+03  0.00000000000E+00 0.  1.
          1   -1    0    0  501    0  0.00000000000E+00 -0.00000000000E+00 -0.17648136442E+03  0.17648136442E+03  0.00000000000E+00 0. -1.
          5    1    1    2  502    0 -0.13179775676E+02 -0.39301116213E+00  0.11389582245E+03  0.11475281833E+03  0.47000000000E+01 0. -1.
         -5    1    1    2    0  502  0.67010368891E+02 -0.44616221739E+02  0.23958310388E+02  0.84125426702E+02  0.47000000000E+01 0. -1.
        -11    1    1    2    0    0 -0.17969656414E+02 -0.28833859728E+02 -0.54034369869E+02  0.63827996566E+02  0.00000000000E+00 0.  1.
         11    1    1    2    0    0 -0.35860936802E+02  0.73843092629E+02 -0.67682213231E+02  0.10639403698E+03  0.00000000000E+00 0. -1.
<mgrwt>
<rscale>  0 0.36874733E+03</rscale>
<asrwt>0</asrwt>
<pdfrwt beam="2">  1        1 0.27150979E-01 0.36874733E+03</pdfrwt>
<pdfrwt beam="1">  1       -1 0.29633679E-01 0.36874733E+03</pdfrwt>
<totfact> 0.18035431E+03</totfact>
</mgrwt>
</event>
<event>
 6    1  0.7457796E-006  0.1960455E+03  0.7546771E-02  0.1160526E+00
          2   -1    0    0  501    0  0.00000000000E+00  0.00000000000E+00  0.62656534798E+03  0.62656534798E+03  0.00000000000E+00 0. -1.
         -2   -1    0    0    0  501 -0.00000000000E+00 -0.00000000000E+00 -0.55546542812E+02  0.55546542812E+02  0.00000000000E+00 0.  1.
          5    1    1    2  502    0  0.67396851167E+02 -0.15103474842E+02  0.17518267771E+03  0.18836536589E+03  0.47000000000E+01 0.  1.
         -5    1    1    2    0  502  0.44541103537E+02 -0.86283288176E+02  0.47117809422E+02  0.10803191051E+03  0.47000000000E+01 0.  1.
        -11    1    1    2    0    0 -0.41115884971E+02  0.41333256453E+02  0.65624050334E+02  0.87780806947E+02  0.00000000000E+00 0.  1.
         11    1    1    2    0    0 -0.70822069734E+02  0.60053506564E+02  0.28309426770E+03  0.29793380744E+03  0.00000000000E+00 0. -1.
<mgrwt>
<rscale>  0 0.18772904E+03</rscale>
<asrwt>0</asrwt>
<pdfrwt beam="1">  1        2 0.96394664E-01 0.19604550E+03</pdfrwt>
<pdfrwt beam="2">  1       -2 0.85456224E-02 0.19604550E+03</pdfrwt>
<totfact> 0.40264808E+03</totfact>
</mgrwt>
</event>
<event>
 6    1  0.7457796E-006  0.1408317E+03  0.7546771E-02  0.1223583E+00
         -2   -1    0    0    0  501 -0.00000000000E+00  0.00000000000E+00  0.24269847401E+02  0.24269847401E+02  0.00000000000E+00 0.  1.
          2   -1    0    0  501    0  0.00000000000E+00 -0.00000000000E+00 -0.65689538605E+03  0.65689538605E+03  0.00000000000E+00 0. -1.
          5    1    1    2  502    0 -0.15122729237E+02 -0.17059441199E+02 -0.26585891435E+03  0.26687595211E+03  0.47000000000E+01 0. -1.
         -5    1    1    2    0  502 -0.68032650392E+01  0.78146131421E+02 -0.11587615467E+03  0.14000884077E+03  0.47000000000E+01 0. -1.
        -11    1    1    2    0    0  0.32976655748E+02 -0.80928259913E+02 -0.21094259367E+03  0.22832788025E+03  0.00000000000E+00 0. -1.
         11    1    1    2    0    0 -0.11050661471E+02  0.19841569690E+02 -0.39947875952E+02  0.45952560318E+02  0.00000000000E+00 0.  1.
<mgrwt>
<rscale>  0 0.13264523E+03</rscale>
<asrwt>0</asrwt>
<pdfrwt beam="2">  1        2 0.10106081E+00 0.14083171E+03</pdfrwt>
<pdfrwt beam="1">  1       -2 0.37338233E-02 0.14083171E+03</pdfrwt>
<totfact> 0.13187229E+04</totfact>
</mgrwt>
</event>
<event>
 6    1  0.7457796E-006  0.1868208E+03  0.7546771E-02  0.1174857E+00
          3   -1    0    0  501    0  0.00000000000E+00  0.00000000000E+00  0.38837807001E+03  0.38837807001E+03  0.00000000000E+00 0. -1.
         -3   -1    0    0    0  501 -0.00000000000E+00 -0.00000000000E+00 -0.17865236106E+03  0.17865236106E+03  0.00000000000E+00 0.  1.
          5    1    1    2  502    0  0.14406148324E+02 -0.37926528762E+02  0.32870616763E+02  0.52426387820E+02  0.47000000000E+01 0. -1.
         -5    1    1    2    0  502  0.79904182728E+02 -0.15217077816E+01 -0.14452619951E+03  0.16521775437E+03  0.47000000000E+01 0.  1.
        -11    1    1    2    0    0 -0.77670710617E+02  0.94250784817E+01  0.29738323808E+03  0.30750343361E+03  0.00000000000E+00 0. -1.
         11    1    1    2    0    0 -0.16639620435E+02  0.30023158062E+02  0.23998053611E+02  0.41882855268E+02  0.00000000000E+00 0.  1.
<mgrwt>
<rscale>  0 0.17289994E+03</rscale>
<asrwt>0</asrwt>
<pdfrwt beam="1">  1        3 0.59750472E-01 0.18682078E+03</pdfrwt>
<pdfrwt beam="2">  1       -3 0.27484979E-01 0.18682078E+03</pdfrwt>
<totfact> 0.85190096E+01</totfact>
</mgrwt>
</event>
<event>
 6    1  0.7457796E-006  0.1443496E+03  0.7546771E-02  0.1217477E+00
          3   -1    0    0  501    0  0.00000000000E+00  0.00000000000E+00  0.71620789615E+03  0.71620789615E+03  0.00000000000E+00 0. -1.
         -3   -1    0    0    0  501 -0.00000000000E+00 -0.00000000000E+00 -0.27243402715E+02  0.27243402715E+02  0.00000000000E+00 0.  1.
          5    1    1    2  502    0  0.58943100027E+02 -0.43950035979E+01  0.18452385375E+03  0.19381627305E+03  0.47000000000E+01 0. -1.
         -5    1    1    2    0  502 -0.28414430798E+02 -0.61007635697E+02  0.60767918780E+02  0.90797254604E+02  0.47000000000E+01 0. -1.
        -11    1    1    2    0    0 -0.76195189642E+01 -0.22933588130E+02  0.65678612453E+02  0.69983474246E+02  0.00000000000E+00 0. -1.
         11    1    1    2    0    0 -0.22909150265E+02  0.88336227425E+02  0.37799410846E+03  0.38885429697E+03  0.00000000000E+00 0.  1.
<mgrwt>
<rscale>  0 0.13696156E+03</rscale>
<asrwt>0</asrwt>
<pdfrwt beam="1">  1        3 0.11018582E+00 0.14434960E+03</pdfrwt>
<pdfrwt beam="2">  1       -3 0.41912933E-02 0.14434960E+03</pdfrwt>
<totfact> 0.51173444E+02</totfact>
</mgrwt>
</event>
<event>
 6    1  0.7457796E-006  0.2727768E+03  0.7546771E-02  0.1101826E+00
          4   -1    0    0  501    0  0.00000000000E+00  0.00000000000E+00  0.34211664907E+02  0.34211664907E+02  0.00000000000E+00 0. -1.
         -4   -1    0    0    0  501 -0.00000000000E+00 -0.00000000000E+00 -0.22276611226E+04  0.22276611226E+04  0.00000000000E+00 0.  1.
          5    1    1    2  502    0 -0.16868937377E+02  0.50942981266E+02 -0.45646614572E+03  0.45963374613E+03  0.47000000000E+01 0. -1.
         -5    1    1    2    0  502 -0.20675543022E+03  0.42725631274E+02 -0.97840012992E+03  0.10009306628E+04  0.47000000000E+01 0. -1.
        -11    1    1    2    0    0  0.11346666257E+03 -0.69795852260E+02 -0.52945814528E+03  0.54595977151E+03  0.00000000000E+00 0.  1.
         11    1    1    2    0    0  0.11015770502E+03 -0.23872760281E+02 -0.22912503677E+03  0.25534860707E+03  0.00000000000E+00 0. -1.
<mgrwt>
<rscale>  0 0.26904681E+03</rscale>
<asrwt>0</asrwt>
<pdfrwt beam="1">  1        4 0.52633343E-02 0.27277677E+03</pdfrwt>
<pdfrwt beam="2">  1       -4 0.34271702E+00 0.27277677E+03</pdfrwt>
<totfact> 0.80914173E+00</totfact>
</mgrwt>
</event>
<event>
 6    1  0.7457796E-006  0.1383075E+03  0.7546771E-02  0.1227497E+00
         -1   -1    0    0    0  501 -0.00000000000E+00  0.00000000000E+00  0.20001242136E+02  0.20001242136E+02  0.00000000000E+00 0.  1.
          1   -1    0    0  501    0  0.00000000000E+00 -0.00000000000E+00 -0.75845119278E+03  0.75845119278E+03  0.00000000000E+00 0. -1.
          5    1    1    2  502    0 -0.81746242373E+01 -0.80424901631E+02 -0.19405414106E+03  0.21027146489E+03  0.47000000000E+01 0. -1.
         -5    1    1    2    0  502  0.40607037814E+02  0.30934322696E+02 -0.23489903131E+03  0.24042776202E+03  0.47000000000E+01 0. -1.
        -11    1    1    2    0    0 -0.14602832883E+02  0.74993600183E+02 -0.23133074194E+03  0.24362100682E+03  0.00000000000E+00 0. -1.
         11    1    1    2    0    0 -0.17829580693E+02 -0.25503021248E+02 -0.78166036338E+02  0.84132201191E+02  0.00000000000E+00 0.  1.
<mgrwt>
<rscale>  0 0.12997207E+03</rscale>
<asrwt>0</asrwt>
<pdfrwt beam="2">  1        1 0.11668480E+00 0.13830752E+03</pdfrwt>
<pdfrwt beam="1">  1       -1 0.30771143E-02 0.13830752E+03</pdfrwt>
<totfact> 0.87457531E+03</totfact>
</mgrwt>
</event>
<event>
 6    1  0.7457796E-006  0.1213849E+03  0.7546771E-02  0.1252697E+00
         -2   -1    0    0    0  501 -0.00000000000E+00  0.00000000000E+00  0.39497427756E+02  0.39497427756E+02  0.00000000000E+00 0. -1.
          2   -1    0    0  501    0  0.00000000000E+00 -0.00000000000E+00 -0.43419429994E+03  0.43419429994E+03  0.00000000000E+00 0.  1.
          5    1    1    2  502    0  0.19675166905E+02 -0.47559922831E+02  0.70632484804E+01  0.52163569007E+02  0.47000000000E+01 0. -1.
         -5    1    1    2    0  502  0.18480952558E+01  0.31258161569E+02 -0.88538027775E+02  0.94029572386E+02  0.47000000000E+01 0.  1.
        -11    1    1    2    0    0  0.33623766114E+02 -0.78313891001E+01 -0.13681686354E+03  0.14110543028E+03  0.00000000000E+00 0. -1.
         11    1    1    2    0    0 -0.55147028275E+02  0.24133150362E+02 -0.17640522935E+03  0.18639315603E+03  0.00000000000E+00 0.  1.
<mgrwt>
<rscale>  0 0.11436280E+03</rscale>
<asrwt>0</asrwt>
<pdfrwt beam="2">  1        2 0.66799125E-01 0.12138490E+03</pdfrwt>
<pdfrwt beam="1">  1       -2 0.60765271E-02 0.12138490E+03</pdfrwt>
<totfact> 0.99745940E+03</totfact>
</mgrwt>
</event>
<event>
 6    1  0.7457796E-006  0.1453918E+03  0.7546771E-02  0.1216393E+00
         -1   -1    0    0    0  501 -0.00000000000E+00  0.00000000000E+00  0.26158578441E+02  0.26158578441E+02  0.00000000000E+00 0.  1.
          1   -1    0    0  501    0  0.00000000000E+00 -0.00000000000E+00 -0.83470537673E+03  0.83470537673E+03  0.00000000000E+00 0. -1.
          5    1    1    2  502    0 -0.47723790161E+01 -0.28638600301E+02 -0.12123548033E+03  0.12475206098E+03  0.47000000000E+01 0. -1.
         -5    1    1    2    0  502  0.90942243354E+01  0.10066700196E+03 -0.12062696637E+03  0.15744683298E+03  0.47000000000E+01 0.  1.
        -11    1    1    2    0    0  0.45587700445E+01  0.22108658611E+02 -0.10590802096E+03  0.10828704481E+03  0.00000000000E+00 0.  1.
         11    1    1    2    0    0 -0.88806153639E+01 -0.94137060267E+02 -0.46077633063E+03  0.47037801640E+03  0.00000000000E+00 0. -1.
<mgrwt>
<rscale>  0 0.13774711E+03</rscale>
<asrwt>0</asrwt>
<pdfrwt beam="2">  1        1 0.12841620E+00 0.14539179E+03</pdfrwt>
<pdfrwt beam="1">  1       -1 0.40243970E-02 0.14539179E+03</pdfrwt>
<totfact> 0.51233729E+03</totfact>
</mgrwt>
</event>
<event>
 6    1  0.7457796E-006  0.1335155E+03  0.7546771E-02  0.1231362E+00
         -2   -1    0    0    0  501 -0.00000000000E+00  0.00000000000E+00  0.47909798589E+02  0.47909798589E+02  0.00000000000E+00 0.  1.
          2   -1    0    0  501    0  0.00000000000E+00 -0.00000000000E+00 -0.35224355185E+03  0.35224355185E+03  0.00000000000E+00 0. -1.
          5    1    1    2  502    0  0.41909131325E+02 -0.34029849949E+02 -0.81525045404E+02  0.97891925122E+02  0.47000000000E+01 0.  1.
         -5    1    1    2    0  502 -0.64273645020E+01  0.64731218900E+02 -0.15168955779E+02  0.66959905422E+02  0.47000000000E+01 0.  1.
        -11    1    1    2    0    0  0.21127373017E+02  0.22682649649E+02 -0.41079449391E+02  0.51462507206E+02  0.00000000000E+00 0.  1.
         11    1    1    2    0    0 -0.56609139840E+02 -0.53384018600E+02 -0.16656030269E+03  0.18383901269E+03  0.00000000000E+00 0. -1.
<mgrwt>
<rscale>  0 0.12740225E+03</rscale>
<asrwt>0</asrwt>
<pdfrwt beam="2">  1        2 0.54191318E-01 0.13351553E+03</pdfrwt>
<pdfrwt beam="1">  1       -2 0.73707379E-02 0.13351553E+03</pdfrwt>
<totfact> 0.93530431E+03</totfact>
</mgrwt>
</event>
<event>
 6    1  0.1023445E-005  0.1745900E+03  0.7546771E-02  0.1179219E+00
         -1   -1    0    0    0  501 -0.00000000000E+00  0.00000000000E+00  0.27313556023E+03  0.27313556023E+03  0.00000000000E+00 0.  1.
          1   -1    0    0  501    0  0.00000000000E+00 -0.00000000000E+00 -0.99460745851E+02  0.99460745851E+02  0.00000000000E+00 0. -1.
          5    1    1    2  502    0  0.72875545210E+02 -0.63880849639E+02  0.10314356588E+03  0.14160612001E+03  0.47000000000E+01 0. -1.
         -5    1    1    2    0  502  0.47839137828E+02  0.47007140448E+02  0.14095292264E+02  0.68695135382E+02  0.47000000000E+01 0. -1.
        -11    1    1    2    0    0 -0.63324407568E+02 -0.25382542448E+02  0.60118496463E+02  0.90931224955E+02  0.00000000000E+00 0.  1.
         11    1    1    2    0    0 -0.57390275471E+02  0.42256251639E+02 -0.36825402318E+01  0.71363825736E+02  0.00000000000E+00 0. -1.
<mgrwt>
<rscale>  0 0.16869194E+03</rscale>
<asrwt>0</asrwt>
<pdfrwt beam="2">  1        1 0.15301653E-01 0.17459000E+03</pdfrwt>
<pdfrwt beam="1">  1       -1 0.42020855E-01 0.17459000E+03</pdfrwt>
<totfact> 0.20156201E+03</totfact>
</mgrwt>
</event>
<event>
 6    1  0.7457796E-006  0.1518339E+03  0.7546771E-02  0.1206444E+00
          1   -1    0    0  501    0  0.00000000000E+00  0.00000000000E+00  0.81759644746E+03  0.81759644746E+03  0.00000000000E+00 0. -1.
         -1   -1    0    0    0  501 -0.00000000000E+00 -0.00000000000E+00 -0.23811065786E+02  0.23811065786E+02  0.00000000000E+00 0.  1.
          5    1    1    2  502    0  0.94532180443E+02 -0.16341830956E+02  0.17670200529E+03  0.20111955960E+03  0.47000000000E+01 0.  1.
         -5    1    1    2    0  502 -0.19065513203E+02 -0.25279766652E+02  0.24502724544E+03  0.24710929041E+03  0.47000000000E+01 0.  1.
        -11    1    1    2    0    0 -0.67337811249E+02  0.30396824253E+02  0.37205511100E+03  0.37931959265E+03  0.00000000000E+00 0. -1.
         11    1    1    2    0    0 -0.81288559915E+01  0.11224773354E+02  0.10199383512E-02  0.13859070590E+02  0.00000000000E+00 0.  1.
<mgrwt>
<rscale>  0 0.14524266E+03</rscale>
<asrwt>0</asrwt>
<pdfrwt beam="1">  1        1 0.12578405E+00 0.15183393E+03</pdfrwt>
<pdfrwt beam="2">  1       -1 0.36632415E-02 0.15183393E+03</pdfrwt>
<totfact> 0.60843055E+03</totfact>
</mgrwt>
</event>
<event>
 6    1  0.7457796E-006  0.1710353E+03  0.7546771E-02  0.1183505E+00
          1   -1    0    0  501    0  0.00000000000E+00  0.00000000000E+00  0.47218737102E+03  0.47218737102E+03  0.00000000000E+00 0. -1.
         -1   -1    0    0    0  501 -0.00000000000E+00 -0.00000000000E+00 -0.54044420316E+02  0.54044420316E+02  0.00000000000E+00 0.  1.
          5    1    1    2  502    0  0.61203834109E+02  0.73258476826E+02  0.72175409420E+02  0.11976682955E+03  0.47000000000E+01 0.  1.
         -5    1    1    2    0  502 -0.48712491422E+02  0.42813308035E+02  0.12767694962E+03  0.14328077201E+03  0.47000000000E+01 0.  1.
        -11    1    1    2    0    0 -0.26404006574E+02 -0.48858424991E+02  0.30757934796E+02  0.63485177866E+02  0.00000000000E+00 0.  1.
         11    1    1    2    0    0  0.13912663887E+02 -0.67213359870E+02  0.18753265687E+03  0.19969901190E+03  0.00000000000E+00 0. -1.
<mgrwt>
<rscale>  0 0.16468691E+03</rscale>
<asrwt>0</asrwt>
<pdfrwt beam="1">  1        1 0.72644208E-01 0.17103530E+03</pdfrwt>
<pdfrwt beam="2">  1       -1 0.83145265E-02 0.17103530E+03</pdfrwt>
<totfact> 0.38692582E+03</totfact>
</mgrwt>
</event>
<event>
 6    1  0.7457796E-006  0.1510776E+03  0.7546771E-02  0.1208412E+00
         -2   -1    0    0    0  501 -0.00000000000E+00  0.00000000000E+00  0.30914312932E+03  0.30914312932E+03  0.00000000000E+00 0.  1.
          2   -1    0    0  501    0  0.00000000000E+00 -0.00000000000E+00 -0.81532008519E+02  0.81532008519E+02  0.00000000000E+00 0. -1.
          5    1    1    2  502    0 -0.15615345711E+02  0.21054654221E+02 -0.54995609431E+01  0.27193246525E+02  0.47000000000E+01 0. -1.
         -5    1    1    2    0  502 -0.64310263452E+02 -0.49526960706E+02  0.22529242702E+03  0.23951512999E+03  0.47000000000E+01 0. -1.
        -11    1    1    2    0    0  0.83576075868E+02  0.35609780061E+01  0.31515199551E+02  0.89391547836E+02  0.00000000000E+00 0.  1.
         11    1    1    2    0    0 -0.36504667049E+01  0.24911328479E+02 -0.23696944825E+02  0.34575213489E+02  0.00000000000E+00 0. -1.
<mgrwt>
<rscale>  0 0.14371765E+03</rscale>
<asrwt>0</asrwt>
<pdfrwt beam="2">  1        2 0.12543386E-01 0.15107764E+03</pdfrwt>
<pdfrwt beam="1">  1       -2 0.47560481E-01 0.15107764E+03</pdfrwt>
<totfact> 0.19988130E+03</totfact>
</mgrwt>
</event>
<event>
 6    1  0.7457796E-006  0.1309782E+03  0.7546771E-02  0.1239835E+00
         -2   -1    0    0    0  501 -0.00000000000E+00  0.00000000000E+00  0.12536484214E+03  0.12536484214E+03  0.00000000000E+00 0.  1.
          2   -1    0    0  501    0  0.00000000000E+00 -0.00000000000E+00 -0.11379992031E+03  0.11379992031E+03  0.00000000000E+00 0. -1.
          5    1    1    2  502    0 -0.31728768886E+02  0.23323495831E+02  0.78325287137E+02  0.87793170793E+02  0.47000000000E+01 0. -1.
         -5    1    1    2    0  502  0.24923226190E+02  0.15179168733E+02 -0.39023926830E+02  0.48954379093E+02  0.47000000000E+01 0. -1.
        -11    1    1    2    0    0 -0.38826428699E+01  0.24565959541E+02  0.11472091571E+02  0.27389234542E+02  0.00000000000E+00 0.  1.
         11    1    1    2    0    0  0.10688185566E+02 -0.63068624105E+02 -0.39208530044E+02  0.75027978017E+02  0.00000000000E+00 0. -1.
<mgrwt>
<rscale>  0 0.12199934E+03</rscale>
<asrwt>0</asrwt>
<pdfrwt beam="2">  1        2 0.17507680E-01 0.13097823E+03</pdfrwt>
<pdfrwt beam="1">  1       -2 0.19286899E-01 0.13097823E+03</pdfrwt>
<totfact> 0.68571181E+03</totfact>
</mgrwt>
</event>
<event>
 6    1  0.7457796E-006  0.1444009E+03  0.7546771E-02  0.1215719E+00
          2   -1    0    0  501    0  0.00000000000E+00  0.00000000000E+00  0.16012839860E+03  0.16012839860E+03  0.00000000000E+00 0. -1.
         -2   -1    0    0    0  501 -0.00000000000E+00 -0.00000000000E+00 -0.14236400501E+03  0.14236400501E+03  0.00000000000E+00 0.  1.
          5    1    1    2  502    0  0.38289938126E+02 -0.17389572868E+01  0.14378416195E+02  0.41206458067E+02  0.47000000000E+01 0. -1.
         -5    1    1    2    0  502 -0.41580376648E+02 -0.76460131172E+02 -0.76569253973E+02  0.11601732644E+03  0.47000000000E+01 0.  1.
        -11    1    1    2    0    0  0.33940632899E+02 -0.12110715509E+01  0.10926059837E+02  0.35676491411E+02  0.00000000000E+00 0.  1.
         11    1    1    2    0    0 -0.30650194377E+02  0.79410160010E+02  0.69029171533E+02  0.10959212769E+03  0.00000000000E+00 0. -1.
<mgrwt>
<rscale>  0 0.13823865E+03</rscale>
<asrwt>0</asrwt>
<pdfrwt beam="1">  1        2 0.24635138E-01 0.14440089E+03</pdfrwt>
<pdfrwt beam="2">  1       -2 0.21902155E-01 0.14440089E+03</pdfrwt>
<totfact> 0.37835907E+03</totfact>
</mgrwt>
</event>
<event>
 6    1  0.7457796E-006  0.1786023E+03  0.7546771E-02  0.1179328E+00
          1   -1    0    0  501    0  0.00000000000E+00  0.00000000000E+00  0.61044468531E+02  0.61044468531E+02  0.00000000000E+00 0. -1.
         -1   -1    0    0    0  501 -0.00000000000E+00 -0.00000000000E+00 -0.93602120812E+03  0.93602120812E+03  0.00000000000E+00 0.  1.
          5    1    1    2  502    0  0.40080062242E+02 -0.12176078388E+03 -0.77368450209E+03  0.78424607022E+03  0.47000000000E+01 0. -1.
         -5    1    1    2    0  502  0.28114194866E+02  0.13952526146E+02 -0.55295706007E+02  0.63755674584E+02  0.47000000000E+01 0. -1.
        -11    1    1    2    0    0 -0.47563298799E+02  0.44942162377E+02 -0.50629662995E+02  0.82737102480E+02  0.00000000000E+00 0. -1.
         11    1    1    2    0    0 -0.20630958309E+02  0.62866095352E+02  0.46331315100E+01  0.66326829362E+02  0.00000000000E+00 0.  1.
<mgrwt>
<rscale>  0 0.16858796E+03</rscale>
<asrwt>0</asrwt>
<pdfrwt beam="1">  1        1 0.93914572E-02 0.17860228E+03</pdfrwt>
<pdfrwt beam="2">  1       -1 0.14400326E+00 0.17860228E+03</pdfrwt>
<totfact> 0.29523389E+02</totfact>
</mgrwt>
</event>
<event>
 6    1  0.7457796E-006  0.1300337E+03  0.7546771E-02  0.1241686E+00
         -1   -1    0    0    0  501 -0.00000000000E+00  0.00000000000E+00  0.57288489886E+03  0.57288489886E+03  0.00000000000E+00 0.  1.
          1   -1    0    0  501    0  0.00000000000E+00 -0.00000000000E+00 -0.22955996418E+02  0.22955996418E+02  0.00000000000E+00 0. -1.
          5    1    1    2  502    0  0.72399209970E+02 -0.35738669145E+02  0.21534795788E+03  0.23003419537E+03  0.47000000000E+01 0.  1.
         -5    1    1    2    0  502 -0.47914317321E+02  0.95893633388E+01  0.14027527700E+03  0.14861689349E+03  0.47000000000E+01 0.  1.
        -11    1    1    2    0    0 -0.15237254913E+02 -0.32337626923E+02  0.95855525459E+02  0.10230433917E+03  0.00000000000E+00 0.  1.
         11    1    1    2    0    0 -0.92476377363E+01  0.58486932730E+02  0.98450142102E+02  0.11488546724E+03  0.00000000000E+00 0. -1.
<mgrwt>
<rscale>  0 0.12085911E+03</rscale>
<asrwt>0</asrwt>
<pdfrwt beam="2">  1        1 0.35316922E-02 0.13003370E+03</pdfrwt>
<pdfrwt beam="1">  1       -1 0.88136128E-01 0.13003370E+03</pdfrwt>
<totfact> 0.34503714E+03</totfact>
</mgrwt>
</event>
<event>
 6    1  0.7457796E-006  0.3729922E+03  0.7546771E-02  0.1054562E+00
         -2   -1    0    0    0  501 -0.00000000000E+00  0.00000000000E+00  0.10038285060E+03  0.10038285060E+03  0.00000000000E+00 0.  1.
          2   -1    0    0  501    0  0.00000000000E+00 -0.00000000000E+00 -0.14341475672E+04  0.14341475672E+04  0.00000000000E+00 0. -1.
          5    1    1    2  502    0  0.70631739004E+02 -0.21429350861E+02 -0.12584012452E+03  0.14596536086E+03  0.47000000000E+01 0. -1.
         -5    1    1    2    0  502  0.13160061206E+03 -0.26597310210E+03 -0.36110615751E+03  0.46741861230E+03  0.47000000000E+01 0. -1.
        -11    1    1    2    0    0 -0.81212173055E+02  0.17363844163E+03 -0.37905225949E+03  0.42476621910E+03  0.00000000000E+00 0.  1.
         11    1    1    2    0    0 -0.12102017801E+03  0.11376401132E+03 -0.46776617507E+03  0.49638022553E+03  0.00000000000E+00 0. -1.
<mgrwt>
<rscale>  0 0.37034213E+03</rscale>
<asrwt>0</asrwt>
<pdfrwt beam="2">  1        2 0.22063808E+00 0.37299225E+03</pdfrwt>
<pdfrwt beam="1">  1       -2 0.15443516E-01 0.37299225E+03</pdfrwt>
<totfact> 0.47945631E+02</totfact>
</mgrwt>
</event>
<event>
 6    1  0.7457796E-006  0.1181448E+03  0.7546771E-02  0.1265640E+00
          1   -1    0    0  501    0  0.00000000000E+00  0.00000000000E+00  0.72709899892E+02  0.72709899892E+02  0.00000000000E+00 0. -1.
         -1   -1    0    0    0  501 -0.00000000000E+00 -0.00000000000E+00 -0.20684200243E+03  0.20684200243E+03  0.00000000000E+00 0.  1.
          5    1    1    2  502    0  0.64576246780E+02  0.37935164396E+01 -0.10196019008E+03  0.12084060897E+03  0.47000000000E+01 0. -1.
         -5    1    1    2    0  502 -0.51216276520E+02 -0.65159536220E+01 -0.54548441141E+02  0.75254149806E+02  0.47000000000E+01 0.  1.
        -11    1    1    2    0    0  0.26215960022E+02 -0.17040935902E+01  0.33059019597E+02  0.42226523318E+02  0.00000000000E+00 0. -1.
         11    1    1    2    0    0 -0.39575930282E+02  0.44265307726E+01 -0.10682490918E+02  0.41230620231E+02  0.00000000000E+00 0.  1.
<mgrwt>
<rscale>  0 0.10730673E+03</rscale>
<asrwt>0</asrwt>
<pdfrwt beam="1">  1        1 0.11186139E-01 0.11814484E+03</pdfrwt>
<pdfrwt beam="2">  1       -1 0.31821846E-01 0.11814484E+03</pdfrwt>
<totfact> 0.48141359E+03</totfact>
</mgrwt>
</event>
<event>
 6    1  0.7457796E-006  0.1545587E+03  0.7546771E-02  0.1204404E+00
         -1   -1    0    0    0  501 -0.00000000000E+00  0.00000000000E+00  0.14807474358E+03  0.14807474358E+03  0.00000000000E+00 0.  1.
          1   -1    0    0  501    0  0.00000000000E+00 -0.00000000000E+00 -0.13339055413E+03  0.13339055413E+03  0.00000000000E+00 0. -1.
          5    1    1    2  502    0  0.49359403281E+02 -0.36433258148E+01  0.69858967764E+02  0.85743745500E+02  0.47000000000E+01 0.  1.
         -5    1    1    2    0  502  0.39681970671E+02  0.22066500386E+02 -0.52750615433E+02  0.69758918169E+02  0.47000000000E+01 0.  1.
        -11    1    1    2    0    0  0.84366939562E+01 -0.22029619358E+02 -0.14474166004E+02  0.27676405393E+02  0.00000000000E+00 0. -1.
         11    1    1    2    0    0 -0.97478067909E+02  0.36064447866E+01  0.12050003122E+02  0.98286228651E+02  0.00000000000E+00 0.  1.
<mgrwt>
<rscale>  0 0.14684540E+03</rscale>
<asrwt>0</asrwt>
<pdfrwt beam="2">  1        1 0.20521624E-01 0.15455867E+03</pdfrwt>
<pdfrwt beam="1">  1       -1 0.22780730E-01 0.15455867E+03</pdfrwt>
<totfact> 0.38848898E+03</totfact>
</mgrwt>
</event>
<event>
 6    1  0.7457796E-006  0.1637858E+03  0.7546771E-02  0.1191716E+00
         -1   -1    0    0    0  501 -0.00000000000E+00  0.00000000000E+00  0.36665538828E+02  0.36665538828E+02  0.00000000000E+00 0.  1.
          1   -1    0    0  501    0  0.00000000000E+00 -0.00000000000E+00 -0.62931704370E+03  0.62931704370E+03  0.00000000000E+00 0. -1.
          5    1    1    2  502    0  0.64936107612E+02 -0.41544837001E+02 -0.24047509853E+03  0.25257283023E+03  0.47000000000E+01 0. -1.
         -5    1    1    2    0  502 -0.31319210229E+02 -0.58837055126E+02 -0.60779826973E+02  0.90327013413E+02  0.47000000000E+01 0. -1.
        -11    1    1    2    0    0 -0.64625746416E+02  0.61710136189E+02 -0.17258417118E+03  0.19434485882E+03  0.00000000000E+00 0.  1.
         11    1    1    2    0    0  0.31008849033E+02  0.38671755938E+02 -0.11881240818E+03  0.12873788006E+03  0.00000000000E+00 0. -1.
<mgrwt>
<rscale>  0 0.15735451E+03</rscale>
<asrwt>0</asrwt>
<pdfrwt beam="2">  1        1 0.96818016E-01 0.16378575E+03</pdfrwt>
<pdfrwt beam="1">  1       -1 0.56408516E-02 0.16378575E+03</pdfrwt>
<totfact> 0.47134630E+03</totfact>
</mgrwt>
</event>
<event>
 6    1  0.7457796E-006  0.1253793E+03  0.7546771E-02  0.1251139E+00
          2   -1    0    0  501    0  0.00000000000E+00  0.00000000000E+00  0.20037573613E+03  0.20037573613E+03  0.00000000000E+00 0. -1.
         -2   -1    0    0    0  501 -0.00000000000E+00 -0.00000000000E+00 -0.11176888894E+03  0.11176888894E+03  0.00000000000E+00 0.  1.
          5    1    1    2  502    0 -0.66565976954E+02  0.10105397179E+02 -0.29831225921E+02  0.73791194461E+02  0.47000000000E+01 0. -1.
         -5    1    1    2    0  502  0.56994971417E+02 -0.84899613572E+01 -0.29903765271E+02  0.65090947051E+02  0.47000000000E+01 0. -1.
        -11    1    1    2    0    0  0.15485490736E+02  0.41819026857E+02  0.88298575638E+02  0.98920523099E+02  0.00000000000E+00 0. -1.
         11    1    1    2    0    0 -0.59144851990E+01 -0.43434462678E+02  0.60043262747E+02  0.74341960457E+02  0.00000000000E+00 0.  1.
<mgrwt>
<rscale>  0 0.11525364E+03</rscale>
<asrwt>0</asrwt>
<pdfrwt beam="1">  1        2 0.30827036E-01 0.12537934E+03</pdfrwt>
<pdfrwt beam="2">  1       -2 0.17195214E-01 0.12537934E+03</pdfrwt>
<totfact> 0.44173972E+03</totfact>
</mgrwt>
</event>
<event>
 6    1  0.7457796E-006  0.3296882E+03  0.7546771E-02  0.1071275E+00
          1   -1    0    0  501    0  0.00000000000E+00  0.00000000000E+00  0.48003071599E+03  0.48003071599E+03  0.00000000000E+00 0. -1.
         -1   -1    0    0    0  501 -0.00000000000E+00 -0.00000000000E+00 -0.56607981329E+02  0.56607981329E+02  0.00000000000E+00 0.  1.
          5    1    1    2  502    0  0.14727853650E+01  0.40786382057E+02  0.61270609081E+02  0.73769069366E+02  0.47000000000E+01 0. -1.
         -5    1    1    2    0  502  0.16592003109E+02 -0.13480063230E+03  0.99509736980E+02  0.16843628703E+03  0.47000000000E+01 0.  1.
        -11    1    1    2    0    0  0.37372053428E+02  0.48720499056E+02  0.11593829074E+03  0.13119468230E+03  0.00000000000E+00 0. -1.
         11    1    1    2    0    0 -0.55436841902E+02  0.45293751188E+02  0.14670409787E+03  0.16323865862E+03  0.00000000000E+00 0.  1.
<mgrwt>
<rscale>  0 0.32968815E+03</rscale>
<asrwt>0</asrwt>
<pdfrwt beam="1">  1        1 0.73850877E-01 0.32968815E+03</pdfrwt>
<pdfrwt beam="2">  1       -1 0.87089205E-02 0.32968815E+03</pdfrwt>
<totfact> 0.36078278E+03</totfact>
</mgrwt>
</event>
<event>
 6    1  0.7457796E-006  0.1520555E+03  0.7546771E-02  0.1206395E+00
         -1   -1    0    0    0  501 -0.00000000000E+00  0.00000000000E+00  0.37888385730E+02  0.37888385730E+02  0.00000000000E+00 0.  1.
          1   -1    0    0  501    0  0.00000000000E+00 -0.00000000000E+00 -0.68639360012E+03  0.68639360012E+03  0.00000000000E+00 0. -1.
          5    1    1    2  502    0 -0.51298406711E+02 -0.38600515103E+02 -0.15752686202E+03  0.17017146810E+03  0.47000000000E+01 0.  1.
         -5    1    1    2    0  502 -0.35249842574E+02  0.39981960128E+02 -0.71742078290E+01  0.53987663361E+02  0.47000000000E+01 0.  1.
        -11    1    1    2    0    0 -0.44696163712E+01 -0.30385118108E+02 -0.10005215686E+03  0.10465976765E+03  0.00000000000E+00 0.  1.
         11    1    1    2    0    0  0.91017865656E+02  0.29003673082E+02 -0.38375198768E+03  0.39546308674E+03  0.00000000000E+00 0. -1.
<mgrwt>
<rscale>  0 0.14528062E+03</rscale>
<asrwt>0</asrwt>
<pdfrwt beam="2">  1        1 0.10559901E+00 0.15205550E+03</pdfrwt>
<pdfrwt beam="1">  1       -1 0.58289828E-02 0.15205550E+03</pdfrwt>
<totfact> 0.39598683E+03</totfact>
</mgrwt>
</event>
<event>
 6    1  0.7457796E-006  0.1375445E+03  0.7546771E-02  0.1228456E+00
         -2   -1    0    0    0  501 -0.00000000000E+00  0.00000000000E+00  0.42718159654E+03  0.42718159654E+03  0.00000000000E+00 0.  1.
          2   -1    0    0  501    0  0.00000000000E+00 -0.00000000000E+00 -0.46930159956E+02  0.46930159956E+02  0.00000000000E+00 0. -1.
          5    1    1    2  502    0  0.21902305350E+02  0.28440409066E+02  0.15312220552E+03  0.15734378816E+03  0.47000000000E+01 0. -1.
         -5    1    1    2    0  502 -0.53769248831E+02 -0.76166888610E+02  0.17258209539E+03  0.19621212167E+03  0.47000000000E+01 0. -1.
        -11    1    1    2    0    0  0.52211020256E+02  0.48192460107E+02  0.66194155637E+02  0.97109062851E+02  0.00000000000E+00 0.  1.
         11    1    1    2    0    0 -0.20344076775E+02 -0.46598056354E+00 -0.11647019960E+02  0.23446783824E+02  0.00000000000E+00 0. -1.
<mgrwt>
<rscale>  0 0.12932851E+03</rscale>
<asrwt>0</asrwt>
<pdfrwt beam="2">  1        2 0.72200249E-02 0.13754450E+03</pdfrwt>
<pdfrwt beam="1">  1       -2 0.65720243E-01 0.13754450E+03</pdfrwt>
<totfact> 0.20428810E+03</totfact>
</mgrwt>
</event>
<event>
 6    1  0.7457796E-006  0.1293992E+03  0.7546771E-02  0.1241585E+00
          1   -1    0    0  501    0  0.00000000000E+00  0.00000000000E+00  0.17651575775E+02  0.17651575775E+02  0.00000000000E+00 0. -1.
         -1   -1    0    0    0  501 -0.00000000000E+00 -0.00000000000E+00 -0.86915339640E+03  0.86915339640E+03  0.00000000000E+00 0.  1.
          5    1    1    2  502    0 -0.19622585845E+02 -0.64440210004E+01 -0.64423099462E+03  0.64457911516E+03  0.47000000000E+01 0.  1.
         -5    1    1    2    0  502 -0.13110157021E+02  0.28915044102E+01 -0.18632134551E+01  0.14345681554E+02  0.47000000000E+01 0.  1.
        -11    1    1    2    0    0  0.43381051685E+01 -0.32986445310E+02 -0.24956726460E+02  0.41590418683E+02  0.00000000000E+00 0. -1.
         11    1    1    2    0    0  0.28394637697E+02  0.36538961900E+02 -0.18045088609E+03  0.18628975677E+03  0.00000000000E+00 0.  1.
<mgrwt>
<rscale>  0 0.12092119E+03</rscale>
<asrwt>0</asrwt>
<pdfrwt beam="1">  1        1 0.27156267E-02 0.12939924E+03</pdfrwt>
<pdfrwt beam="2">  1       -1 0.13371592E+00 0.12939924E+03</pdfrwt>
<totfact> 0.19280837E+03</totfact>
</mgrwt>
</event>
<event>
 6    1  0.7457796E-006  0.1807873E+03  0.7546771E-02  0.1172657E+00
          1   -1    0    0  501    0  0.00000000000E+00  0.00000000000E+00  0.76281910571E+02  0.76281910571E+02  0.00000000000E+00 0. -1.
         -1   -1    0    0    0  501 -0.00000000000E+00 -0.00000000000E+00 -0.48244438852E+03  0.48244438852E+03  0.00000000000E+00 0.  1.
          5    1    1    2  502    0  0.34360345896E+02 -0.51065915945E+02 -0.61609688262E+02  0.87213558746E+02  0.47000000000E+01 0. -1.
         -5    1    1    2    0  502 -0.76444605816E+02 -0.72579339730E+02 -0.28122397957E+03  0.30036736673E+03  0.47000000000E+01 0. -1.
        -11    1    1    2    0    0  0.41849279705E+01  0.41041286934E+02  0.21764947728E+02  0.46643475480E+02  0.00000000000E+00 0. -1.
         11    1    1    2    0    0  0.37899331950E+02  0.82603968742E+02 -0.85093757852E+02  0.12450189814E+03  0.00000000000E+00 0.  1.
<mgrwt>
<rscale>  0 0.17507475E+03</rscale>
<asrwt>0</asrwt>
<pdfrwt beam="1">  1        1 0.11735679E-01 0.18078731E+03</pdfrwt>
<pdfrwt beam="2">  1       -1 0.74222213E-01 0.18078731E+03</pdfrwt>
<totfact> 0.97733577E+02</totfact>
</mgrwt>
</event>
<event>
 6    1  0.7457796E-006  0.1417373E+03  0.7546771E-02  0.1220219E+00
          1   -1    0    0  501    0  0.00000000000E+00  0.00000000000E+00  0.98187107981E+02  0.98187107981E+02  0.00000000000E+00 0. -1.
         -1   -1    0    0    0  501 -0.00000000000E+00 -0.00000000000E+00 -0.17630145100E+03  0.17630145100E+03  0.00000000000E+00 0.  1.
          5    1    1    2  502    0 -0.82548620935E+01 -0.80681990230E+02 -0.70981714983E+02  0.10788058286E+03  0.47000000000E+01 0. -1.
         -5    1    1    2    0  502  0.43194294889E+02  0.23728245477E+02  0.24262066962E+01  0.49565645596E+02  0.47000000000E+01 0. -1.
        -11    1    1    2    0    0 -0.29454609491E+02  0.26528132536E+02 -0.51468082020E+02  0.64963676796E+02  0.00000000000E+00 0.  1.
         11    1    1    2    0    0 -0.54848233042E+01  0.30425612217E+02  0.41909247293E+02  0.52078653728E+02  0.00000000000E+00 0. -1.
<mgrwt>
<rscale>  0 0.13500054E+03</rscale>
<asrwt>0</asrwt>
<pdfrwt beam="1">  1        1 0.15105709E-01 0.14173728E+03</pdfrwt>
<pdfrwt beam="2">  1       -1 0.27123300E-01 0.14173728E+03</pdfrwt>
<totfact> 0.43005852E+03</totfact>
</mgrwt>
</event>
<event>
 6    1  0.7457796E-006  0.1283370E+03  0.7546771E-02  0.1244286E+00
          2   -1    0    0  501    0  0.00000000000E+00  0.00000000000E+00  0.68200815238E+02  0.68200815238E+02  0.00000000000E+00 0. -1.
         -2   -1    0    0    0  501 -0.00000000000E+00 -0.00000000000E+00 -0.18680125761E+03  0.18680125761E+03  0.00000000000E+00 0.  1.
          5    1    1    2  502    0  0.60765605071E+01 -0.14780413637E+02  0.32427919142E+02  0.36456071576E+02  0.47000000000E+01 0.  1.
         -5    1    1    2    0  502 -0.25190321851E+01 -0.14093190267E+02 -0.11537086090E+03  0.11635071586E+03  0.47000000000E+01 0.  1.
        -11    1    1    2    0    0 -0.28140509886E+02  0.53376916019E+02 -0.16526474635E+02  0.62562831011E+02  0.00000000000E+00 0.  1.
         11    1    1    2    0    0  0.24582981564E+02 -0.24503312115E+02 -0.19131025979E+02  0.39632454405E+02  0.00000000000E+00 0. -1.
<mgrwt>
<rscale>  0 0.11928185E+03</rscale>
<asrwt>0</asrwt>
<pdfrwt beam="1">  1        2 0.10492433E-01 0.12833699E+03</pdfrwt>
<pdfrwt beam="2">  1       -2 0.28738654E-01 0.12833699E+03</pdfrwt>
<totfact> 0.62931538E+03</totfact>
</mgrwt>
</event>
<event>
 6    1  0.7457796E-006  0.2098523E+03  0.7546771E-02  0.1145428E+00
          2   -1    0    0  501    0  0.00000000000E+00  0.00000000000E+00  0.46359068024E+02  0.46359068024E+02  0.00000000000E+00 0. -1.
         -2   -1    0    0    0  501 -0.00000000000E+00 -0.00000000000E+00 -0.98748953842E+03  0.98748953842E+03  0.00000000000E+00 0.  1.
          5    1    1    2  502    0 -0.65475896475E+02  0.55136275334E+02 -0.20418122984E+03  0.22144788664E+03  0.47000000000E+01 0. -1.
         -5    1    1    2    0  502 -0.10305673043E+03 -0.58582556270E+02 -0.46302030262E+03  0.47797750598E+03  0.47000000000E+01 0. -1.
        -11    1    1    2    0    0  0.17754841908E+02  0.67507875664E+01 -0.11018117854E+03  0.11180652775E+03  0.00000000000E+00 0.  1.
         11    1    1    2    0    0  0.15077778499E+03 -0.33045066303E+01 -0.16374775940E+03  0.22261668608E+03  0.00000000000E+00 0. -1.
<mgrwt>
<rscale>  0 0.20519605E+03</rscale>
<asrwt>0</asrwt>
<pdfrwt beam="1">  1        2 0.71321644E-02 0.20985232E+03</pdfrwt>
<pdfrwt beam="2">  1       -2 0.15192147E+00 0.20985232E+03</pdfrwt>
<totfact> 0.30156332E+02</totfact>
</mgrwt>
</event>
<event>
 6    1  0.7457796E-006  0.1755323E+03  0.7546771E-02  0.1177967E+00
          2   -1    0    0  501    0  0.00000000000E+00  0.00000000000E+00  0.43316993728E+03  0.43316993728E+03  0.00000000000E+00 0. -1.
         -2   -1    0    0    0  501 -0.00000000000E+00 -0.00000000000E+00 -0.74355126913E+02  0.74355126913E+02  0.00000000000E+00 0.  1.
          5    1    1    2  502    0 -0.30023570937E+01 -0.13315757650E+02 -0.69172582824E+01  0.16008185783E+02  0.47000000000E+01 0.  1.
         -5    1    1    2    0  502 -0.10775556974E+03  0.67344907854E+02  0.29658217171E+03  0.32269129830E+03  0.47000000000E+01 0.  1.
        -11    1    1    2    0    0  0.12498498593E+03 -0.39151611098E+02  0.48492216307E+02  0.13966241585E+03  0.00000000000E+00 0.  1.
         11    1    1    2    0    0 -0.14227059099E+02 -0.14877539106E+02  0.20657680637E+02  0.29163164262E+02  0.00000000000E+00 0. -1.
<mgrwt>
<rscale>  0 0.16988612E+03</rscale>
<asrwt>0</asrwt>
<pdfrwt beam="1">  1        2 0.66641527E-01 0.17553227E+03</pdfrwt>
<pdfrwt beam="2">  1       -2 0.11439251E-01 0.17553227E+03</pdfrwt>
<totfact> 0.38233868E+03</totfact>
</mgrwt>
</event>
<event>
 6    1  0.7457796E-006  0.1254301E+03  0.7546771E-02  0.1249810E+00
         -1   -1    0    0    0  501 -0.00000000000E+00  0.00000000000E+00  0.35146211697E+02  0.35146211697E+02  0.00000000000E+00 0.  1.
          1   -1    0    0  501    0  0.00000000000E+00 -0.00000000000E+00 -0.34290075926E+03  0.34290075926E+03  0.00000000000E+00 0. -1.
          5    1    1    2  502    0  0.26147666714E+02 -0.33018714499E+02 -0.15424457492E+03  0.15996066665E+03  0.47000000000E+01 0.  1.
         -5    1    1    2    0  502 -0.15907391951E+02  0.31341260425E+02  0.40840643495E+01  0.35694387588E+02  0.47000000000E+01 0.  1.
        -11    1    1    2    0    0  0.24967753839E+02 -0.11194563216E+02 -0.13682825842E+03  0.13953737593E+03  0.00000000000E+00 0. -1.
         11    1    1    2    0    0 -0.35208028602E+02  0.12872017289E+02 -0.20765778567E+02  0.42854540794E+02  0.00000000000E+00 0.  1.
<mgrwt>
<rscale>  0 0.11602081E+03</rscale>
<asrwt>0</asrwt>
<pdfrwt beam="2">  1        1 0.52753964E-01 0.12543015E+03</pdfrwt>
<pdfrwt beam="1">  1       -1 0.54071094E-02 0.12543015E+03</pdfrwt>
<totfact> 0.10861857E+04</totfact>
</mgrwt>
</event>
<event>
 6    1  0.7457796E-006  0.3281409E+03  0.7546771E-02  0.1073221E+00
         -3   -1    0    0    0  501 -0.00000000000E+00  0.00000000000E+00  0.78324801167E+02  0.78324801167E+02  0.00000000000E+00 0.  1.
          3   -1    0    0  501    0  0.00000000000E+00 -0.00000000000E+00 -0.13754638163E+04  0.13754638163E+04  0.00000000000E+00 0. -1.
          5    1    1    2  502    0 -0.26689659790E+03  0.11828320800E+03 -0.63542721316E+03  0.69929574894E+03  0.47000000000E+01 0. -1.
         -5    1    1    2    0  502 -0.16770758615E+02 -0.10656982612E+02 -0.15793697979E+03  0.15925140253E+03  0.47000000000E+01 0. -1.
        -11    1    1    2    0    0  0.96684175248E+02 -0.21160341689E+02 -0.93515501173E+02  0.13616438140E+03  0.00000000000E+00 0. -1.
         11    1    1    2    0    0  0.18698318127E+03 -0.86465883699E+02 -0.41025932105E+03  0.45907708462E+03  0.00000000000E+00 0.  1.
<mgrwt>
<rscale>  0 0.32533341E+03</rscale>
<asrwt>0</asrwt>
<pdfrwt beam="2">  1        3 0.21160981E+00 0.32814093E+03</pdfrwt>
<pdfrwt beam="1">  1       -3 0.12049970E-01 0.32814093E+03</pdfrwt>
<totfact> 0.18418661E+01</totfact>
</mgrwt>
</event>
<event>
 6    1  0.7457796E-006  0.1448928E+03  0.7546771E-02  0.1216632E+00
         -1   -1    0    0    0  501 -0.00000000000E+00  0.00000000000E+00  0.12638091255E+04  0.12638091255E+04  0.00000000000E+00 0.  1.
          1   -1    0    0  501    0  0.00000000000E+00 -0.00000000000E+00 -0.20937578906E+02  0.20937578906E+02  0.00000000000E+00 0. -1.
          5    1    1    2  502    0 -0.36084706406E+02 -0.11617515833E+02  0.73951775602E+03  0.74050366250E+03  0.47000000000E+01 0. -1.
         -5    1    1    2    0  502 -0.19340672644E+01  0.74247813058E+02  0.30150626603E+03  0.31055530395E+03  0.47000000000E+01 0. -1.
        -11    1    1    2    0    0  0.45960287885E+02 -0.31136662951E+02  0.19182589037E+03  0.19969730108E+03  0.00000000000E+00 0.  1.
         11    1    1    2    0    0 -0.79415142152E+01 -0.31493634274E+02  0.10021634193E+02  0.33990436886E+02  0.00000000000E+00 0. -1.
<mgrwt>
<rscale>  0 0.13757360E+03</rscale>
<asrwt>0</asrwt>
<pdfrwt beam="2">  1        1 0.32211670E-02 0.14489284E+03</pdfrwt>
<pdfrwt beam="1">  1       -1 0.19443211E+00 0.14489284E+03</pdfrwt>
<totfact> 0.55701216E+02</totfact>
</mgrwt>
</event>
<event>
 6    1  0.7457796E-006  0.1344249E+03  0.7546771E-02  0.1233531E+00
          1   -1    0    0  501    0  0.00000000000E+00  0.00000000000E+00  0.34827441229E+03  0.34827441229E+03  0.00000000000E+00 0.  1.
         -1   -1    0    0    0  501 -0.00000000000E+00 -0.00000000000E+00 -0.40818582646E+02  0.40818582646E+02  0.00000000000E+00 0. -1.
          5    1    1    2  502    0 -0.41635101603E+02  0.11625302712E+02  0.46689082903E+02  0.63801174056E+02  0.47000000000E+01 0. -1.
         -5    1    1    2    0  502  0.79231195602E+02 -0.43801470844E+02  0.11697310348E+03  0.14798968931E+03  0.47000000000E+01 0. -1.
        -11    1    1    2    0    0 -0.24300384366E+02  0.26567553548E+02  0.15493993502E+03  0.15906830937E+03  0.00000000000E+00 0.  1.
         11    1    1    2    0    0 -0.13295709633E+02  0.56086145843E+01 -0.11146291755E+02  0.18233822201E+02  0.00000000000E+00 0. -1.
<mgrwt>
<rscale>  0 0.12598926E+03</rscale>
<asrwt>0</asrwt>
<pdfrwt beam="1">  1        1 0.53580677E-01 0.13442492E+03</pdfrwt>
<pdfrwt beam="2">  1       -1 0.62797822E-02 0.13442492E+03</pdfrwt>
<totfact> 0.85741392E+03</totfact>
</mgrwt>
</event>
<event>
 6    1  0.7457796E-006  0.1372411E+03  0.7546771E-02  0.1228439E+00
          1   -1    0    0  501    0  0.00000000000E+00  0.00000000000E+00  0.36343281288E+03  0.36343281288E+03  0.00000000000E+00 0. -1.
         -1   -1    0    0    0  501 -0.00000000000E+00 -0.00000000000E+00 -0.45896997182E+02  0.45896997182E+02  0.00000000000E+00 0.  1.
          5    1    1    2  502    0 -0.21860365567E+02  0.41994166925E+02 -0.10290186985E+02  0.48676108992E+02  0.47000000000E+01 0. -1.
         -5    1    1    2    0  502  0.36419377511E+02  0.12725132265E+02  0.12275339399E+03  0.12875863383E+03  0.47000000000E+01 0. -1.
        -11    1    1    2    0    0 -0.44389768794E+02 -0.56749560515E+02  0.10419016925E+03  0.12667499974E+03  0.00000000000E+00 0.  1.
         11    1    1    2    0    0  0.29830756850E+02  0.20302613255E+01  0.10088243945E+03  0.10522006750E+03  0.00000000000E+00 0. -1.
<mgrwt>
<rscale>  0 0.12933962E+03</rscale>
<asrwt>0</asrwt>
<pdfrwt beam="1">  1        1 0.55912738E-01 0.13724108E+03</pdfrwt>
<pdfrwt beam="2">  1       -1 0.70610767E-02 0.13724108E+03</pdfrwt>
<totfact> 0.68309387E+03</totfact>
</mgrwt>
</event>
<event>
 6    1  0.7457796E-006  0.1353258E+03  0.7546771E-02  0.1231817E+00
         -1   -1    0    0    0  501 -0.00000000000E+00  0.00000000000E+00  0.91872973072E+02  0.91872973072E+02  0.00000000000E+00 0.  1.
          1   -1    0    0  501    0  0.00000000000E+00 -0.00000000000E+00 -0.15769129164E+03  0.15769129164E+03  0.00000000000E+00 0. -1.
          5    1    1    2  502    0  0.10001224316E+02  0.22866101851E+02  0.43086993459E+02  0.50014618933E+02  0.47000000000E+01 0.  1.
         -5    1    1    2    0  502 -0.24899805657E+02  0.26792787105E+02 -0.83397975868E+02  0.91187532818E+02  0.47000000000E+01 0.  1.
        -11    1    1    2    0    0 -0.26258418004E+02 -0.35533844529E+02  0.17180358670E+02  0.47405942107E+02  0.00000000000E+00 0.  1.
         11    1    1    2    0    0  0.41156999345E+02 -0.14125044428E+02 -0.42687694827E+02  0.60956170851E+02  0.00000000000E+00 0. -1.
<mgrwt>
<rscale>  0 0.12710433E+03</rscale>
<asrwt>0</asrwt>
<pdfrwt beam="2">  1        1 0.24260199E-01 0.13532580E+03</pdfrwt>
<pdfrwt beam="1">  1       -1 0.14134304E-01 0.13532580E+03</pdfrwt>
<totfact> 0.66716898E+03</totfact>
</mgrwt>
</event>
<event>
 6    1  0.7457796E-006  0.1929890E+03  0.7546771E-02  0.1160571E+00
         -2   -1    0    0    0  501 -0.00000000000E+00  0.00000000000E+00  0.36274983944E+02  0.36274983944E+02  0.00000000000E+00 0.  1.
          2   -1    0    0  501    0  0.00000000000E+00 -0.00000000000E+00 -0.99612696101E+03  0.99612696101E+03  0.00000000000E+00 0. -1.
          5    1    1    2  502    0 -0.18417260652E+02  0.25450963413E+02 -0.24068917578E+03  0.24277626813E+03  0.47000000000E+01 0. -1.
         -5    1    1    2    0  502 -0.68054337100E+02  0.93480593179E+02 -0.12259303468E+03  0.16858575341E+03  0.47000000000E+01 0. -1.
        -11    1    1    2    0    0  0.42587561226E+02 -0.37052349169E+01 -0.23939575364E+03  0.24318255693E+03  0.00000000000E+00 0. -1.
         11    1    1    2    0    0  0.43884036525E+02 -0.11522632168E+03 -0.35717401297E+03  0.37785736649E+03  0.00000000000E+00 0.  1.
<mgrwt>
<rscale>  0 0.18767979E+03</rscale>
<asrwt>0</asrwt>
<pdfrwt beam="2">  1        2 0.15325029E+00 0.19298898E+03</pdfrwt>
<pdfrwt beam="1">  1       -2 0.55807671E-02 0.19298898E+03</pdfrwt>
<totfact> 0.43220757E+03</totfact>
</mgrwt>
</event>
<event>
 6    1  0.7457796E-006  0.1491797E+03  0.7546771E-02  0.1210738E+00
         -2   -1    0    0    0  501 -0.00000000000E+00  0.00000000000E+00  0.32953719863E+02  0.32953719863E+02  0.00000000000E+00 0.  1.
          2   -1    0    0  501    0  0.00000000000E+00 -0.00000000000E+00 -0.55954120154E+03  0.55954120154E+03  0.00000000000E+00 0. -1.
          5    1    1    2  502    0  0.49096020821E+02  0.20531891390E+02 -0.56531793903E+02  0.77781177327E+02  0.47000000000E+01 0. -1.
         -5    1    1    2    0  502 -0.58238058724E+00 -0.85917471574E+02 -0.22381192738E+03  0.23978327700E+03  0.47000000000E+01 0. -1.
        -11    1    1    2    0    0 -0.18320169786E+02  0.63357035619E+02 -0.23253797728E+03  0.24170985388E+03  0.00000000000E+00 0. -1.
         11    1    1    2    0    0 -0.30193470448E+02  0.20285445658E+01 -0.13705783110E+02  0.33220613200E+02  0.00000000000E+00 0.  1.
<mgrwt>
<rscale>  0 0.14194341E+03</rscale>
<asrwt>0</asrwt>
<pdfrwt beam="2">  1        2 0.86083264E-01 0.14917969E+03</pdfrwt>
<pdfrwt beam="1">  1       -2 0.50698029E-02 0.14917969E+03</pdfrwt>
<totfact> 0.10071117E+04</totfact>
</mgrwt>
</event>
<event>
 6    1  0.7457796E-006  0.5509482E+03  0.7546771E-02  0.1001275E+00
          2   -1    0    0  501    0  0.00000000000E+00  0.00000000000E+00  0.85670573545E+03  0.85670573545E+03  0.00000000000E+00 0. -1.
         -2   -1    0    0    0  501 -0.00000000000E+00 -0.00000000000E+00 -0.88578803385E+02  0.88578803385E+02  0.00000000000E+00 0.  1.
          5    1    1    2  502    0  0.10119173660E+02 -0.94657915283E+01 -0.40393771134E+01  0.15179112368E+02  0.47000000000E+01 0. -1.
         -5    1    1    2    0  502 -0.18783316761E+03 -0.12720847643E+03  0.19887446472E+03  0.30172245201E+03  0.47000000000E+01 0.  1.
        -11    1    1    2    0    0  0.29250022087E+02  0.34819250913E+02  0.26323165353E+02  0.52543820383E+02  0.00000000000E+00 0.  1.
         11    1    1    2    0    0  0.14846397186E+03  0.10185501705E+03  0.54696867911E+03  0.57583915407E+03  0.00000000000E+00 0. -1.
<mgrwt>
<rscale>  0 0.55094816E+03</rscale>
<asrwt>0</asrwt>
<pdfrwt beam="1">  1        2 0.13180088E+00 0.55094816E+03</pdfrwt>
<pdfrwt beam="2">  1       -2 0.13627509E-01 0.55094816E+03</pdfrwt>
<totfact> 0.12997632E+03</totfact>
</mgrwt>
</event>
<event>
 6    1  0.7457796E-006  0.3138383E+03  0.7546771E-02  0.1079926E+00
          2   -1    0    0  501    0  0.00000000000E+00  0.00000000000E+00  0.31744159158E+04  0.31744159158E+04  0.00000000000E+00 0. -1.
         -2   -1    0    0    0  501 -0.00000000000E+00 -0.00000000000E+00 -0.30057236688E+02  0.30057236688E+02  0.00000000000E+00 0.  1.
          5    1    1    2  502    0  0.22053884206E+02  0.27813435825E+02  0.15381368718E+03  0.15792625299E+03  0.47000000000E+01 0.  1.
         -5    1    1    2    0  502  0.25341931854E+03 -0.11138008008E+03  0.15696895935E+04  0.15939179349E+04  0.47000000000E+01 0.  1.
        -11    1    1    2    0    0 -0.31576865476E+02  0.26973168775E+02  0.10047070992E+03  0.10871528788E+03  0.00000000000E+00 0.  1.
         11    1    1    2    0    0 -0.24389633727E+03  0.56593475477E+02  0.13203846885E+04  0.13439136767E+04  0.00000000000E+00 0. -1.
<mgrwt>
<rscale>  0 0.31087718E+03</rscale>
<asrwt>0</asrwt>
<pdfrwt beam="1">  1        2 0.48837141E+00 0.31383833E+03</pdfrwt>
<pdfrwt beam="2">  1       -2 0.46241928E-02 0.31383833E+03</pdfrwt>
<totfact> 0.35683588E+02</totfact>
</mgrwt>
</event>
<event>
 6    1  0.7457796E-006  0.2767983E+03  0.7546771E-02  0.1097451E+00
          1   -1    0    0  501    0  0.00000000000E+00  0.00000000000E+00  0.27951964467E+03  0.27951964467E+03  0.00000000000E+00 0. -1.
         -1   -1    0    0    0  501 -0.00000000000E+00 -0.00000000000E+00 -0.68525885928E+02  0.68525885928E+02  0.00000000000E+00 0.  1.
          5    1    1    2  502    0 -0.31642060615E+01 -0.10454511668E+03  0.37991959417E+02  0.11137851050E+03  0.47000000000E+01 0. -1.
         -5    1    1    2    0  502 -0.16383767850E+01  0.19124502700E+02  0.75083348782E+02  0.77640389916E+02  0.47000000000E+01 0. -1.
        -11    1    1    2    0    0 -0.13079141525E+02  0.22183492845E+02 -0.13946920988E+02  0.29286309137E+02  0.00000000000E+00 0.  1.
         11    1    1    2    0    0  0.17881724371E+02  0.63237121136E+02  0.11186537153E+03  0.12974032104E+03  0.00000000000E+00 0. -1.
<mgrwt>
<rscale>  0 0.27679835E+03</rscale>
<asrwt>0</asrwt>
<pdfrwt beam="1">  1        1 0.43003022E-01 0.27679835E+03</pdfrwt>
<pdfrwt beam="2">  1       -1 0.10542444E-01 0.27679835E+03</pdfrwt>
<totfact> 0.53462809E+03</totfact>
</mgrwt>
</event>
<event>
 6    1  0.7457796E-006  0.1451865E+03  0.7546771E-02  0.1216366E+00
         -2   -1    0    0    0  501 -0.00000000000E+00  0.00000000000E+00  0.54529098220E+02  0.54529098220E+02  0.00000000000E+00 0.  1.
          2   -1    0    0  501    0  0.00000000000E+00 -0.00000000000E+00 -0.42632950990E+03  0.42632950990E+03  0.00000000000E+00 0. -1.
          5    1    1    2  502    0 -0.47908112044E+01  0.35135355517E+02 -0.10855444107E+03  0.11429611435E+03  0.47000000000E+01 0. -1.
         -5    1    1    2    0  502 -0.40646595922E+02 -0.72911843697E+01  0.29548068286E+02  0.50994955329E+02  0.47000000000E+01 0.  1.
        -11    1    1    2    0    0 -0.27907451416E+02 -0.29151508392E+02 -0.67633523463E+02  0.78758680678E+02  0.00000000000E+00 0.  1.
         11    1    1    2    0    0  0.73344858543E+02  0.13073372449E+01 -0.22516051543E+03  0.23680885776E+03  0.00000000000E+00 0. -1.
<mgrwt>
<rscale>  0 0.13776653E+03</rscale>
<asrwt>0</asrwt>
<pdfrwt beam="2">  1        2 0.65589157E-01 0.14518654E+03</pdfrwt>
<pdfrwt beam="1">  1       -2 0.83890918E-02 0.14518654E+03</pdfrwt>
<totfact> 0.62800792E+03</totfact>
</mgrwt>
</event>
<event>
 6    1  0.7457796E-006  0.1522105E+03  0.7546771E-02  0.1207509E+00
         -2   -1    0    0    0  501 -0.00000000000E+00  0.00000000000E+00  0.13722884851E+03  0.13722884851E+03  0.00000000000E+00 0.  1.
          2   -1    0    0  501    0  0.00000000000E+00 -0.00000000000E+00 -0.21864494117E+03  0.21864494117E+03  0.00000000000E+00 0. -1.
          5    1    1    2  502    0 -0.27868213105E+02 -0.77448659348E+02 -0.63557163912E+00  0.82446504400E+02  0.47000000000E+01 0.  1.
         -5    1    1    2    0  502  0.50894043798E+02 -0.63519928804E+01  0.64700359763E+02  0.82696904786E+02  0.47000000000E+01 0.  1.
        -11    1    1    2    0    0 -0.19878663464E+02  0.50693691335E+02 -0.15575568054E+02  0.56635765400E+02  0.00000000000E+00 0.  1.
         11    1    1    2    0    0 -0.31471672296E+01  0.33106960894E+02 -0.12990531273E+03  0.13409461510E+03  0.00000000000E+00 0. -1.
<mgrwt>
<rscale>  0 0.14441483E+03</rscale>
<asrwt>0</asrwt>
<pdfrwt beam="2">  1        2 0.33637683E-01 0.15221054E+03</pdfrwt>
<pdfrwt beam="1">  1       -2 0.21112131E-01 0.15221054E+03</pdfrwt>
<totfact> 0.28762109E+03</totfact>
</mgrwt>
</event>
<event>
 6    1  0.7457796E-006  0.1637065E+03  0.7546771E-02  0.1191811E+00
          1   -1    0    0  501    0  0.00000000000E+00  0.00000000000E+00  0.82806850682E+03  0.82806850682E+03  0.00000000000E+00 0. -1.
         -1   -1    0    0    0  501 -0.00000000000E+00 -0.00000000000E+00 -0.36142800434E+02  0.36142800434E+02  0.00000000000E+00 0.  1.
          5    1    1    2  502    0  0.50177843547E+02 -0.61654036427E+01  0.14344218967E+03  0.15216300458E+03  0.47000000000E+01 0. -1.
         -5    1    1    2    0  502 -0.12031293764E+02 -0.92415559282E+02  0.69082459123E+02  0.11610281558E+03  0.47000000000E+01 0. -1.
        -11    1    1    2    0    0 -0.68369798226E+02  0.69251950374E+02  0.40008384930E+03  0.41174913286E+03  0.00000000000E+00 0. -1.
         11    1    1    2    0    0  0.30223248444E+02  0.29329012550E+02  0.17931720829E+03  0.18419635424E+03  0.00000000000E+00 0.  1.
<mgrwt>
<rscale>  0 0.15727210E+03</rscale>
<asrwt>0</asrwt>
<pdfrwt beam="1">  1        1 0.12739514E+00 0.16370652E+03</pdfrwt>
<pdfrwt beam="2">  1       -1 0.55604314E-02 0.16370652E+03</pdfrwt>
<totfact> 0.32265969E+03</totfact>
</mgrwt>
</event>
<event>
 6    1  0.7457796E-006  0.1549606E+03  0.7546771E-02  0.1205007E+00
         -2   -1    0    0    0  501 -0.00000000000E+00  0.00000000000E+00  0.81280375461E+03  0.81280375461E+03  0.00000000000E+00 0.  1.
          2   -1    0    0  501    0  0.00000000000E+00 -0.00000000000E+00 -0.24259708289E+02  0.24259708289E+02  0.00000000000E+00 0. -1.
          5    1    1    2  502    0  0.34770709197E+02 -0.31135614674E+02  0.11441635898E+03  0.12365929776E+03  0.47000000000E+01 0. -1.
         -5    1    1    2    0  502 -0.10403951900E+03 -0.28771434502E+02  0.26807966391E+03  0.28903427679E+03  0.47000000000E+01 0. -1.
        -11    1    1    2    0    0  0.12739042679E+02  0.53925105132E+02  0.11293485955E+03  0.12579540005E+03  0.00000000000E+00 0. -1.
         11    1    1    2    0    0  0.56529767126E+02  0.59819440440E+01  0.29311316388E+03  0.29857448830E+03  0.00000000000E+00 0.  1.
<mgrwt>
<rscale>  0 0.14636903E+03</rscale>
<asrwt>0</asrwt>
<pdfrwt beam="2">  1        2 0.37322634E-02 0.15496057E+03</pdfrwt>
<pdfrwt beam="1">  1       -2 0.12504671E+00 0.15496057E+03</pdfrwt>
<totfact> 0.11380363E+03</totfact>
</mgrwt>
</event>
<event>
 6    1  0.7457796E-006  0.1313392E+03  0.7546771E-02  0.1238577E+00
         -2   -1    0    0    0  501 -0.00000000000E+00  0.00000000000E+00  0.43862184155E+03  0.43862184155E+03  0.00000000000E+00 0.  1.
          2   -1    0    0  501    0  0.00000000000E+00 -0.00000000000E+00 -0.39779914325E+02  0.39779914325E+02  0.00000000000E+00 0. -1.
          5    1    1    2  502    0  0.66938311988E+02  0.24024708178E+02  0.26505669342E+03  0.27447233912E+03  0.47000000000E+01 0. -1.
         -5    1    1    2    0  502 -0.47233531039E+02  0.11135545455E+02  0.69099697034E+02  0.84568699631E+02  0.47000000000E+01 0. -1.
        -11    1    1    2    0    0  0.14369825146E+02 -0.36939080917E+02 -0.67389970289E+01  0.40204497941E+02  0.00000000000E+00 0. -1.
         11    1    1    2    0    0 -0.34074606094E+02  0.17788272836E+01  0.71424533798E+02  0.79156219182E+02  0.00000000000E+00 0.  1.
<mgrwt>
<rscale>  0 0.12278217E+03</rscale>
<asrwt>0</asrwt>
<pdfrwt beam="2">  1        2 0.61199871E-02 0.13133916E+03</pdfrwt>
<pdfrwt beam="1">  1       -2 0.67480280E-01 0.13133916E+03</pdfrwt>
<totfact> 0.23799980E+03</totfact>
</mgrwt>
</event>
<event>
 6    1  0.7457796E-006  0.1484426E+03  0.7546771E-02  0.1211935E+00
          2   -1    0    0  501    0  0.00000000000E+00  0.00000000000E+00  0.54017502451E+03  0.54017502451E+03  0.00000000000E+00 0. -1.
         -2   -1    0    0    0  501 -0.00000000000E+00 -0.00000000000E+00 -0.34598953657E+02  0.34598953657E+02  0.00000000000E+00 0.  1.
          5    1    1    2  502    0  0.36493257024E+02 -0.27776089234E+02  0.63768633620E+02  0.78687976052E+02  0.47000000000E+01 0.  1.
         -5    1    1    2    0  502 -0.99693167691E+02 -0.21377106537E+02  0.16531477230E+03  0.19428528588E+03  0.47000000000E+01 0.  1.
        -11    1    1    2    0    0  0.59534210930E+01  0.28013727848E+02  0.13211567413E+02  0.31539779393E+02  0.00000000000E+00 0.  1.
         11    1    1    2    0    0  0.57246489574E+02  0.21139467923E+02  0.26328109751E+03  0.27026093684E+03  0.00000000000E+00 0. -1.
<mgrwt>
<rscale>  0 0.14104078E+03</rscale>
<asrwt>0</asrwt>
<pdfrwt beam="1">  1        2 0.83103844E-01 0.14844256E+03</pdfrwt>
<pdfrwt beam="2">  1       -2 0.53229164E-02 0.14844256E+03</pdfrwt>
<totfact> 0.97312550E+03</totfact>
</mgrwt>
</event>
<event>
 6    1  0.7457796E-006  0.2161462E+03  0.7546771E-02  0.1140253E+00
          1   -1    0    0  501    0  0.00000000000E+00  0.00000000000E+00  0.39812199041E+03  0.39812199041E+03  0.00000000000E+00 0. -1.
         -1   -1    0    0    0  501 -0.00000000000E+00 -0.00000000000E+00 -0.14437083759E+03  0.14437083759E+03  0.00000000000E+00 0.  1.
          5    1    1    2  502    0  0.11773342452E+03 -0.42084127958E+02  0.27407446462E+01  0.12514725230E+03  0.47000000000E+01 0.  1.
         -5    1    1    2    0  502 -0.15782743452E+01 -0.90591549824E+02 -0.77411364283E+01  0.91056768242E+02  0.47000000000E+01 0.  1.
        -11    1    1    2    0    0 -0.10226291299E+03  0.57054306261E+02  0.18977359701E+03  0.22299532587E+03  0.00000000000E+00 0. -1.
         11    1    1    2    0    0 -0.13892237185E+02  0.75621371521E+02  0.68977947592E+02  0.10329348159E+03  0.00000000000E+00 0.  1.
<mgrwt>
<rscale>  0 0.21166636E+03</rscale>
<asrwt>0</asrwt>
<pdfrwt beam="1">  1        1 0.61249537E-01 0.21614619E+03</pdfrwt>
<pdfrwt beam="2">  1       -1 0.22210898E-01 0.21614619E+03</pdfrwt>
<totfact> 0.10338095E+03</totfact>
</mgrwt>
</event>
<event>
 6    1  0.7457796E-006  0.1558351E+03  0.7546771E-02  0.1201588E+00
         -4   -1    0    0    0  501 -0.00000000000E+00  0.00000000000E+00  0.90253398429E+02  0.90253398429E+02  0.00000000000E+00 0.  1.
          4   -1    0    0  501    0  0.00000000000E+00 -0.00000000000E+00 -0.26158803468E+03  0.26158803468E+03  0.00000000000E+00 0. -1.
          5    1    1    2  502    0  0.26367769796E+02 -0.55549588956E+02 -0.45727073685E+02  0.76772855782E+02  0.47000000000E+01 0.  1.
         -5    1    1    2    0  502 -0.76379213092E+02 -0.22926502499E+02  0.17038024770E+02  0.81681044296E+02  0.47000000000E+01 0.  1.
        -11    1    1    2    0    0 -0.22485424468E+02  0.13665310312E+02 -0.83965391812E+01  0.27619501980E+02  0.00000000000E+00 0.  1.
         11    1    1    2    0    0  0.72496867763E+02  0.64810781143E+02 -0.13424904816E+03  0.16576803105E+03  0.00000000000E+00 0. -1.
<mgrwt>
<rscale>  0 0.14909655E+03</rscale>
<asrwt>0</asrwt>
<pdfrwt beam="2">  1        4 0.40244312E-01 0.15583510E+03</pdfrwt>
<pdfrwt beam="1">  1       -4 0.13885139E-01 0.15583510E+03</pdfrwt>
<totfact> 0.44190497E+02</totfact>
</mgrwt>
</event>
<event>
 6    1  0.7457796E-006  0.1273098E+03  0.7546771E-02  0.1247599E+00
         -1   -1    0    0    0  501 -0.00000000000E+00  0.00000000000E+00  0.18685334030E+02  0.18685334030E+02  0.00000000000E+00 0.  1.
          1   -1    0    0  501    0  0.00000000000E+00 -0.00000000000E+00 -0.64730888800E+03  0.64730888800E+03  0.00000000000E+00 0. -1.
          5    1    1    2  502    0  0.59609564374E+02  0.13572127007E+02 -0.15954489155E+03  0.17092151771E+03  0.47000000000E+01 0. -1.
         -5    1    1    2    0  502 -0.52703860210E+02 -0.36698211471E+02 -0.23436817953E+03  0.24305346980E+03  0.47000000000E+01 0. -1.
        -11    1    1    2    0    0 -0.32328092498E+02 -0.19782839758E+02 -0.66187351304E+02  0.76270779373E+02  0.00000000000E+00 0.  1.
         11    1    1    2    0    0  0.25422388335E+02  0.42908924222E+02 -0.16852313159E+03  0.17574845515E+03  0.00000000000E+00 0. -1.
<mgrwt>
<rscale>  0 0.11731149E+03</rscale>
<asrwt>0</asrwt>
<pdfrwt beam="2">  1        1 0.99585971E-01 0.12730979E+03</pdfrwt>
<pdfrwt beam="1">  1       -1 0.28746671E-02 0.12730979E+03</pdfrwt>
<totfact> 0.12044629E+04</totfact>
</mgrwt>
</event>
<event>
 6    1  0.7457796E-006  0.2788064E+03  0.7546771E-02  0.1096343E+00
         -1   -1    0    0    0  501 -0.00000000000E+00  0.00000000000E+00  0.16923777566E+03  0.16923777566E+03  0.00000000000E+00 0.  1.
          1   -1    0    0  501    0  0.00000000000E+00 -0.00000000000E+00 -0.11482805976E+03  0.11482805976E+03  0.00000000000E+00 0. -1.
          5    1    1    2  502    0 -0.29980241829E+01 -0.40928116627E+01 -0.28816099990E+02  0.29634386697E+02  0.47000000000E+01 0.  1.
         -5    1    1    2    0  502  0.62704536390E+01 -0.25601491329E+02  0.13340053969E+03  0.13606082807E+03  0.47000000000E+01 0.  1.
        -11    1    1    2    0    0 -0.35013542862E+02 -0.93472089022E+01  0.12193539118E+02  0.38236120282E+02  0.00000000000E+00 0.  1.
         11    1    1    2    0    0  0.31741113406E+02  0.39041511894E+02 -0.62368262911E+02  0.80134500371E+02  0.00000000000E+00 0. -1.
<mgrwt>
<rscale>  0 0.27880635E+03</rscale>
<asrwt>0</asrwt>
<pdfrwt beam="2">  1        1 0.17665855E-01 0.27880635E+03</pdfrwt>
<pdfrwt beam="1">  1       -1 0.26036581E-01 0.27880635E+03</pdfrwt>
<totfact> 0.38856753E+03</totfact>
</mgrwt>
</event>
<event>
 6    1  0.7457796E-006  0.2650547E+03  0.7546771E-02  0.1104144E+00
         -2   -1    0    0    0  501 -0.00000000000E+00  0.00000000000E+00  0.25307510102E+02  0.25307510102E+02  0.00000000000E+00 0.  1.
          2   -1    0    0  501    0  0.00000000000E+00 -0.00000000000E+00 -0.69400342533E+03  0.69400342533E+03  0.00000000000E+00 0. -1.
          5    1    1    2  502    0 -0.15875804325E+02 -0.19750109187E+02 -0.10720456371E+02  0.27912831470E+02  0.47000000000E+01 0. -1.
         -5    1    1    2    0  502  0.12064120336E+02  0.95767987983E+02 -0.30790508432E+03  0.32271455107E+03  0.47000000000E+01 0. -1.
        -11    1    1    2    0    0  0.39511740439E+02 -0.29914347971E+02 -0.96342085930E+02  0.10834132807E+03  0.00000000000E+00 0.  1.
         11    1    1    2    0    0 -0.35700056450E+02 -0.46103530824E+02 -0.25372828860E+03  0.26034222482E+03  0.00000000000E+00 0. -1.
<mgrwt>
<rscale>  0 0.26505470E+03</rscale>
<asrwt>0</asrwt>
<pdfrwt beam="2">  1        2 0.10676976E+00 0.26505470E+03</pdfrwt>
<pdfrwt beam="1">  1       -2 0.38934629E-02 0.26505470E+03</pdfrwt>
<totfact> 0.12060953E+04</totfact>
</mgrwt>
</event>
<event>
 6    1  0.7457796E-006  0.1285814E+03  0.7546771E-02  0.1243685E+00
         -2   -1    0    0    0  501 -0.00000000000E+00  0.00000000000E+00  0.40851720793E+02  0.40851720793E+02  0.00000000000E+00 0.  1.
          2   -1    0    0  501    0  0.00000000000E+00 -0.00000000000E+00 -0.35952200358E+03  0.35952200358E+03  0.00000000000E+00 0. -1.
          5    1    1    2  502    0 -0.51453359698E+02 -0.21033939835E+02  0.40339669706E+00  0.55786446186E+02  0.47000000000E+01 0. -1.
         -5    1    1    2    0  502  0.31682316347E+02 -0.16921405025E+01 -0.10554178186E+03  0.11030770702E+03  0.47000000000E+01 0. -1.
        -11    1    1    2    0    0 -0.11954424148E+02  0.40882485066E+02 -0.45533713278E+02  0.62350660676E+02  0.00000000000E+00 0. -1.
         11    1    1    2    0    0  0.31725467500E+02 -0.18156404729E+02 -0.16799818435E+03  0.17192891050E+03  0.00000000000E+00 0.  1.
<mgrwt>
<rscale>  0 0.11964424E+03</rscale>
<asrwt>0</asrwt>
<pdfrwt beam="2">  1        2 0.55311078E-01 0.12858144E+03</pdfrwt>
<pdfrwt beam="1">  1       -2 0.62848800E-02 0.12858144E+03</pdfrwt>
<totfact> 0.11639675E+04</totfact>
</mgrwt>
</event>
<event>
 6    1  0.7457796E-006  0.2221412E+03  0.7546771E-02  0.1135697E+00
          1   -1    0    0  501    0  0.00000000000E+00  0.00000000000E+00  0.21824145845E+03  0.21824145845E+03  0.00000000000E+00 0. -1.
         -1   -1    0    0    0  501 -0.00000000000E+00 -0.00000000000E+00 -0.63082869331E+03  0.63082869331E+03  0.00000000000E+00 0.  1.
          5    1    1    2  502    0 -0.11763772053E+03  0.10481357194E+03 -0.54803076172E+03  0.57024935243E+03  0.47000000000E+01 0. -1.
         -5    1    1    2    0  502 -0.13749666906E+02  0.23477299329E+02 -0.83605536806E+01  0.28848323723E+02  0.47000000000E+01 0. -1.
        -11    1    1    2    0    0 -0.33321014081E+01 -0.30622562308E+02  0.11980738153E+01  0.30826605441E+02  0.00000000000E+00 0. -1.
         11    1    1    2    0    0  0.13471948885E+03 -0.97668308960E+02  0.14260600673E+03  0.21914587016E+03  0.00000000000E+00 0.  1.
<mgrwt>
<rscale>  0 0.21758429E+03</rscale>
<asrwt>0</asrwt>
<pdfrwt beam="1">  1        1 0.33575610E-01 0.22214124E+03</pdfrwt>
<pdfrwt beam="2">  1       -1 0.97050566E-01 0.22214124E+03</pdfrwt>
<totfact> 0.14343395E+02</totfact>
</mgrwt>
</event>
<event>
 6    1  0.7457796E-006  0.1450194E+03  0.7546771E-02  0.1217046E+00
         -1   -1    0    0    0  501 -0.00000000000E+00  0.00000000000E+00  0.19771853084E+03  0.19771853084E+03  0.00000000000E+00 0.  1.
          1   -1    0    0  501    0  0.00000000000E+00 -0.00000000000E+00 -0.87169933484E+02  0.87169933484E+02  0.00000000000E+00 0. -1.
          5    1    1    2  502    0 -0.44113608253E+01  0.35256430932E+02  0.20596969026E+02  0.41337648209E+02  0.47000000000E+01 0. -1.
         -5    1    1    2    0  502  0.85809665270E+01 -0.10866775104E+03  0.53713372149E+02  0.12161220930E+03  0.47000000000E+01 0. -1.
        -11    1    1    2    0    0 -0.39787964141E+02  0.63839921411E+02  0.83217581342E+01  0.75682688342E+02  0.00000000000E+00 0.  1.
         11    1    1    2    0    0  0.35618358440E+02  0.95713986951E+01  0.27916498042E+02  0.46255918474E+02  0.00000000000E+00 0. -1.
<mgrwt>
<rscale>  0 0.13727305E+03</rscale>
<asrwt>0</asrwt>
<pdfrwt beam="2">  1        1 0.13410759E-01 0.14501941E+03</pdfrwt>
<pdfrwt beam="1">  1       -1 0.30418235E-01 0.14501941E+03</pdfrwt>
<totfact> 0.41498490E+03</totfact>
</mgrwt>
</event>
<event>
 6    1  0.7457796E-006  0.2211463E+03  0.7546771E-02  0.1136308E+00
          2   -1    0    0  501    0  0.00000000000E+00  0.00000000000E+00  0.36156292007E+03  0.36156292007E+03  0.00000000000E+00 0. -1.
         -2   -1    0    0    0  501 -0.00000000000E+00 -0.00000000000E+00 -0.13065020498E+03  0.13065020498E+03  0.00000000000E+00 0.  1.
          5    1    1    2  502    0 -0.98539238726E+02  0.15820123730E+03  0.28559129577E+02  0.18861422782E+03  0.47000000000E+01 0. -1.
         -5    1    1    2    0  502  0.13382198696E+02  0.31348814830E+01  0.40559009210E+02  0.43081712500E+02  0.47000000000E+01 0. -1.
        -11    1    1    2    0    0  0.69780347543E+02 -0.57802186486E+02  0.37612612032E+02  0.98107585077E+02  0.00000000000E+00 0.  1.
         11    1    1    2    0    0  0.15376692487E+02 -0.10353393230E+03  0.12418196428E+03  0.16240959966E+03  0.00000000000E+00 0. -1.
<mgrwt>
<rscale>  0 0.21677840E+03</rscale>
<asrwt>0</asrwt>
<pdfrwt beam="1">  1        2 0.55625064E-01 0.22114631E+03</pdfrwt>
<pdfrwt beam="2">  1       -2 0.20100032E-01 0.22114631E+03</pdfrwt>
<totfact> 0.18466903E+03</totfact>
</mgrwt>
</event>
<event>
 6    1  0.7457796E-006  0.1262185E+03  0.7546771E-02  0.1248339E+00
         -4   -1    0    0    0  501 -0.00000000000E+00  0.00000000000E+00  0.72955923244E+02  0.72955923244E+02  0.00000000000E+00 0.  1.
          4   -1    0    0  501    0  0.00000000000E+00 -0.00000000000E+00 -0.16490256676E+03  0.16490256676E+03  0.00000000000E+00 0. -1.
          5    1    1    2  502    0 -0.53578815414E+01  0.37288697578E+02 -0.87030535969E+02  0.94950292536E+02  0.47000000000E+01 0.  1.
         -5    1    1    2    0  502  0.20386506118E+02 -0.28310396421E+02  0.27435050087E+02  0.44630260480E+02  0.47000000000E+01 0.  1.
        -11    1    1    2    0    0 -0.25698972402E+02 -0.20410158529E+02 -0.58923150670E+02  0.67445900088E+02  0.00000000000E+00 0. -1.
         11    1    1    2    0    0  0.10670347826E+02  0.11431857371E+02  0.26571993035E+02  0.30832036902E+02  0.00000000000E+00 0.  1.
<mgrwt>
<rscale>  0 0.11687725E+03</rscale>
<asrwt>0</asrwt>
<pdfrwt beam="2">  1        4 0.25369625E-01 0.12621850E+03</pdfrwt>
<pdfrwt beam="1">  1       -4 0.11223988E-01 0.12621850E+03</pdfrwt>
<totfact> 0.14720387E+03</totfact>
</mgrwt>
</event>
<event>
 6    1  0.7457796E-006  0.1273531E+03  0.7546771E-02  0.1246023E+00
          2   -1    0    0  501    0  0.00000000000E+00  0.00000000000E+00  0.25039841740E+02  0.25039841740E+02  0.00000000000E+00 0. -1.
         -2   -1    0    0    0  501 -0.00000000000E+00 -0.00000000000E+00 -0.51254266574E+03  0.51254266574E+03  0.00000000000E+00 0.  1.
          5    1    1    2  502    0 -0.51552729134E+02 -0.89816078750E+01 -0.10048173694E+03  0.11338881170E+03  0.47000000000E+01 0.  1.
         -5    1    1    2    0  502  0.70846862214E+02 -0.49367794552E+01 -0.23095971750E+03  0.24167774160E+03  0.47000000000E+01 0.  1.
        -11    1    1    2    0    0 -0.49280447374E+02  0.94927147534E+01 -0.45047859787E+02  0.67438741078E+02  0.00000000000E+00 0. -1.
         11    1    1    2    0    0  0.29986314294E+02  0.44256725768E+01 -0.11101350977E+03  0.11507721310E+03  0.00000000000E+00 0.  1.
<mgrwt>
<rscale>  0 0.11824344E+03</rscale>
<asrwt>0</asrwt>
<pdfrwt beam="1">  1        2 0.38522834E-02 0.12735313E+03</pdfrwt>
<pdfrwt beam="2">  1       -2 0.78852716E-01 0.12735313E+03</pdfrwt>
<totfact> 0.31134607E+03</totfact>
</mgrwt>
</event>
<event>
 6    1  0.7457796E-006  0.1617421E+03  0.7546771E-02  0.1193990E+00
          3   -1    0    0  501    0  0.00000000000E+00  0.00000000000E+00  0.19142626450E+04  0.19142626450E+04  0.00000000000E+00 0. -1.
         -3   -1    0    0    0  501 -0.00000000000E+00 -0.00000000000E+00 -0.13065317380E+02  0.13065317380E+02  0.00000000000E+00 0.  1.
          5    1    1    2  502    0  0.80863411303E+01  0.27060667199E+02  0.83247396318E+03  0.83296618058E+03  0.47000000000E+01 0. -1.
         -5    1    1    2    0  502 -0.89780172270E+02  0.35081690968E+02  0.49452150166E+03  0.50384998758E+03  0.47000000000E+01 0. -1.
        -11    1    1    2    0    0  0.95925647691E+02 -0.38609184380E+02  0.51438630632E+03  0.52467673012E+03  0.00000000000E+00 0. -1.
         11    1    1    2    0    0 -0.14231816551E+02 -0.23533173787E+02  0.59815556484E+02  0.65835064125E+02  0.00000000000E+00 0.  1.
<mgrwt>
<rscale>  0 0.15540007E+03</rscale>
<asrwt>0</asrwt>
<pdfrwt beam="1">  1        3 0.29450172E+00 0.16174209E+03</pdfrwt>
<pdfrwt beam="2">  1       -3 0.20100503E-02 0.16174209E+03</pdfrwt>
<totfact> 0.11010829E+02</totfact>
</mgrwt>
</event>
<event>
 6    1  0.7457796E-006  0.1386671E+03  0.7546771E-02  0.1226219E+00
          3   -1    0    0  501    0  0.00000000000E+00  0.00000000000E+00  0.54458205199E+02  0.54458205199E+02  0.00000000000E+00 0. -1.
         -3   -1    0    0    0  501 -0.00000000000E+00 -0.00000000000E+00 -0.30683420637E+03  0.30683420637E+03  0.00000000000E+00 0.  1.
          5    1    1    2  502    0 -0.30160491636E+02  0.27590545160E+01  0.88436612727E+01  0.31899341408E+02  0.47000000000E+01 0. -1.
         -5    1    1    2    0  502 -0.17607396147E+02 -0.39173814361E+02 -0.19788786259E+03  0.20254951071E+03  0.47000000000E+01 0. -1.
        -11    1    1    2    0    0  0.67588391450E+02  0.51459883532E+02 -0.50841704629E+02  0.99000955559E+02  0.00000000000E+00 0. -1.
         11    1    1    2    0    0 -0.19820503668E+02 -0.15045123688E+02 -0.12490095223E+02  0.27842603885E+02  0.00000000000E+00 0.  1.
<mgrwt>
<rscale>  0 0.13083714E+03</rscale>
<asrwt>0</asrwt>
<pdfrwt beam="1">  1        3 0.83781854E-02 0.13866706E+03</pdfrwt>
<pdfrwt beam="2">  1       -3 0.47205263E-01 0.13866706E+03</pdfrwt>
<totfact> 0.10256360E+03</totfact>
</mgrwt>
</event>
<event>
 6    1  0.7457796E-006  0.2882132E+03  0.7546771E-02  0.1091286E+00
         -2   -1    0    0    0  501 -0.00000000000E+00  0.00000000000E+00  0.79810373382E+02  0.79810373382E+02  0.00000000000E+00 0. -1.
          2   -1    0    0  501    0  0.00000000000E+00 -0.00000000000E+00 -0.26020070881E+03  0.26020070881E+03  0.00000000000E+00 0.  1.
          5    1    1    2  502    0 -0.81527590041E+02 -0.85946694210E+02 -0.92390811306E+02  0.15030546962E+03  0.47000000000E+01 0. -1.
         -5    1    1    2    0  502  0.31243345600E+02  0.62146117759E+01 -0.14699421417E+01  0.32233814136E+02  0.47000000000E+01 0. -1.
        -11    1    1    2    0    0  0.40825699238E+02  0.46001728589E+02 -0.10205367018E+03  0.11915472441E+03  0.00000000000E+00 0.  1.
         11    1    1    2    0    0  0.94585452028E+01  0.33730353845E+02  0.15524088199E+02  0.38317074030E+02  0.00000000000E+00 0. -1.
<mgrwt>
<rscale>  0 0.28821322E+03</rscale>
<asrwt>0</asrwt>
<pdfrwt beam="2">  1        2 0.40030878E-01 0.28821322E+03</pdfrwt>
<pdfrwt beam="1">  1       -2 0.12278519E-01 0.28821322E+03</pdfrwt>
<totfact> 0.60506602E+03</totfact>
</mgrwt>
</event>
<event>
 6    1  0.7457796E-006  0.1539064E+03  0.7546771E-02  0.1218809E+00
          3   -1    0    0  501    0  0.00000000000E+00  0.00000000000E+00  0.67188706301E+02  0.67188706301E+02  0.00000000000E+00 0. -1.
         -3   -1    0    0    0  501 -0.00000000000E+00 -0.00000000000E+00 -0.24541040807E+03  0.24541040807E+03  0.00000000000E+00 0.  1.
          5    1    1    2  502    0 -0.19587156506E+02  0.63235143143E+02 -0.47169626398E+02  0.81421150095E+02  0.47000000000E+01 0. -1.
         -5    1    1    2    0  502  0.14585893222E+02 -0.83820049987E+02 -0.10205286687E+03  0.13294896276E+03  0.47000000000E+01 0.  1.
        -11    1    1    2    0    0  0.22907826616E+01 -0.33405082455E+02 -0.28808014297E+02  0.44170679265E+02  0.00000000000E+00 0.  1.
         11    1    1    2    0    0  0.27104806217E+01  0.53989989299E+02 -0.19119420200E+00  0.54058322255E+02  0.00000000000E+00 0. -1.
<mgrwt>
<rscale>  0 0.13600415E+03</rscale>
<asrwt>0</asrwt>
<pdfrwt beam="1">  1        3 0.10336724E-01 0.15390644E+03</pdfrwt>
<pdfrwt beam="2">  1       -3 0.37755448E-01 0.15390644E+03</pdfrwt>
<totfact> 0.11391358E+03</totfact>
</mgrwt>
</event>
<event>
 6    1  0.7457796E-006  0.3787039E+03  0.7546771E-02  0.1051414E+00
         -2   -1    0    0    0  501 -0.00000000000E+00  0.00000000000E+00  0.13336065175E+03  0.13336065175E+03  0.00000000000E+00 0. -1.
          2   -1    0    0  501    0  0.00000000000E+00 -0.00000000000E+00 -0.26885118778E+03  0.26885118778E+03  0.00000000000E+00 0.  1.
          5    1    1    2  502    0 -0.87374458095E+01  0.24091871702E+02 -0.40827407415E+00  0.26057972467E+02  0.47000000000E+01 0. -1.
         -5    1    1    2    0  502  0.10476531469E+03 -0.11557274496E+03  0.14726764665E+02  0.15675394138E+03  0.47000000000E+01 0. -1.
        -11    1    1    2    0    0 -0.47946768306E+02  0.73019815597E+02 -0.14283084624E+03  0.16742591406E+03  0.00000000000E+00 0.  1.
         11    1    1    2    0    0 -0.48081100579E+02  0.18461057662E+02 -0.69781803809E+01  0.51974011624E+02  0.00000000000E+00 0. -1.
<mgrwt>
<rscale>  0 0.37870395E+03</rscale>
<asrwt>0</asrwt>
<pdfrwt beam="2">  1        2 0.41361721E-01 0.37870395E+03</pdfrwt>
<pdfrwt beam="1">  1       -2 0.20517024E-01 0.37870395E+03</pdfrwt>
<totfact> 0.24917500E+03</totfact>
</mgrwt>
</event>
<event>
 6    1  0.7457796E-006  0.1359639E+03  0.7546771E-02  0.1232517E+00
          1   -1    0    0  501    0  0.00000000000E+00  0.00000000000E+00  0.73723083057E+02  0.73723083057E+02  0.00000000000E+00 0. -1.
         -1   -1    0    0    0  501 -0.00000000000E+00 -0.00000000000E+00 -0.20223041122E+03  0.20223041122E+03  0.00000000000E+00 0.  1.
          5    1    1    2  502    0 -0.53359395594E+02  0.58577457521E+02 -0.71123797441E+01  0.79694539170E+02  0.47000000000E+01 0. -1.
         -5    1    1    2    0  502  0.51176020948E+02 -0.51252783221E+01 -0.35947306310E+02  0.62924974604E+02  0.47000000000E+01 0. -1.
        -11    1    1    2    0    0 -0.37272100679E+02 -0.22849083854E+01 -0.37064609686E+02  0.52613834554E+02  0.00000000000E+00 0. -1.
         11    1    1    2    0    0  0.39455475325E+02 -0.51167270814E+02 -0.48383032424E+02  0.80720145950E+02  0.00000000000E+00 0.  1.
<mgrwt>
<rscale>  0 0.12664720E+03</rscale>
<asrwt>0</asrwt>
<pdfrwt beam="1">  1        1 0.11342013E-01 0.13596393E+03</pdfrwt>
<pdfrwt beam="2">  1       -1 0.31112371E-01 0.13596393E+03</pdfrwt>
<totfact> 0.49569293E+03</totfact>
</mgrwt>
</event>
<event>
 6    1  0.7457796E-006  0.1334710E+03  0.7546771E-02  0.1234777E+00
          4   -1    0    0  501    0  0.00000000000E+00  0.00000000000E+00  0.13995578568E+03  0.13995578568E+03  0.00000000000E+00 0. -1.
         -4   -1    0    0    0  501 -0.00000000000E+00 -0.00000000000E+00 -0.10052106693E+03  0.10052106693E+03  0.00000000000E+00 0.  1.
          5    1    1    2  502    0  0.17904477432E+02 -0.39175094084E+02  0.40307775804E+02  0.59178248528E+02  0.47000000000E+01 0.  1.
         -5    1    1    2    0  502  0.18979378843E+02  0.67899993553E+02 -0.25482094034E+02  0.75113601046E+02  0.47000000000E+01 0.  1.
        -11    1    1    2    0    0  0.22118701834E+02  0.83088595861E+01 -0.13053307312E+02  0.26993757616E+02  0.00000000000E+00 0.  1.
         11    1    1    2    0    0 -0.59002558109E+02 -0.37033759055E+02  0.37662344289E+02  0.79191245416E+02  0.00000000000E+00 0. -1.
<mgrwt>
<rscale>  0 0.12518690E+03</rscale>
<asrwt>0</asrwt>
<pdfrwt beam="1">  1        4 0.21531659E-01 0.13347097E+03</pdfrwt>
<pdfrwt beam="2">  1       -4 0.15464779E-01 0.13347097E+03</pdfrwt>
<totfact> 0.11580350E+03</totfact>
</mgrwt>
</event>
<event>
 6    1  0.7457796E-006  0.2535411E+03  0.7546771E-02  0.1113668E+00
          2   -1    0    0  501    0  0.00000000000E+00  0.00000000000E+00  0.98596807118E+02  0.98596807118E+02  0.00000000000E+00 0. -1.
         -2   -1    0    0    0  501 -0.00000000000E+00 -0.00000000000E+00 -0.98722633048E+03  0.98722633048E+03  0.00000000000E+00 0.  1.
          5    1    1    2  502    0  0.43956474816E+02  0.45564738689E+02 -0.86680258532E+02  0.10744242323E+03  0.47000000000E+01 0.  1.
         -5    1    1    2    0  502  0.33911706846E+02  0.16082412924E+03 -0.70153653192E+03  0.72054840228E+03  0.47000000000E+01 0.  1.
        -11    1    1    2    0    0  0.16634636907E+02 -0.55875678698E+02 -0.12797523696E+02  0.59687345625E+02  0.00000000000E+00 0.  1.
         11    1    1    2    0    0 -0.94502818570E+02 -0.15051318923E+03 -0.87615209209E+02  0.19814496646E+03  0.00000000000E+00 0. -1.
<mgrwt>
<rscale>  0 0.24942568E+03</rscale>
<asrwt>0</asrwt>
<pdfrwt beam="1">  1        2 0.15168739E-01 0.25354112E+03</pdfrwt>
<pdfrwt beam="2">  1       -2 0.15188098E+00 0.25354112E+03</pdfrwt>
<totfact> 0.11849184E+02</totfact>
</mgrwt>
</event>
<event>
 6    1  0.7457796E-006  0.3337452E+03  0.7546771E-02  0.1155723E+00
         -2   -1    0    0    0  501 -0.00000000000E+00  0.00000000000E+00  0.11008128336E+03  0.11008128336E+03  0.00000000000E+00 0.  1.
          2   -1    0    0  501    0  0.00000000000E+00 -0.00000000000E+00 -0.37141189083E+03  0.37141189083E+03  0.00000000000E+00 0. -1.
          5    1    1    2  502    0  0.13424809070E+03 -0.25850208522E+02 -0.20630461594E+03  0.24753680069E+03  0.47000000000E+01 0. -1.
         -5    1    1    2    0  502 -0.10619328103E+03  0.16195015902E+02  0.52834674233E+02  0.11980352365E+03  0.47000000000E+01 0.  1.
        -11    1    1    2    0    0 -0.14025460479E+02  0.12729979062E+02 -0.85530140759E+02  0.87602345213E+02  0.00000000000E+00 0. -1.
         11    1    1    2    0    0 -0.14029349186E+02 -0.30747864420E+01 -0.22330524998E+02  0.26550504645E+02  0.00000000000E+00 0.  1.
<mgrwt>
<rscale>  0 0.19306739E+03</rscale>
<asrwt>0</asrwt>
<pdfrwt beam="2">  1        2 0.57140290E-01 0.33374525E+03</pdfrwt>
<pdfrwt beam="1">  1       -2 0.16935582E-01 0.33374525E+03</pdfrwt>
<totfact> 0.24232521E+03</totfact>
</mgrwt>
</event>
<event>
 6    1  0.7457796E-006  0.4372098E+03  0.7546771E-02  0.1031606E+00
          4   -1    0    0  501    0  0.00000000000E+00  0.00000000000E+00  0.11294226909E+03  0.11294226909E+03  0.00000000000E+00 0. -1.
         -4   -1    0    0    0  501 -0.00000000000E+00 -0.00000000000E+00 -0.42311966527E+03  0.42311966527E+03  0.00000000000E+00 0.  1.
          5    1    1    2  502    0 -0.16750388130E+03 -0.11034224671E+03 -0.14022548165E+03  0.24478202010E+03  0.47000000000E+01 0.  1.
         -5    1    1    2    0  502  0.88204971319E+01  0.83745775774E+01 -0.47406174314E+02  0.49166757900E+02  0.47000000000E+01 0.  1.
        -11    1    1    2    0    0  0.15931567678E+02 -0.16765568010E+02 -0.14111139966E+02  0.27092866045E+02  0.00000000000E+00 0.  1.
         11    1    1    2    0    0  0.14275181649E+03  0.11873323714E+03 -0.10843460025E+03  0.21502029031E+03  0.00000000000E+00 0. -1.
<mgrwt>
<rscale>  0 0.43720977E+03</rscale>
<asrwt>0</asrwt>
<pdfrwt beam="1">  1        4 0.17375733E-01 0.43720977E+03</pdfrwt>
<pdfrwt beam="2">  1       -4 0.65095334E-01 0.43720977E+03</pdfrwt>
<totfact> 0.12622398E+02</totfact>
</mgrwt>
</event>
<event>
 6    1  0.7457796E-006  0.1426554E+03  0.7546771E-02  0.1226959E+00
         -1   -1    0    0    0  501 -0.00000000000E+00  0.00000000000E+00  0.77331139750E+02  0.77331139750E+02  0.00000000000E+00 0.  1.
          1   -1    0    0  501    0  0.00000000000E+00 -0.00000000000E+00 -0.19051536393E+03  0.19051536393E+03  0.00000000000E+00 0. -1.
          5    1    1    2  502    0  0.62814662569E+02  0.31004039434E+02 -0.10246097412E+02  0.70950720976E+02  0.47000000000E+01 0. -1.
         -5    1    1    2    0  502 -0.41258486185E+02 -0.46319208039E+02 -0.66413346520E+02  0.90997551130E+02  0.47000000000E+01 0.  1.
        -11    1    1    2    0    0 -0.81483301570E+01 -0.15471157831E+02  0.28084962103E+02  0.33083486898E+02  0.00000000000E+00 0.  1.
         11    1    1    2    0    0 -0.13407846227E+02  0.30786326436E+02 -0.64609742350E+02  0.72814744678E+02  0.00000000000E+00 0. -1.
<mgrwt>
<rscale>  0 0.13033556E+03</rscale>
<asrwt>0</asrwt>
<pdfrwt beam="2">  1        1 0.29310055E-01 0.14265543E+03</pdfrwt>
<pdfrwt beam="1">  1       -1 0.11897099E-01 0.14265543E+03</pdfrwt>
<totfact> 0.69041710E+03</totfact>
</mgrwt>
</event>
<event>
 6    1  0.7457796E-006  0.2579850E+03  0.7546771E-02  0.1130972E+00
         -4   -1    0    0    0  501 -0.00000000000E+00  0.00000000000E+00  0.72997720143E+02  0.72997720143E+02  0.00000000000E+00 0.  1.
          4   -1    0    0  501    0  0.00000000000E+00 -0.00000000000E+00 -0.58039247055E+03  0.58039247055E+03  0.00000000000E+00 0. -1.
          5    1    1    2  502    0  0.96277516344E+02 -0.10539990451E+03 -0.16803620778E+03  0.22053742800E+03  0.47000000000E+01 0. -1.
         -5    1    1    2    0  502 -0.11292258386E+03 -0.82388019507E+01 -0.94661642833E+02  0.14765603417E+03  0.47000000000E+01 0.  1.
        -11    1    1    2    0    0 -0.16480240778E+02  0.73554843790E+01 -0.19656829338E+01  0.18153936101E+02  0.00000000000E+00 0.  1.
         11    1    1    2    0    0  0.33125308294E+02  0.10628322208E+03 -0.24273121686E+03  0.26704279242E+03  0.00000000000E+00 0. -1.
<mgrwt>
<rscale>  0 0.22395001E+03</rscale>
<asrwt>0</asrwt>
<pdfrwt beam="2">  1        4 0.89291149E-01 0.25798501E+03</pdfrwt>
<pdfrwt beam="1">  1       -4 0.11230419E-01 0.25798501E+03</pdfrwt>
<totfact> 0.12699183E+02</totfact>
</mgrwt>
</event>
<event>
 6    1  0.7457796E-006  0.1293544E+03  0.7546771E-02  0.1241971E+00
          1   -1    0    0  501    0  0.00000000000E+00  0.00000000000E+00  0.15922389808E+03  0.15922389808E+03  0.00000000000E+00 0.  1.
         -1   -1    0    0    0  501 -0.00000000000E+00 -0.00000000000E+00 -0.88638611765E+02  0.88638611765E+02  0.00000000000E+00 0. -1.
          5    1    1    2  502    0  0.21216467445E+02 -0.40322515335E+02  0.33358551035E+02  0.56665039141E+02  0.47000000000E+01 0.  1.
         -5    1    1    2    0  502 -0.79721042240E+00  0.66431416641E+02 -0.29278702921E+02  0.72753701666E+02  0.47000000000E+01 0.  1.
        -11    1    1    2    0    0  0.27050036075E+02 -0.42313922979E+01  0.59771334249E+02  0.65743604483E+02  0.00000000000E+00 0.  1.
         11    1    1    2    0    0 -0.47469293098E+02 -0.21877509008E+02  0.67341039489E+01  0.52700164550E+02  0.00000000000E+00 0. -1.
<mgrwt>
<rscale>  0 0.12068506E+03</rscale>
<asrwt>0</asrwt>
<pdfrwt beam="1">  1        1 0.24495984E-01 0.12935442E+03</pdfrwt>
<pdfrwt beam="2">  1       -1 0.13636710E-01 0.12935442E+03</pdfrwt>
<totfact> 0.69473883E+03</totfact>
</mgrwt>
</event>
<event>
 6    1  0.7457796E-006  0.3431949E+03  0.7546771E-02  0.1065443E+00
          1   -1    0    0  501    0  0.00000000000E+00  0.00000000000E+00  0.11776324827E+03  0.11776324827E+03  0.00000000000E+00 0. -1.
         -1   -1    0    0    0  501 -0.00000000000E+00 -0.00000000000E+00 -0.25004134099E+03  0.25004134099E+03  0.00000000000E+00 0.  1.
          5    1    1    2  502    0  0.40748126027E+02  0.13524828987E+02  0.22464080466E+01  0.43248897361E+02  0.47000000000E+01 0. -1.
         -5    1    1    2    0  502  0.37579136377E+02 -0.99104696918E+02 -0.14190275815E+03  0.17717904846E+03  0.47000000000E+01 0. -1.
        -11    1    1    2    0    0 -0.69907623125E+02  0.27832213051E+02 -0.26647394056E+02  0.79823501954E+02  0.00000000000E+00 0.  1.
         11    1    1    2    0    0 -0.84196392788E+01  0.57747654880E+02  0.34025651435E+02  0.67553141491E+02  0.00000000000E+00 0. -1.
<mgrwt>
<rscale>  0 0.34319487E+03</rscale>
<asrwt>0</asrwt>
<pdfrwt beam="1">  1        1 0.18117423E-01 0.34319487E+03</pdfrwt>
<pdfrwt beam="2">  1       -1 0.38467898E-01 0.34319487E+03</pdfrwt>
<totfact> 0.19294447E+03</totfact>
</mgrwt>
</event>
<event>
 6    1  0.7457796E-006  0.1650724E+03  0.7546771E-02  0.1189982E+00
          3   -1    0    0  501    0  0.00000000000E+00  0.00000000000E+00  0.20472064838E+03  0.20472064838E+03  0.00000000000E+00 0. -1.
         -3   -1    0    0    0  501 -0.00000000000E+00 -0.00000000000E+00 -0.12785393347E+03  0.12785393347E+03  0.00000000000E+00 0.  1.
          5    1    1    2  502    0 -0.65976189047E+01  0.89438355624E+02 -0.26770254061E+02  0.93709575468E+02  0.47000000000E+01 0.  1.
         -5    1    1    2    0  502  0.70011674387E+02 -0.22372706841E+01  0.14973149353E+02  0.71783877940E+02  0.47000000000E+01 0.  1.
        -11    1    1    2    0    0 -0.24893953380E+02  0.11899266734E+02 -0.15599797662E+01  0.27635755835E+02  0.00000000000E+00 0.  1.
         11    1    1    2    0    0 -0.38520102102E+02 -0.99100351674E+02  0.90223799378E+02  0.13944537261E+03  0.00000000000E+00 0. -1.
<mgrwt>
<rscale>  0 0.15886686E+03</rscale>
<asrwt>0</asrwt>
<pdfrwt beam="1">  1        3 0.31495484E-01 0.16507244E+03</pdfrwt>
<pdfrwt beam="2">  1       -3 0.19669836E-01 0.16507244E+03</pdfrwt>
<totfact> 0.53975231E+02</totfact>
</mgrwt>
</event>
<event>
 6    1  0.7457796E-006  0.1607501E+03  0.7546771E-02  0.1195132E+00
          2   -1    0    0  501    0  0.00000000000E+00  0.00000000000E+00  0.16222346878E+03  0.16222346878E+03  0.00000000000E+00 0. -1.
         -2   -1    0    0    0  501 -0.00000000000E+00 -0.00000000000E+00 -0.15919212368E+03  0.15919212368E+03  0.00000000000E+00 0.  1.
          5    1    1    2  502    0 -0.93370948320E+02 -0.40345550948E+02 -0.44402335229E+02  0.11108354894E+03  0.47000000000E+01 0.  1.
         -5    1    1    2    0  502 -0.61815290476E+01  0.57814972322E+02 -0.14412326698E+02  0.60088164283E+02  0.47000000000E+01 0.  1.
        -11    1    1    2    0    0  0.34367405863E+02 -0.49580747786E+02  0.46017383825E+02  0.75874691109E+02  0.00000000000E+00 0.  1.
         11    1    1    2    0    0  0.65185071505E+02  0.32111326411E+02  0.15828623196E+02  0.74369188131E+02  0.00000000000E+00 0. -1.
<mgrwt>
<rscale>  0 0.15443070E+03</rscale>
<asrwt>0</asrwt>
<pdfrwt beam="1">  1        2 0.24957457E-01 0.16075009E+03</pdfrwt>
<pdfrwt beam="2">  1       -2 0.24491096E-01 0.16075009E+03</pdfrwt>
<totfact> 0.30908504E+03</totfact>
</mgrwt>
</event>
<event>
 6    1  0.7457796E-006  0.1359051E+03  0.7546771E-02  0.1231542E+00
         -4   -1    0    0    0  501 -0.00000000000E+00  0.00000000000E+00  0.18812643716E+03  0.18812643716E+03  0.00000000000E+00 0.  1.
          4   -1    0    0  501    0  0.00000000000E+00 -0.00000000000E+00 -0.89327649697E+02  0.89327649697E+02  0.00000000000E+00 0. -1.
          5    1    1    2  502    0  0.12936477260E+02  0.81839699648E+02  0.81497993213E+02  0.11631466709E+03  0.47000000000E+01 0.  1.
         -5    1    1    2    0  502  0.24539193353E+02 -0.43864845974E+02  0.24918845222E+02  0.56296852220E+02  0.47000000000E+01 0.  1.
        -11    1    1    2    0    0 -0.52181438779E+02 -0.37991618316E+01 -0.31082461119E+02  0.60856023309E+02  0.00000000000E+00 0. -1.
         11    1    1    2    0    0  0.14705768166E+02 -0.34175691843E+02  0.23464410143E+02  0.43986544234E+02  0.00000000000E+00 0.  1.
<mgrwt>
<rscale>  0 0.12728400E+03</rscale>
<asrwt>0</asrwt>
<pdfrwt beam="2">  1        4 0.13742715E-01 0.13590509E+03</pdfrwt>
<pdfrwt beam="1">  1       -4 0.28942529E-01 0.13590509E+03</pdfrwt>
<totfact> 0.82689895E+02</totfact>
</mgrwt>
</event>
<event>
 6    1  0.7457796E-006  0.1508394E+03  0.7546771E-02  0.1208798E+00
         -1   -1    0    0    0  501 -0.00000000000E+00  0.00000000000E+00  0.25677278667E+03  0.25677278667E+03  0.00000000000E+00 0.  1.
          1   -1    0    0  501    0  0.00000000000E+00 -0.00000000000E+00 -0.75475203588E+02  0.75475203588E+02  0.00000000000E+00 0. -1.
          5    1    1    2  502    0 -0.79504516726E+01 -0.45309592370E+02 -0.10183405353E+02  0.47349346216E+02  0.47000000000E+01 0.  1.
         -5    1    1    2    0  502  0.53044456617E+02 -0.26071740366E+02  0.13860085621E+03  0.15075057998E+03  0.47000000000E+01 0.  1.
        -11    1    1    2    0    0 -0.43567417366E+01 -0.20634163649E+02  0.17742717677E+02  0.27560006144E+02  0.00000000000E+00 0.  1.
         11    1    1    2    0    0 -0.40737263208E+02  0.92015496385E+02  0.35137414547E+02  0.10658805791E+03  0.00000000000E+00 0. -1.
<mgrwt>
<rscale>  0 0.14342158E+03</rscale>
<asrwt>0</asrwt>
<pdfrwt beam="2">  1        1 0.11611570E-01 0.15083945E+03</pdfrwt>
<pdfrwt beam="1">  1       -1 0.39503505E-01 0.15083945E+03</pdfrwt>
<totfact> 0.32068897E+03</totfact>
</mgrwt>
</event>
<event>
 6    1  0.7457796E-006  0.1488585E+03  0.7546771E-02  0.1210944E+00
          4   -1    0    0  501    0  0.00000000000E+00  0.00000000000E+00  0.30178380062E+03  0.30178380062E+03  0.00000000000E+00 0. -1.
         -4   -1    0    0    0  501 -0.00000000000E+00 -0.00000000000E+00 -0.71357552864E+02  0.71357552864E+02  0.00000000000E+00 0.  1.
          5    1    1    2  502    0  0.59396839703E+02 -0.81268339711E+02  0.56020328816E+02  0.11529481709E+03  0.47000000000E+01 0.  1.
         -5    1    1    2    0  502 -0.42702330821E+02  0.21861881818E+01 -0.20006385342E+01  0.43062292447E+02  0.47000000000E+01 0.  1.
        -11    1    1    2    0    0 -0.49170882406E+02  0.73147159107E+02  0.14176999707E+03  0.16693416256E+03  0.00000000000E+00 0.  1.
         11    1    1    2    0    0  0.32476373524E+02  0.59349924222E+01  0.34636560411E+02  0.47850081394E+02  0.00000000000E+00 0. -1.
<mgrwt>
<rscale>  0 0.14178772E+03</rscale>
<asrwt>0</asrwt>
<pdfrwt beam="1">  1        4 0.46428276E-01 0.14885848E+03</pdfrwt>
<pdfrwt beam="2">  1       -4 0.10978085E-01 0.14885848E+03</pdfrwt>
<totfact> 0.49329112E+02</totfact>
</mgrwt>
</event>
<event>
 6    1  0.7457796E-006  0.2825686E+03  0.7546771E-02  0.1096078E+00
          2   -1    0    0  501    0  0.00000000000E+00  0.00000000000E+00  0.48912707483E+03  0.48912707483E+03  0.00000000000E+00 0. -1.
         -2   -1    0    0    0  501 -0.00000000000E+00 -0.00000000000E+00 -0.28077645545E+03  0.28077645545E+03  0.00000000000E+00 0.  1.
          5    1    1    2  502    0 -0.38331785676E+02 -0.90355019888E+02 -0.86998304987E+02  0.13124081104E+03  0.47000000000E+01 0.  1.
         -5    1    1    2    0  502 -0.16921990971E+03 -0.55052305344E+02 -0.64185546899E+02  0.18923004147E+03  0.47000000000E+01 0.  1.
        -11    1    1    2    0    0  0.11199605740E+03  0.42606788012E+02  0.10763081607E+03  0.16106783610E+03  0.00000000000E+00 0.  1.
         11    1    1    2    0    0  0.95555637981E+02  0.10280053722E+03  0.25190365520E+03  0.28836484166E+03  0.00000000000E+00 0. -1.
<mgrwt>
<rscale>  0 0.27928857E+03</rscale>
<asrwt>0</asrwt>
<pdfrwt beam="1">  1        2 0.75250319E-01 0.28256859E+03</pdfrwt>
<pdfrwt beam="2">  1       -2 0.43196378E-01 0.28256859E+03</pdfrwt>
<totfact> 0.32967934E+02</totfact>
</mgrwt>
</event>
<event>
 6    1  0.7457796E-006  0.1417090E+03  0.7546771E-02  0.1222283E+00
          1   -1    0    0  501    0  0.00000000000E+00  0.00000000000E+00  0.77849671035E+02  0.77849671035E+02  0.00000000000E+00 0. -1.
         -1   -1    0    0    0  501 -0.00000000000E+00 -0.00000000000E+00 -0.22218425524E+03  0.22218425524E+03  0.00000000000E+00 0.  1.
          5    1    1    2  502    0  0.38973531063E+02 -0.21435696843E+01 -0.11049954067E+03  0.11728499266E+03  0.47000000000E+01 0.  1.
         -5    1    1    2    0  502 -0.24315732271E+02 -0.62983434114E+02 -0.93713132861E+01  0.68323343897E+02  0.47000000000E+01 0.  1.
        -11    1    1    2    0    0 -0.22836901393E+02  0.21004627327E+02 -0.52880106797E+02  0.61310881002E+02  0.00000000000E+00 0.  1.
         11    1    1    2    0    0  0.81791026004E+01  0.44122376471E+02  0.28416376556E+02  0.53114708710E+02  0.00000000000E+00 0. -1.
<mgrwt>
<rscale>  0 0.13354847E+03</rscale>
<asrwt>0</asrwt>
<pdfrwt beam="1">  1        1 0.11976873E-01 0.14170897E+03</pdfrwt>
<pdfrwt beam="2">  1       -1 0.34182192E-01 0.14170897E+03</pdfrwt>
<totfact> 0.39420756E+03</totfact>
</mgrwt>
</event>
<event>
 6    1  0.7457796E-006  0.1611109E+03  0.7546771E-02  0.1197053E+00
          1   -1    0    0  501    0  0.00000000000E+00  0.00000000000E+00  0.77611587831E+03  0.77611587831E+03  0.00000000000E+00 0. -1.
         -1   -1    0    0    0  501 -0.00000000000E+00 -0.00000000000E+00 -0.28210726165E+02  0.28210726165E+02  0.00000000000E+00 0.  1.
          5    1    1    2  502    0 -0.50118927059E+02  0.22577524161E+02  0.22754941209E+03  0.23414200048E+03  0.47000000000E+01 0. -1.
         -5    1    1    2    0  502  0.15895161407E+02 -0.10042054513E+03  0.25345862041E+03  0.27313056274E+03  0.47000000000E+01 0.  1.
        -11    1    1    2    0    0  0.54211495241E+02  0.91390829239E+02  0.21650118385E+03  0.24117199774E+03  0.00000000000E+00 0. -1.
         11    1    1    2    0    0 -0.19987729589E+02 -0.13547808270E+02  0.50395935803E+02  0.55882043525E+02  0.00000000000E+00 0.  1.
<mgrwt>
<rscale>  0 0.15281721E+03</rscale>
<asrwt>0</asrwt>
<pdfrwt beam="1">  1        1 0.11940243E+00 0.16111091E+03</pdfrwt>
<pdfrwt beam="2">  1       -1 0.43401123E-02 0.16111091E+03</pdfrwt>
<totfact> 0.51412465E+03</totfact>
</mgrwt>
</event>
<event>
 6    1  0.7457796E-006  0.1502528E+03  0.7546771E-02  0.1209444E+00
          2   -1    0    0  501    0  0.00000000000E+00  0.00000000000E+00  0.36482772832E+03  0.36482772832E+03  0.00000000000E+00 0.  1.
         -2   -1    0    0    0  501 -0.00000000000E+00 -0.00000000000E+00 -0.85792411885E+02  0.85792411885E+02  0.00000000000E+00 0. -1.
          5    1    1    2  502    0 -0.79912326347E+02  0.69139778188E+02  0.32257506638E+02  0.11058447253E+03  0.47000000000E+01 0. -1.
         -5    1    1    2    0  502  0.72653048931E+01 -0.27726649318E+02 -0.27144837178E+02  0.39755300565E+02  0.47000000000E+01 0. -1.
        -11    1    1    2    0    0  0.69633731437E+02 -0.84263729853E+01  0.93733374207E+02  0.11707179744E+03  0.00000000000E+00 0. -1.
         11    1    1    2    0    0  0.30132900169E+01 -0.32986755885E+02  0.18018927277E+03  0.18320856967E+03  0.00000000000E+00 0.  1.
<mgrwt>
<rscale>  0 0.14292678E+03</rscale>
<asrwt>0</asrwt>
<pdfrwt beam="1">  1        2 0.56127342E-01 0.15025281E+03</pdfrwt>
<pdfrwt beam="2">  1       -2 0.13198833E-01 0.15025281E+03</pdfrwt>
<totfact> 0.36294622E+03</totfact>
</mgrwt>
</event>
<event>
 6    1  0.7457796E-006  0.1354336E+03  0.7546771E-02  0.1227889E+00
          1   -1    0    0  501    0  0.00000000000E+00  0.00000000000E+00  0.43338608796E+03  0.43338608796E+03  0.00000000000E+00 0. -1.
         -1   -1    0    0    0  501 -0.00000000000E+00 -0.00000000000E+00 -0.46208981343E+02  0.46208981343E+02  0.00000000000E+00 0.  1.
          5    1    1    2  502    0  0.38548444125E+02  0.32501439892E+02  0.34884345681E+02  0.61492550062E+02  0.47000000000E+01 0.  1.
         -5    1    1    2    0  502 -0.21715078309E+02 -0.81830889353E+02  0.58576748661E+02  0.10305903435E+03  0.47000000000E+01 0.  1.
        -11    1    1    2    0    0 -0.34072341754E+02 -0.87508588073E+01  0.36123795566E+02  0.50422520847E+02  0.00000000000E+00 0.  1.
         11    1    1    2    0    0  0.17238975939E+02  0.58080308268E+02  0.25759221671E+03  0.26462096404E+03  0.00000000000E+00 0. -1.
<mgrwt>
<rscale>  0 0.12970833E+03</rscale>
<asrwt>0</asrwt>
<pdfrwt beam="1">  1        1 0.66674780E-01 0.13543355E+03</pdfrwt>
<pdfrwt beam="2">  1       -1 0.71090744E-02 0.13543355E+03</pdfrwt>
<totfact> 0.54119645E+03</totfact>
</mgrwt>
</event>
<event>
 6    1  0.7457796E-006  0.1374339E+03  0.7546771E-02  0.1228386E+00
         -2   -1    0    0    0  501 -0.00000000000E+00  0.00000000000E+00  0.17383031641E+02  0.17383031641E+02  0.00000000000E+00 0.  1.
          2   -1    0    0  501    0  0.00000000000E+00 -0.00000000000E+00 -0.87015268904E+03  0.87015268904E+03  0.00000000000E+00 0. -1.
          5    1    1    2  502    0  0.15830461995E+02  0.70267181261E+02 -0.44461375213E+03  0.45043485530E+03  0.47000000000E+01 0.  1.
         -5    1    1    2    0  502  0.88686433338E+00 -0.15711224023E+02 -0.16427089145E+01  0.16505077438E+02  0.47000000000E+01 0.  1.
        -11    1    1    2    0    0 -0.92899284826E+01  0.25696787025E+02 -0.10118365321E+03  0.10480820250E+03  0.00000000000E+00 0.  1.
         11    1    1    2    0    0 -0.74273978453E+01 -0.80252744262E+02 -0.30532954314E+03  0.31578758544E+03  0.00000000000E+00 0. -1.
<mgrwt>
<rscale>  0 0.12937520E+03</rscale>
<asrwt>0</asrwt>
<pdfrwt beam="2">  1        2 0.13386961E+00 0.13743388E+03</pdfrwt>
<pdfrwt beam="1">  1       -2 0.26743132E-02 0.13743388E+03</pdfrwt>
<totfact> 0.15268353E+04</totfact>
</mgrwt>
</event>
<event>
 6    1  0.7457796E-006  0.3187166E+03  0.7546771E-02  0.1077502E+00
         -2   -1    0    0    0  501 -0.00000000000E+00  0.00000000000E+00  0.10229319719E+03  0.10229319719E+03  0.00000000000E+00 0.  1.
          2   -1    0    0  501    0  0.00000000000E+00 -0.00000000000E+00 -0.13163826692E+04  0.13163826692E+04  0.00000000000E+00 0. -1.
          5    1    1    2  502    0 -0.12268472224E+03 -0.10246473020E+03 -0.64730961820E+02  0.17251883788E+03  0.47000000000E+01 0.  1.
         -5    1    1    2    0  502 -0.55195559834E+02 -0.13058493979E+03 -0.18081681499E+03  0.22981685515E+03  0.47000000000E+01 0.  1.
        -11    1    1    2    0    0  0.71026688511E+02  0.88271145516E+02 -0.23269167992E+03  0.25880881654E+03  0.00000000000E+00 0.  1.
         11    1    1    2    0    0  0.10685359356E+03  0.14477852448E+03 -0.73585001528E+03  0.75753135684E+03  0.00000000000E+00 0. -1.
<mgrwt>
<rscale>  0 0.31600733E+03</rscale>
<asrwt>0</asrwt>
<pdfrwt beam="2">  1        2 0.20252041E+00 0.31871664E+03</pdfrwt>
<pdfrwt beam="1">  1       -2 0.15737415E-01 0.31871664E+03</pdfrwt>
<totfact> 0.54252664E+02</totfact>
</mgrwt>
</event>
<event>
 6    1  0.7457796E-006  0.1289236E+03  0.7546771E-02  0.1251107E+00
         -1   -1    0    0    0  501 -0.00000000000E+00  0.00000000000E+00  0.24312270786E+02  0.24312270786E+02  0.00000000000E+00 0.  1.
          1   -1    0    0  501    0  0.00000000000E+00 -0.00000000000E+00 -0.46101583608E+03  0.46101583608E+03  0.00000000000E+00 0. -1.
          5    1    1    2  502    0  0.41878351637E+02 -0.37377708074E+02 -0.16708057851E+03  0.17632044439E+03  0.47000000000E+01 0.  1.
         -5    1    1    2    0  502 -0.66025842784E+02  0.17039706145E+02 -0.11407460534E+03  0.13298446934E+03  0.47000000000E+01 0.  1.
        -11    1    1    2    0    0 -0.21717637189E+02  0.49613858406E+00 -0.13830071317E+02  0.25752141488E+02  0.00000000000E+00 0. -1.
         11    1    1    2    0    0  0.45865128336E+02  0.19841863345E+02 -0.14171831013E+03  0.15027105165E+03  0.00000000000E+00 0.  1.
<mgrwt>
<rscale>  0 0.11527203E+03</rscale>
<asrwt>0</asrwt>
<pdfrwt beam="2">  1        1 0.70925524E-01 0.12892359E+03</pdfrwt>
<pdfrwt beam="1">  1       -1 0.37403488E-02 0.12892359E+03</pdfrwt>
<totfact> 0.12898087E+04</totfact>
</mgrwt>
</event>
<event>
 6    1  0.7457796E-006  0.1374171E+03  0.7546771E-02  0.1228512E+00
         -1   -1    0    0    0  501 -0.00000000000E+00  0.00000000000E+00  0.62432331553E+02  0.62432331553E+02  0.00000000000E+00 0.  1.
          1   -1    0    0  501    0  0.00000000000E+00 -0.00000000000E+00 -0.24096948152E+03  0.24096948152E+03  0.00000000000E+00 0. -1.
          5    1    1    2  502    0 -0.95683632295E+01 -0.38739760758E+02 -0.76088999735E+02  0.86046199912E+02  0.47000000000E+01 0.  1.
         -5    1    1    2    0  502 -0.35113701277E+02  0.74313563591E+02 -0.30238652880E+02  0.87703727851E+02  0.47000000000E+01 0.  1.
        -11    1    1    2    0    0 -0.16648627370E+02  0.19109380208E+02 -0.14001277407E+02  0.28954809173E+02  0.00000000000E+00 0.  1.
         11    1    1    2    0    0  0.61330691877E+02 -0.54683183041E+02 -0.58208219949E+02  0.10069707614E+03  0.00000000000E+00 0. -1.
<mgrwt>
<rscale>  0 0.12929043E+03</rscale>
<asrwt>0</asrwt>
<pdfrwt beam="2">  1        1 0.37072228E-01 0.13741713E+03</pdfrwt>
<pdfrwt beam="1">  1       -1 0.96049740E-02 0.13741713E+03</pdfrwt>
<totfact> 0.71427372E+03</totfact>
</mgrwt>
</event>
<event>
 6    1  0.7457796E-006  0.1499495E+03  0.7546771E-02  0.1209380E+00
          2   -1    0    0  501    0  0.00000000000E+00  0.00000000000E+00  0.95892344098E+03  0.95892344098E+03  0.00000000000E+00 0.  1.
         -2   -1    0    0    0  501 -0.00000000000E+00 -0.00000000000E+00 -0.19760939044E+02  0.19760939044E+02  0.00000000000E+00 0. -1.
          5    1    1    2  502    0  0.66612396455E+01  0.56782828881E+02  0.44107225843E+03  0.44478701524E+03  0.47000000000E+01 0. -1.
         -5    1    1    2    0  502 -0.26408431215E+02  0.24496112792E+02  0.23205568087E+02  0.43105140893E+02  0.47000000000E+01 0. -1.
        -11    1    1    2    0    0 -0.24750033975E+02 -0.74886464962E+02  0.29209300409E+03  0.30255391231E+03  0.00000000000E+00 0. -1.
         11    1    1    2    0    0  0.44497225545E+02 -0.63924767110E+01  0.18279167133E+03  0.18823831158E+03  0.00000000000E+00 0.  1.
<mgrwt>
<rscale>  0 0.14297601E+03</rscale>
<asrwt>0</asrwt>
<pdfrwt beam="1">  1        2 0.14752665E+00 0.14994951E+03</pdfrwt>
<pdfrwt beam="2">  1       -2 0.30401452E-02 0.14994951E+03</pdfrwt>
<totfact> 0.11186651E+04</totfact>
</mgrwt>
</event>
<event>
 6    1  0.7457796E-006  0.1456000E+03  0.7546771E-02  0.1215643E+00
         -4   -1    0    0    0  501 -0.00000000000E+00  0.00000000000E+00  0.82348053635E+02  0.82348053635E+02  0.00000000000E+00 0.  1.
          4   -1    0    0  501    0  0.00000000000E+00 -0.00000000000E+00 -0.21319672458E+03  0.21319672458E+03  0.00000000000E+00 0. -1.
          5    1    1    2  502    0 -0.93781531051E+01 -0.80966986103E+01  0.27859121462E+02  0.30850071843E+02  0.47000000000E+01 0.  1.
         -5    1    1    2    0  502  0.72951819104E+02 -0.31042013411E+02 -0.11203898216E+03  0.13733316435E+03  0.47000000000E+01 0.  1.
        -11    1    1    2    0    0 -0.85764097070E+02  0.38628169022E+02 -0.27407997625E+02  0.97973537867E+02  0.00000000000E+00 0.  1.
         11    1    1    2    0    0  0.22190431071E+02  0.51054299855E+00 -0.19260812621E+02  0.29388004153E+02  0.00000000000E+00 0. -1.
<mgrwt>
<rscale>  0 0.13829402E+03</rscale>
<asrwt>0</asrwt>
<pdfrwt beam="2">  1        4 0.32799496E-01 0.14559997E+03</pdfrwt>
<pdfrwt beam="1">  1       -4 0.12668931E-01 0.14559997E+03</pdfrwt>
<totfact> 0.76086078E+02</totfact>
</mgrwt>
</event>
<event>
 6    1  0.7457796E-006  0.1393555E+03  0.7546771E-02  0.1224200E+00
          2   -1    0    0  501    0  0.00000000000E+00  0.00000000000E+00  0.44431234353E+03  0.44431234353E+03  0.00000000000E+00 0. -1.
         -2   -1    0    0    0  501 -0.00000000000E+00 -0.00000000000E+00 -0.36150665247E+02  0.36150665247E+02  0.00000000000E+00 0.  1.
          5    1    1    2  502    0  0.54144149425E+02  0.65526989822E+00  0.10838876058E+03  0.12125275962E+03  0.47000000000E+01 0.  1.
         -5    1    1    2    0  502 -0.52706679964E+02 -0.62072764606E+02  0.93740744502E+02  0.12425956462E+03  0.47000000000E+01 0.  1.
        -11    1    1    2    0    0 -0.11777953814E+01  0.82763807973E+02  0.11651361265E+03  0.14292185643E+03  0.00000000000E+00 0.  1.
         11    1    1    2    0    0 -0.25967407941E+00 -0.21346313265E+02  0.89518560557E+02  0.92028828118E+02  0.00000000000E+00 0. -1.
<mgrwt>
<rscale>  0 0.13221870E+03</rscale>
<asrwt>0</asrwt>
<pdfrwt beam="1">  1        2 0.68355741E-01 0.13935553E+03</pdfrwt>
<pdfrwt beam="2">  1       -2 0.55616411E-02 0.13935553E+03</pdfrwt>
<totfact> 0.11236824E+04</totfact>
</mgrwt>
</event>
<event>
 6    1  0.7457796E-006  0.1379263E+03  0.7546771E-02  0.1228230E+00
          2   -1    0    0  501    0  0.00000000000E+00  0.00000000000E+00  0.75541795694E+03  0.75541795694E+03  0.00000000000E+00 0. -1.
         -2   -1    0    0    0  501 -0.00000000000E+00 -0.00000000000E+00 -0.19872440826E+02  0.19872440826E+02  0.00000000000E+00 0.  1.
          5    1    1    2  502    0  0.51760477613E+02  0.25583709365E+02  0.41037431101E+03  0.41444280469E+03  0.47000000000E+01 0. -1.
         -5    1    1    2    0  502 -0.17045291781E+02  0.10237836330E+02  0.21687921603E+01  0.20546263020E+02  0.47000000000E+01 0.  1.
        -11    1    1    2    0    0  0.32722709226E+02 -0.12155581374E+02  0.12554218521E+03  0.13030492747E+03  0.00000000000E+00 0.  1.
         11    1    1    2    0    0 -0.67437895058E+02 -0.23665964321E+02  0.19746022774E+03  0.20999640258E+03  0.00000000000E+00 0. -1.
<mgrwt>
<rscale>  0 0.12947975E+03</rscale>
<asrwt>0</asrwt>
<pdfrwt beam="1">  1        2 0.11621812E+00 0.13792635E+03</pdfrwt>
<pdfrwt beam="2">  1       -2 0.30572992E-02 0.13792635E+03</pdfrwt>
<totfact> 0.14977698E+04</totfact>
</mgrwt>
</event>
<event>
 6    1  0.7457796E-006  0.1257723E+03  0.7546771E-02  0.1249074E+00
         -4   -1    0    0    0  501 -0.00000000000E+00  0.00000000000E+00  0.45818981862E+03  0.45818981862E+03  0.00000000000E+00 0.  1.
          4   -1    0    0  501    0  0.00000000000E+00 -0.00000000000E+00 -0.26216390431E+02  0.26216390431E+02  0.00000000000E+00 0. -1.
          5    1    1    2  502    0 -0.57782762753E+02 -0.38704902514E+02  0.15965038082E+03  0.17420462464E+03  0.47000000000E+01 0.  1.
         -5    1    1    2    0  502  0.45735087385E+02  0.31690602829E+02  0.11193842303E+03  0.12509313761E+03  0.47000000000E+01 0.  1.
        -11    1    1    2    0    0 -0.12535349030E+02  0.40748074472E+02  0.11867395314E+03  0.12609935647E+03  0.00000000000E+00 0.  1.
         11    1    1    2    0    0  0.24583024399E+02 -0.33733774787E+02  0.41710671197E+02  0.59009090331E+02  0.00000000000E+00 0. -1.
<mgrwt>
<rscale>  0 0.11644829E+03</rscale>
<asrwt>0</asrwt>
<pdfrwt beam="2">  1        4 0.40332912E-02 0.12577230E+03</pdfrwt>
<pdfrwt beam="1">  1       -4 0.70490735E-01 0.12577230E+03</pdfrwt>
<totfact> 0.10303090E+03</totfact>
</mgrwt>
</event>
<event>
 6    1  0.7457796E-006  0.1252535E+03  0.7546771E-02  0.1248584E+00
         -1   -1    0    0    0  501 -0.00000000000E+00  0.00000000000E+00  0.11973486534E+04  0.11973486534E+04  0.00000000000E+00 0.  1.
          1   -1    0    0  501    0  0.00000000000E+00 -0.00000000000E+00 -0.26178283637E+02  0.26178283637E+02  0.00000000000E+00 0. -1.
          5    1    1    2  502    0  0.56198254209E+02 -0.55416145112E+01  0.83338931304E+03  0.83531358804E+03  0.47000000000E+01 0. -1.
         -5    1    1    2    0  502 -0.50738537070E+02 -0.12653680977E+02  0.26164156507E+03  0.26685747761E+03  0.47000000000E+01 0.  1.
        -11    1    1    2    0    0 -0.33333923459E+02  0.14822382899E+02 -0.37527870937E+01  0.36673381341E+02  0.00000000000E+00 0. -1.
         11    1    1    2    0    0  0.27874206320E+02  0.33729125891E+01  0.79892278769E+02  0.84682490069E+02  0.00000000000E+00 0.  1.
<mgrwt>
<rscale>  0 0.11673442E+03</rscale>
<asrwt>0</asrwt>
<pdfrwt beam="2">  1        1 0.40274292E-02 0.12525348E+03</pdfrwt>
<pdfrwt beam="1">  1       -1 0.18420744E+00 0.12525348E+03</pdfrwt>
<totfact> 0.47836134E+02</totfact>
</mgrwt>
</event>
<event>
 6    1  0.7457796E-006  0.1321918E+03  0.7546771E-02  0.1236373E+00
         -2   -1    0    0    0  501 -0.00000000000E+00  0.00000000000E+00  0.48107725387E+02  0.48107725387E+02  0.00000000000E+00 0.  1.
          2   -1    0    0  501    0  0.00000000000E+00 -0.00000000000E+00 -0.33239271922E+03  0.33239271922E+03  0.00000000000E+00 0. -1.
          5    1    1    2  502    0 -0.49000008812E+02  0.50577331546E+02 -0.39343615889E+02  0.80802706892E+02  0.47000000000E+01 0.  1.
         -5    1    1    2    0  502  0.60128338811E+02 -0.90315619970E+01 -0.48440019543E+02  0.77881395299E+02  0.47000000000E+01 0.  1.
        -11    1    1    2    0    0  0.30917880876E+02 -0.20604147859E+02 -0.27005190389E+02  0.45931759980E+02  0.00000000000E+00 0.  1.
         11    1    1    2    0    0 -0.42046210876E+02 -0.20941621691E+02 -0.16949616801E+03  0.17588458243E+03  0.00000000000E+00 0. -1.
<mgrwt>
<rscale>  0 0.12416921E+03</rscale>
<asrwt>0</asrwt>
<pdfrwt beam="2">  1        2 0.51137340E-01 0.13219182E+03</pdfrwt>
<pdfrwt beam="1">  1       -2 0.74011887E-02 0.13219182E+03</pdfrwt>
<totfact> 0.98768134E+03</totfact>
</mgrwt>
</event>
<event>
 6    1  0.7457796E-006  0.1658691E+03  0.7546771E-02  0.1188922E+00
          1   -1    0    0  501    0  0.00000000000E+00  0.00000000000E+00  0.18583793070E+03  0.18583793070E+03  0.00000000000E+00 0. -1.
         -1   -1    0    0    0  501 -0.00000000000E+00 -0.00000000000E+00 -0.16239714217E+03  0.16239714217E+03  0.00000000000E+00 0.  1.
          5    1    1    2  502    0  0.35130700650E+02  0.25025059439E+02 -0.63063009977E+02  0.76547063663E+02  0.47000000000E+01 0.  1.
         -5    1    1    2    0  502 -0.63295502558E+02  0.80297591541E+02 -0.41929311252E+01  0.10243873546E+03  0.47000000000E+01 0.  1.
        -11    1    1    2    0    0  0.59701203776E+02 -0.88696097889E+02  0.62940515172E+02  0.12406748149E+03  0.00000000000E+00 0. -1.
         11    1    1    2    0    0 -0.31536401868E+02 -0.16626553092E+02  0.27756214461E+02  0.45181792259E+02  0.00000000000E+00 0.  1.
<mgrwt>
<rscale>  0 0.15980101E+03</rscale>
<asrwt>0</asrwt>
<pdfrwt beam="1">  1        1 0.28590451E-01 0.16586909E+03</pdfrwt>
<pdfrwt beam="2">  1       -1 0.24984176E-01 0.16586909E+03</pdfrwt>
<totfact> 0.22028744E+03</totfact>
</mgrwt>
</event>
<event>
 6    1  0.7457796E-006  0.1399548E+03  0.7546771E-02  0.1224518E+00
          1   -1    0    0  501    0  0.00000000000E+00  0.00000000000E+00  0.24588554095E+02  0.24588554095E+02  0.00000000000E+00 0. -1.
         -1   -1    0    0    0  501 -0.00000000000E+00 -0.00000000000E+00 -0.68105310504E+03  0.68105310504E+03  0.00000000000E+00 0.  1.
          5    1    1    2  502    0 -0.22932728105E+02  0.56406497850E+02 -0.15631533701E+03  0.16782186271E+03  0.47000000000E+01 0. -1.
         -5    1    1    2    0  502  0.73667215899E+02 -0.19145761584E+02 -0.29487265659E+03  0.30457411658E+03  0.47000000000E+01 0. -1.
        -11    1    1    2    0    0 -0.25417647400E+02 -0.86747721449E+01 -0.25767303909E+01  0.26980511682E+02  0.00000000000E+00 0. -1.
         11    1    1    2    0    0 -0.25316840394E+02 -0.28585964121E+02 -0.20269982694E+03  0.20626516816E+03  0.00000000000E+00 0.  1.
<mgrwt>
<rscale>  0 0.13200024E+03</rscale>
<asrwt>0</asrwt>
<pdfrwt beam="1">  1        1 0.37828544E-02 0.13995483E+03</pdfrwt>
<pdfrwt beam="2">  1       -1 0.10477740E+00 0.13995483E+03</pdfrwt>
<totfact> 0.21654783E+03</totfact>
</mgrwt>
</event>
<event>
 6    1  0.7457796E-006  0.1303383E+03  0.7546771E-02  0.1240286E+00
         -2   -1    0    0    0  501 -0.00000000000E+00  0.00000000000E+00  0.31142211683E+02  0.31142211683E+02  0.00000000000E+00 0.  1.
          2   -1    0    0  501    0  0.00000000000E+00 -0.00000000000E+00 -0.42305309886E+03  0.42305309886E+03  0.00000000000E+00 0. -1.
          5    1    1    2  502    0  0.41006517943E+02  0.23433761930E+02 -0.53614002345E+02  0.71604657386E+02  0.47000000000E+01 0.  1.
         -5    1    1    2    0  502 -0.76558869963E+02 -0.13473777824E+02 -0.17517463243E+03  0.19170562096E+03  0.47000000000E+01 0.  1.
        -11    1    1    2    0    0  0.46473526768E+01  0.28790228098E+02 -0.12499500114E+03  0.12835195920E+03  0.00000000000E+00 0. -1.
         11    1    1    2    0    0  0.30904999343E+02 -0.38750212204E+02 -0.38127251268E+02  0.62533073006E+02  0.00000000000E+00 0.  1.
<mgrwt>
<rscale>  0 0.12172039E+03</rscale>
<asrwt>0</asrwt>
<pdfrwt beam="2">  1        2 0.65085090E-01 0.13033826E+03</pdfrwt>
<pdfrwt beam="1">  1       -2 0.47911097E-02 0.13033826E+03</pdfrwt>
<totfact> 0.14747879E+04</totfact>
</mgrwt>
</event>
<event>
 6    1  0.7457796E-006  0.2817325E+03  0.7546771E-02  0.1094746E+00
         -2   -1    0    0    0  501 -0.00000000000E+00  0.00000000000E+00  0.25908240596E+02  0.25908240596E+02  0.00000000000E+00 0.  1.
          2   -1    0    0  501    0  0.00000000000E+00 -0.00000000000E+00 -0.76590685813E+03  0.76590685813E+03  0.00000000000E+00 0. -1.
          5    1    1    2  502    0  0.10520872245E+02  0.41764203582E+02 -0.14945718375E+03  0.15561001648E+03  0.47000000000E+01 0. -1.
         -5    1    1    2    0  502 -0.97183626621E+02 -0.39975417756E+02 -0.21649153030E+03  0.24069350635E+03  0.47000000000E+01 0. -1.
        -11    1    1    2    0    0  0.46761959186E+02  0.36256637127E+02 -0.10190345775E+03  0.11783691808E+03  0.00000000000E+00 0.  1.
         11    1    1    2    0    0  0.39900795190E+02 -0.38045422953E+02 -0.27214644574E+03  0.27767465782E+03  0.00000000000E+00 0. -1.
<mgrwt>
<rscale>  0 0.28173249E+03</rscale>
<asrwt>0</asrwt>
<pdfrwt beam="2">  1        2 0.11783182E+00 0.28173249E+03</pdfrwt>
<pdfrwt beam="1">  1       -2 0.39858832E-02 0.28173249E+03</pdfrwt>
<totfact> 0.10336519E+04</totfact>
</mgrwt>
</event>
<event>
 6    1  0.7457796E-006  0.1564420E+03  0.7546771E-02  0.1201066E+00
         -1   -1    0    0    0  501 -0.00000000000E+00  0.00000000000E+00  0.79113549115E+02  0.79113549115E+02  0.00000000000E+00 0. -1.
          1   -1    0    0  501    0  0.00000000000E+00 -0.00000000000E+00 -0.26357996611E+03  0.26357996611E+03  0.00000000000E+00 0.  1.
          5    1    1    2  502    0  0.13592942899E+02  0.11159015454E+03 -0.32436752818E+02  0.11709553202E+03  0.47000000000E+01 0. -1.
         -5    1    1    2    0  502 -0.27461723437E+02 -0.18546918964E+02 -0.48817577819E+02  0.59189360203E+02  0.47000000000E+01 0. -1.
        -11    1    1    2    0    0  0.32421657384E+02 -0.10016106782E+03 -0.10186451131E+03  0.14649157669E+03  0.00000000000E+00 0.  1.
         11    1    1    2    0    0 -0.18552876846E+02  0.71178322478E+01 -0.13475750422E+01  0.19917046309E+02  0.00000000000E+00 0. -1.
<mgrwt>
<rscale>  0 0.14951881E+03</rscale>
<asrwt>0</asrwt>
<pdfrwt beam="2">  1        1 0.40550764E-01 0.15644199E+03</pdfrwt>
<pdfrwt beam="1">  1       -1 0.12171315E-01 0.15644199E+03</pdfrwt>
<totfact> 0.44770949E+03</totfact>
</mgrwt>
</event>
<event>
 6    1  0.7457796E-006  0.1309461E+03  0.7546771E-02  0.1239375E+00
         -3   -1    0    0    0  501 -0.00000000000E+00  0.00000000000E+00  0.75220345108E+02  0.75220345108E+02  0.00000000000E+00 0.  1.
          3   -1    0    0  501    0  0.00000000000E+00 -0.00000000000E+00 -0.17881177937E+03  0.17881177937E+03  0.00000000000E+00 0. -1.
          5    1    1    2  502    0  0.39265169133E+02 -0.24353521058E+02  0.29775592254E+02  0.55168137443E+02  0.47000000000E+01 0.  1.
         -5    1    1    2    0  502 -0.33678305898E+02 -0.14245720281E+02 -0.74642625787E+02  0.83251308811E+02  0.47000000000E+01 0.  1.
        -11    1    1    2    0    0 -0.39848881473E+01  0.68658452336E+02 -0.34324290084E+02  0.76863640952E+02  0.00000000000E+00 0.  1.
         11    1    1    2    0    0 -0.16019750871E+01 -0.30059210997E+02 -0.24400110646E+02  0.38749037272E+02  0.00000000000E+00 0. -1.
<mgrwt>
<rscale>  0 0.12228441E+03</rscale>
<asrwt>0</asrwt>
<pdfrwt beam="2">  1        3 0.27509504E-01 0.13094614E+03</pdfrwt>
<pdfrwt beam="1">  1       -3 0.11572361E-01 0.13094614E+03</pdfrwt>
<totfact> 0.16621468E+03</totfact>
</mgrwt>
</event>
<event>
 6    1  0.7457796E-006  0.2894617E+03  0.7546771E-02  0.1092336E+00
         -1   -1    0    0    0  501 -0.00000000000E+00  0.00000000000E+00  0.32180297135E+03  0.32180297135E+03  0.00000000000E+00 0.  1.
          1   -1    0    0  501    0  0.00000000000E+00 -0.00000000000E+00 -0.24966675304E+03  0.24966675304E+03  0.00000000000E+00 0. -1.
          5    1    1    2  502    0 -0.41761526767E+02 -0.71568334586E+02 -0.16129028475E+02  0.84547543979E+02  0.47000000000E+01 0. -1.
         -5    1    1    2    0  502  0.75865303688E+02 -0.18727490511E+03  0.38776205506E+02  0.20579873299E+03  0.47000000000E+01 0. -1.
        -11    1    1    2    0    0  0.10056858627E+02  0.19723881617E+03  0.15646385518E+02  0.19811385713E+03  0.00000000000E+00 0.  1.
         11    1    1    2    0    0 -0.44160635547E+02  0.61604423529E+02  0.33842655770E+02  0.83009590288E+02  0.00000000000E+00 0. -1.
<mgrwt>
<rscale>  0 0.28622568E+03</rscale>
<asrwt>0</asrwt>
<pdfrwt beam="2">  1        1 0.38410270E-01 0.28946168E+03</pdfrwt>
<pdfrwt beam="1">  1       -1 0.49508149E-01 0.28946168E+03</pdfrwt>
<totfact> 0.46479910E+02</totfact>
</mgrwt>
</event>
<event>
 6    1  0.7457796E-006  0.1270005E+03  0.7546771E-02  0.1247150E+00
         -4   -1    0    0    0  501 -0.00000000000E+00  0.00000000000E+00  0.21811595653E+02  0.21811595653E+02  0.00000000000E+00 0. -1.
          4   -1    0    0  501    0  0.00000000000E+00 -0.00000000000E+00 -0.55648655497E+03  0.55648655497E+03  0.00000000000E+00 0.  1.
          5    1    1    2  502    0 -0.34488779050E+02  0.28510509386E+02 -0.21135690827E+03  0.21609293764E+03  0.47000000000E+01 0.  1.
         -5    1    1    2    0  502  0.56737271536E+02 -0.31393298623E+02 -0.90857984577E+02  0.11172251582E+03  0.47000000000E+01 0.  1.
        -11    1    1    2    0    0 -0.21481024418E+01 -0.27215653687E+02 -0.17345423459E+02  0.32344549226E+02  0.00000000000E+00 0. -1.
         11    1    1    2    0    0 -0.20100390044E+02  0.30098442924E+02 -0.21511464301E+03  0.21813814794E+03  0.00000000000E+00 0.  1.
<mgrwt>
<rscale>  0 0.11757591E+03</rscale>
<asrwt>0</asrwt>
<pdfrwt beam="2">  1        4 0.85613302E-01 0.12700051E+03</pdfrwt>
<pdfrwt beam="1">  1       -4 0.33556307E-02 0.12700051E+03</pdfrwt>
<totfact> 0.90100097E+02</totfact>
</mgrwt>
</event>
<event>
 6    1  0.7457796E-006  0.3592063E+03  0.7546771E-02  0.1058899E+00
         -1   -1    0    0    0  501 -0.00000000000E+00  0.00000000000E+00  0.58179101408E+02  0.58179101408E+02  0.00000000000E+00 0.  1.
          1   -1    0    0  501    0  0.00000000000E+00 -0.00000000000E+00 -0.55444809690E+03  0.55444809690E+03  0.00000000000E+00 0. -1.
          5    1    1    2  502    0  0.27923362700E+02 -0.46669743957E+02 -0.32031626907E+02  0.63292134644E+02  0.47000000000E+01 0.  1.
         -5    1    1    2    0  502 -0.67177998102E+02 -0.82286432707E+02 -0.27129716655E+03  0.29139008737E+03  0.47000000000E+01 0.  1.
        -11    1    1    2    0    0  0.49150213658E+02  0.42736043467E+02 -0.26655016457E+02  0.70374731375E+02  0.00000000000E+00 0.  1.
         11    1    1    2    0    0 -0.98955782570E+01  0.86220133197E+02 -0.16628518557E+03  0.18757024492E+03  0.00000000000E+00 0. -1.
<mgrwt>
<rscale>  0 0.35920630E+03</rscale>
<asrwt>0</asrwt>
<pdfrwt beam="2">  1        1 0.85299706E-01 0.35920630E+03</pdfrwt>
<pdfrwt beam="1">  1       -1 0.89506312E-02 0.35920630E+03</pdfrwt>
<totfact> 0.28508136E+03</totfact>
</mgrwt>
</event>
<event>
 6    1  0.7457796E-006  0.1260345E+03  0.7546771E-02  0.1248548E+00
          1   -1    0    0  501    0  0.00000000000E+00  0.00000000000E+00  0.42940378598E+03  0.42940378598E+03  0.00000000000E+00 0. -1.
         -1   -1    0    0    0  501 -0.00000000000E+00 -0.00000000000E+00 -0.38269758136E+02  0.38269758136E+02  0.00000000000E+00 0.  1.
          5    1    1    2  502    0 -0.40273957338E+02  0.20970785867E+02 -0.46889113245E+01  0.45889447469E+02  0.47000000000E+01 0. -1.
         -5    1    1    2    0  502  0.34866552278E+02 -0.35536139954E+02  0.10110367249E+03  0.11279422105E+03  0.47000000000E+01 0. -1.
        -11    1    1    2    0    0  0.11065847569E+02 -0.38157101501E+02  0.13194657264E+03  0.13779809654E+03  0.00000000000E+00 0.  1.
         11    1    1    2    0    0 -0.56584425094E+01  0.52722455588E+02  0.16277269403E+03  0.17119177906E+03  0.00000000000E+00 0. -1.
<mgrwt>
<rscale>  0 0.11675512E+03</rscale>
<asrwt>0</asrwt>
<pdfrwt beam="1">  1        1 0.66062118E-01 0.12603452E+03</pdfrwt>
<pdfrwt beam="2">  1       -1 0.58876554E-02 0.12603452E+03</pdfrwt>
<totfact> 0.72237396E+03</totfact>
</mgrwt>
</event>
<event>
 6    1  0.7457796E-006  0.1302194E+03  0.7546771E-02  0.1241567E+00
         -3   -1    0    0    0  501 -0.00000000000E+00  0.00000000000E+00  0.35123416597E+02  0.35123416597E+02  0.00000000000E+00 0.  1.
          3   -1    0    0  501    0  0.00000000000E+00 -0.00000000000E+00 -0.41484219178E+03  0.41484219178E+03  0.00000000000E+00 0. -1.
          5    1    1    2  502    0  0.25076707982E+01  0.51649028290E+02 -0.46083652372E+02  0.69424084812E+02  0.47000000000E+01 0.  1.
         -5    1    1    2    0  502  0.27055378835E+02 -0.72561337618E+02 -0.92803754680E+02  0.12096184573E+03  0.47000000000E+01 0.  1.
        -11    1    1    2    0    0  0.22331612985E+02 -0.91926421667E+01 -0.21982390939E+02  0.32656256980E+02  0.00000000000E+00 0.  1.
         11    1    1    2    0    0 -0.51894662619E+02  0.30104951495E+02 -0.21884897719E+03  0.22692342085E+03  0.00000000000E+00 0. -1.
<mgrwt>
<rscale>  0 0.12093246E+03</rscale>
<asrwt>0</asrwt>
<pdfrwt beam="2">  1        3 0.63821874E-01 0.13021939E+03</pdfrwt>
<pdfrwt beam="1">  1       -3 0.54036027E-02 0.13021939E+03</pdfrwt>
<totfact> 0.11164789E+03</totfact>
</mgrwt>
</event>
<event>
 6    1  0.1210492E-005  0.1862016E+03  0.7546771E-02  0.1166861E+00
          1   -1    0    0  501    0  0.00000000000E+00  0.00000000000E+00  0.53227522518E+03  0.53227522518E+03  0.00000000000E+00 0. -1.
         -1   -1    0    0    0  501 -0.00000000000E+00 -0.00000000000E+00 -0.70629359255E+02  0.70629359255E+02  0.00000000000E+00 0.  1.
          5    1    1    2  502    0  0.38992286756E+02 -0.62784865072E+02 -0.12961417900E+02  0.75182618088E+02  0.47000000000E+01 0. -1.
         -5    1    1    2    0  502  0.40495197369E+02 -0.50031640516E+02  0.12892695655E+03  0.14417793239E+03  0.47000000000E+01 0. -1.
        -11    1    1    2    0    0 -0.40009827770E+02  0.10703537654E+03  0.18062820512E+03  0.21373793915E+03  0.00000000000E+00 0.  1.
         11    1    1    2    0    0 -0.39477656354E+02  0.57811290473E+01  0.16505212216E+03  0.16980609481E+03  0.00000000000E+00 0. -1.
<mgrwt>
<rscale>  0 0.18097690E+03</rscale>
<asrwt>0</asrwt>
<pdfrwt beam="1">  1        1 0.81888493E-01 0.18620162E+03</pdfrwt>
<pdfrwt beam="2">  1       -1 0.10866056E-01 0.18620162E+03</pdfrwt>
<totfact> 0.21987349E+03</totfact>
</mgrwt>
</event>
<event>
 6    1  0.7457796E-006  0.1339857E+03  0.7546771E-02  0.1234050E+00
         -2   -1    0    0    0  501 -0.00000000000E+00  0.00000000000E+00  0.66478914910E+02  0.66478914910E+02  0.00000000000E+00 0.  1.
          2   -1    0    0  501    0  0.00000000000E+00 -0.00000000000E+00 -0.24596820951E+03  0.24596820951E+03  0.00000000000E+00 0. -1.
          5    1    1    2  502    0 -0.34888115557E+02 -0.22427326280E+02 -0.28543040487E+02  0.50566399233E+02  0.47000000000E+01 0. -1.
         -5    1    1    2    0  502  0.66199229040E+02  0.59117162775E+02 -0.13745473854E+02  0.89934447858E+02  0.47000000000E+01 0. -1.
        -11    1    1    2    0    0 -0.43034630279E+02 -0.61730305114E+02 -0.10900289016E+03  0.13245467163E+03  0.00000000000E+00 0. -1.
         11    1    1    2    0    0  0.11723516796E+02  0.25040468619E+02 -0.28197890095E+02  0.39491605697E+02  0.00000000000E+00 0.  1.
<mgrwt>
<rscale>  0 0.12565414E+03</rscale>
<asrwt>0</asrwt>
<pdfrwt beam="2">  1        2 0.37841263E-01 0.13398571E+03</pdfrwt>
<pdfrwt beam="1">  1       -2 0.10227525E-01 0.13398571E+03</pdfrwt>
<totfact> 0.82313775E+03</totfact>
</mgrwt>
</event>
<event>
 6    1  0.7457796E-006  0.2432561E+03  0.7546771E-02  0.1121741E+00
         -2   -1    0    0    0  501 -0.00000000000E+00  0.00000000000E+00  0.46193338715E+03  0.46193338715E+03  0.00000000000E+00 0. -1.
          2   -1    0    0  501    0  0.00000000000E+00 -0.00000000000E+00 -0.11683899783E+03  0.11683899783E+03  0.00000000000E+00 0.  1.
          5    1    1    2  502    0 -0.19713036172E+03 -0.76687208857E+02  0.14906397237E+03  0.25881164072E+03  0.47000000000E+01 0. -1.
         -5    1    1    2    0  502  0.93598864907E+01 -0.14371009844E+02  0.57917583031E+02  0.60586053042E+02  0.47000000000E+01 0. -1.
        -11    1    1    2    0    0  0.94956398162E+01 -0.49783745595E+01 -0.45736862407E+01  0.11656328522E+02  0.00000000000E+00 0. -1.
         11    1    1    2    0    0  0.17827483541E+03  0.96036593261E+02  0.14268652016E+03  0.24771836271E+03  0.00000000000E+00 0.  1.
<mgrwt>
<rscale>  0 0.23709847E+03</rscale>
<asrwt>0</asrwt>
<pdfrwt beam="2">  1        2 0.17975231E-01 0.24325608E+03</pdfrwt>
<pdfrwt beam="1">  1       -2 0.71066674E-01 0.24325608E+03</pdfrwt>
<totfact> 0.58062021E+02</totfact>
</mgrwt>
</event>
<event>
 6    1  0.7457796E-006  0.1322394E+03  0.7546771E-02  0.1237244E+00
          2   -1    0    0  501    0  0.00000000000E+00  0.00000000000E+00  0.18446545819E+03  0.18446545819E+03  0.00000000000E+00 0. -1.
         -2   -1    0    0    0  501 -0.00000000000E+00 -0.00000000000E+00 -0.94997358058E+02  0.94997358058E+02  0.00000000000E+00 0.  1.
          5    1    1    2  502    0  0.42624398801E+02  0.29992946864E+02  0.66502031305E+01  0.52751601269E+02  0.47000000000E+01 0.  1.
         -5    1    1    2    0  502 -0.76913224585E+02 -0.37870081713E+01 -0.22935833208E+02  0.80486818746E+02  0.47000000000E+01 0.  1.
        -11    1    1    2    0    0  0.24961996018E+02 -0.47338608974E+02  0.19544241929E+02  0.56973875920E+02  0.00000000000E+00 0.  1.
         11    1    1    2    0    0  0.93268297656E+01  0.21132670281E+02  0.86209488277E+02  0.89250520310E+02  0.00000000000E+00 0. -1.
<mgrwt>
<rscale>  0 0.12361851E+03</rscale>
<asrwt>0</asrwt>
<pdfrwt beam="1">  1        2 0.28379301E-01 0.13223938E+03</pdfrwt>
<pdfrwt beam="2">  1       -2 0.14614978E-01 0.13223938E+03</pdfrwt>
<totfact> 0.63316853E+03</totfact>
</mgrwt>
</event>
<event>
 6    1  0.7457796E-006  0.1767672E+03  0.7546771E-02  0.1176701E+00
          1   -1    0    0  501    0  0.00000000000E+00  0.00000000000E+00  0.13396222166E+03  0.13396222166E+03  0.00000000000E+00 0. -1.
         -1   -1    0    0    0  501 -0.00000000000E+00 -0.00000000000E+00 -0.29611821765E+03  0.29611821765E+03  0.00000000000E+00 0.  1.
          5    1    1    2  502    0  0.40537710696E+02 -0.60325365430E+02 -0.11351972440E+03  0.13487502931E+03  0.47000000000E+01 0. -1.
         -5    1    1    2    0  502 -0.81842502547E+02 -0.57618677380E+02 -0.89914309726E+02  0.13462830423E+03  0.47000000000E+01 0. -1.
        -11    1    1    2    0    0 -0.25647730859E+02  0.33524151440E+02 -0.65088271911E+01  0.42708777311E+02  0.00000000000E+00 0. -1.
         11    1    1    2    0    0  0.66952522710E+02  0.84419891370E+02  0.47786865324E+02  0.11786832846E+03  0.00000000000E+00 0.  1.
<mgrwt>
<rscale>  0 0.17110427E+03</rscale>
<asrwt>0</asrwt>
<pdfrwt beam="1">  1        1 0.20609573E-01 0.17676719E+03</pdfrwt>
<pdfrwt beam="2">  1       -1 0.45556648E-01 0.17676719E+03</pdfrwt>
<totfact> 0.11880644E+03</totfact>
</mgrwt>
</event>
<event>
 6    1  0.7457796E-006  0.1536011E+03  0.7546771E-02  0.1200731E+00
          3   -1    0    0  501    0  0.00000000000E+00  0.00000000000E+00  0.17158119178E+03  0.17158119178E+03  0.00000000000E+00 0. -1.
         -3   -1    0    0    0  501 -0.00000000000E+00 -0.00000000000E+00 -0.23649954604E+03  0.23649954604E+03  0.00000000000E+00 0.  1.
          5    1    1    2  502    0 -0.26952885348E+02 -0.50963427689E+02 -0.32922722830E+02  0.66556176791E+02  0.47000000000E+01 0. -1.
         -5    1    1    2    0  502  0.77043316614E+02 -0.39487985750E+02 -0.14060811379E+03  0.16518990682E+03  0.47000000000E+01 0.  1.
        -11    1    1    2    0    0  0.37558636334E+01  0.39150774400E+02 -0.59202372572E+01  0.39773594971E+02  0.00000000000E+00 0.  1.
         11    1    1    2    0    0 -0.53846294899E+02  0.51300639039E+02  0.11453271961E+03  0.13656105924E+03  0.00000000000E+00 0. -1.
<mgrwt>
<rscale>  0 0.14978993E+03</rscale>
<asrwt>0</asrwt>
<pdfrwt beam="1">  1        3 0.26397106E-01 0.15360109E+03</pdfrwt>
<pdfrwt beam="2">  1       -3 0.36384546E-01 0.15360109E+03</pdfrwt>
<totfact> 0.24034188E+02</totfact>
</mgrwt>
</event>
<event>
 6    1  0.7457796E-006  0.1336015E+03  0.7546771E-02  0.1234848E+00
          3   -1    0    0  501    0  0.00000000000E+00  0.00000000000E+00  0.54128766691E+02  0.54128766691E+02  0.00000000000E+00 0. -1.
         -3   -1    0    0    0  501 -0.00000000000E+00 -0.00000000000E+00 -0.26849106174E+03  0.26849106174E+03  0.00000000000E+00 0.  1.
          5    1    1    2  502    0 -0.31266013736E+02 -0.29155497069E+02 -0.16245206162E+02  0.45973942049E+02  0.47000000000E+01 0.  1.
         -5    1    1    2    0  502  0.19901950763E+02  0.74937295961E+02 -0.13565587676E+03  0.15632112099E+03  0.47000000000E+01 0.  1.
        -11    1    1    2    0    0  0.35678476738E+02 -0.10191390860E+02 -0.67400965804E+02  0.76939640897E+02  0.00000000000E+00 0.  1.
         11    1    1    2    0    0 -0.24314413765E+02 -0.35590408031E+02  0.49397536762E+01  0.43385124490E+02  0.00000000000E+00 0. -1.
<mgrwt>
<rscale>  0 0.12514167E+03</rscale>
<asrwt>0</asrwt>
<pdfrwt beam="1">  1        3 0.83275025E-02 0.13360147E+03</pdfrwt>
<pdfrwt beam="2">  1       -3 0.41306318E-01 0.13360147E+03</pdfrwt>
<totfact> 0.13370526E+03</totfact>
</mgrwt>
</event>
<event>
 6    1  0.7457796E-006  0.1929987E+03  0.7546771E-02  0.1160095E+00
         -1   -1    0    0    0  501 -0.00000000000E+00  0.00000000000E+00  0.53104167971E+03  0.53104167971E+03  0.00000000000E+00 0.  1.
          1   -1    0    0  501    0  0.00000000000E+00 -0.00000000000E+00 -0.65031211043E+02  0.65031211043E+02  0.00000000000E+00 0. -1.
          5    1    1    2  502    0 -0.15127409537E+01 -0.82275734532E+02  0.26381031223E+03  0.27638660554E+03  0.47000000000E+01 0.  1.
         -5    1    1    2    0  502 -0.20264006402E+02 -0.63132202761E+02  0.25087986344E+02  0.71047885540E+02  0.47000000000E+01 0.  1.
        -11    1    1    2    0    0  0.43274430255E+02  0.40127559072E+02  0.10093660717E+03  0.11692346205E+03  0.00000000000E+00 0.  1.
         11    1    1    2    0    0 -0.21497682900E+02  0.10528037822E+03  0.76175562921E+02  0.13171493763E+03  0.00000000000E+00 0. -1.
<mgrwt>
<rscale>  0 0.18819945E+03</rscale>
<asrwt>0</asrwt>
<pdfrwt beam="2">  1        1 0.10004802E-01 0.19299870E+03</pdfrwt>
<pdfrwt beam="1">  1       -1 0.81698717E-01 0.19299870E+03</pdfrwt>
<totfact> 0.99449949E+02</totfact>
</mgrwt>
</event>
<event>
 6    1  0.7457796E-006  0.2478468E+03  0.7546771E-02  0.1117215E+00
         -1   -1    0    0    0  501 -0.00000000000E+00  0.00000000000E+00  0.54471390861E+03  0.54471390861E+03  0.00000000000E+00 0.  1.
          1   -1    0    0  501    0  0.00000000000E+00 -0.00000000000E+00 -0.11391871256E+03  0.11391871256E+03  0.00000000000E+00 0. -1.
          5    1    1    2  502    0  0.33383389691E+02  0.18220902720E+03  0.18468742905E+03  0.26162208765E+03  0.47000000000E+01 0. -1.
         -5    1    1    2    0  502  0.48632824376E+02  0.15484323384E+02  0.12452849356E+03  0.13466384662E+03  0.47000000000E+01 0. -1.
        -11    1    1    2    0    0 -0.52424239565E+02 -0.43413889012E+02  0.80835719239E+01  0.68544954506E+02  0.00000000000E+00 0.  1.
         11    1    1    2    0    0 -0.29591974502E+02 -0.15427946157E+03  0.11349570151E+03  0.19380173239E+03  0.00000000000E+00 0. -1.
<mgrwt>
<rscale>  0 0.24391092E+03</rscale>
<asrwt>0</asrwt>
<pdfrwt beam="2">  1        1 0.17525956E-01 0.24784684E+03</pdfrwt>
<pdfrwt beam="1">  1       -1 0.83802139E-01 0.24784684E+03</pdfrwt>
<totfact> 0.45039142E+02</totfact>
</mgrwt>
</event>
<event>
 6    1  0.7457796E-006  0.1761046E+03  0.7546771E-02  0.1177583E+00
          1   -1    0    0  501    0  0.00000000000E+00  0.00000000000E+00  0.14536349946E+02  0.14536349946E+02  0.00000000000E+00 0. -1.
         -1   -1    0    0    0  501 -0.00000000000E+00 -0.00000000000E+00 -0.18905204663E+04  0.18905204663E+04  0.00000000000E+00 0.  1.
          5    1    1    2  502    0 -0.78179974693E+02  0.93019708601E+02 -0.10718279698E+04  0.10787038803E+04  0.47000000000E+01 0.  1.
         -5    1    1    2    0  502  0.13542961305E+02  0.12855324114E+02 -0.22113786193E+02  0.29322017304E+02  0.47000000000E+01 0.  1.
        -11    1    1    2    0    0  0.49363881642E+02 -0.12197876509E+03 -0.67683330227E+03  0.68950629512E+03  0.00000000000E+00 0. -1.
         11    1    1    2    0    0  0.15273131746E+02  0.16103732376E+02 -0.10520905812E+03  0.10752462350E+03  0.00000000000E+00 0.  1.
<mgrwt>
<rscale>  0 0.17025437E+03</rscale>
<asrwt>0</asrwt>
<pdfrwt beam="1">  1        1 0.22363621E-02 0.17610458E+03</pdfrwt>
<pdfrwt beam="2">  1       -1 0.29084923E+00 0.17610458E+03</pdfrwt>
<totfact> 0.22851224E+02</totfact>
</mgrwt>
</event>
<event>
 6    1  0.7457796E-006  0.1666405E+03  0.7546771E-02  0.1185148E+00
          1   -1    0    0  501    0  0.00000000000E+00  0.00000000000E+00  0.75394171005E+03  0.75394171005E+03  0.00000000000E+00 0. -1.
         -1   -1    0    0    0  501 -0.00000000000E+00 -0.00000000000E+00 -0.36148293773E+02  0.36148293773E+02  0.00000000000E+00 0.  1.
          5    1    1    2  502    0 -0.10735422036E+01 -0.12088569144E+03  0.24788534535E+03  0.27583280684E+03  0.47000000000E+01 0. -1.
         -5    1    1    2    0  502 -0.36375255111E+02  0.38252420610E+01  0.27326698465E+02  0.45898040374E+02  0.47000000000E+01 0.  1.
        -11    1    1    2    0    0  0.52910109412E+01  0.20244501343E+02  0.87261342541E+01  0.22671128124E+02  0.00000000000E+00 0.  1.
         11    1    1    2    0    0  0.32157786373E+02  0.96815948034E+02  0.43385523821E+03  0.44568802849E+03  0.00000000000E+00 0. -1.
<mgrwt>
<rscale>  0 0.16318395E+03</rscale>
<asrwt>0</asrwt>
<pdfrwt beam="1">  1        1 0.11599102E+00 0.16664054E+03</pdfrwt>
<pdfrwt beam="2">  1       -1 0.55612765E-02 0.16664054E+03</pdfrwt>
<totfact> 0.37187628E+03</totfact>
</mgrwt>
</event>
<event>
 6    1  0.7457796E-006  0.3577751E+03  0.7546771E-02  0.1060385E+00
          1   -1    0    0  501    0  0.00000000000E+00  0.00000000000E+00  0.84515282551E+03  0.84515282551E+03  0.00000000000E+00 0. -1.
         -1   -1    0    0    0  501 -0.00000000000E+00 -0.00000000000E+00 -0.16939503609E+03  0.16939503609E+03  0.00000000000E+00 0.  1.
          5    1    1    2  502    0 -0.16598160161E+02 -0.17385864268E+02 -0.20196693337E+02  0.31745292861E+02  0.47000000000E+01 0. -1.
         -5    1    1    2    0  502 -0.26292375883E+03 -0.16766811828E+03  0.18009102188E+03  0.36013381820E+03  0.47000000000E+01 0. -1.
        -11    1    1    2    0    0  0.11153827176E+03  0.36624338557E+02  0.24029583732E+03  0.26744011979E+03  0.00000000000E+00 0. -1.
         11    1    1    2    0    0  0.16798364724E+03  0.14842964399E+03  0.27556762355E+03  0.35522863075E+03  0.00000000000E+00 0.  1.
<mgrwt>
<rscale>  0 0.35548794E+03</rscale>
<asrwt>0</asrwt>
<pdfrwt beam="1">  1        1 0.13002351E+00 0.35777513E+03</pdfrwt>
<pdfrwt beam="2">  1       -1 0.26060775E-01 0.35777513E+03</pdfrwt>
<totfact> 0.27402903E+02</totfact>
</mgrwt>
</event>
<event>
 6    1  0.7457796E-006  0.1331703E+03  0.7546771E-02  0.1235458E+00
          1   -1    0    0  501    0  0.00000000000E+00  0.00000000000E+00  0.35946964731E+02  0.35946964731E+02  0.00000000000E+00 0. -1.
         -1   -1    0    0    0  501 -0.00000000000E+00 -0.00000000000E+00 -0.40610868645E+03  0.40610868645E+03  0.00000000000E+00 0.  1.
          5    1    1    2  502    0 -0.75379121768E+02  0.22960121826E+02 -0.21935397358E+03  0.23312536310E+03  0.47000000000E+01 0.  1.
         -5    1    1    2    0  502  0.40741274817E+02  0.73220457531E+01 -0.36838625568E+02  0.55611493069E+02  0.47000000000E+01 0.  1.
        -11    1    1    2    0    0  0.59030936418E+02  0.36059439961E+01 -0.52948948712E+02  0.79380384580E+02  0.00000000000E+00 0. -1.
         11    1    1    2    0    0 -0.24393089466E+02 -0.33888111575E+02 -0.61020173855E+02  0.73938410432E+02  0.00000000000E+00 0.  1.
<mgrwt>
<rscale>  0 0.12475143E+03</rscale>
<asrwt>0</asrwt>
<pdfrwt beam="1">  1        1 0.55303024E-02 0.13317028E+03</pdfrwt>
<pdfrwt beam="2">  1       -1 0.62478258E-01 0.13317028E+03</pdfrwt>
<totfact> 0.37256588E+03</totfact>
</mgrwt>
</event>
<event>
 6    1  0.7457796E-006  0.1526091E+03  0.7546771E-02  0.1205823E+00
         -1   -1    0    0    0  501 -0.00000000000E+00  0.00000000000E+00  0.78730525449E+03  0.78730525449E+03  0.00000000000E+00 0.  1.
          1   -1    0    0  501    0  0.00000000000E+00 -0.00000000000E+00 -0.24863758221E+02  0.24863758221E+02  0.00000000000E+00 0. -1.
          5    1    1    2  502    0 -0.11211942295E+03 -0.23991584169E+02  0.33092358385E+03  0.35025543459E+03  0.47000000000E+01 0. -1.
         -5    1    1    2    0  502  0.24575790128E+02  0.25317280956E+02  0.65848489696E+02  0.74853508739E+02  0.47000000000E+01 0. -1.
        -11    1    1    2    0    0 -0.11777078455E+02 -0.20327588489E+02  0.44120012982E+02  0.49984857470E+02  0.00000000000E+00 0. -1.
         11    1    1    2    0    0  0.99320711281E+02  0.19001891702E+02  0.32154940974E+03  0.33707521191E+03  0.00000000000E+00 0.  1.
<mgrwt>
<rscale>  0 0.14572805E+03</rscale>
<asrwt>0</asrwt>
<pdfrwt beam="2">  1        1 0.38251942E-02 0.15260909E+03</pdfrwt>
<pdfrwt beam="1">  1       -1 0.12112387E+00 0.15260909E+03</pdfrwt>
<totfact> 0.15340708E+03</totfact>
</mgrwt>
</event>
<event>
 6    1  0.7457796E-006  0.2104642E+03  0.7546771E-02  0.1145007E+00
         -1   -1    0    0    0  501 -0.00000000000E+00  0.00000000000E+00  0.26139084411E+03  0.26139084411E+03  0.00000000000E+00 0.  1.
          1   -1    0    0  501    0  0.00000000000E+00 -0.00000000000E+00 -0.15938201989E+03  0.15938201989E+03  0.00000000000E+00 0. -1.
          5    1    1    2  502    0  0.40496006996E+02  0.74502028896E+02 -0.19370315759E+02  0.87107852831E+02  0.47000000000E+01 0.  1.
         -5    1    1    2    0  502  0.79144870656E+02  0.45312769388E+02  0.10753133802E+03  0.14107528585E+03  0.47000000000E+01 0.  1.
        -11    1    1    2    0    0  0.21756788300E+01 -0.13984210087E+02 -0.23059070653E+02  0.27055728589E+02  0.00000000000E+00 0. -1.
         11    1    1    2    0    0 -0.12181655648E+03 -0.10583058820E+03  0.36906872616E+02  0.16553399674E+03  0.00000000000E+00 0.  1.
<mgrwt>
<rscale>  0 0.20571244E+03</rscale>
<asrwt>0</asrwt>
<pdfrwt beam="2">  1        1 0.24520311E-01 0.21046420E+03</pdfrwt>
<pdfrwt beam="1">  1       -1 0.40213976E-01 0.21046420E+03</pdfrwt>
<totfact> 0.11941156E+03</totfact>
</mgrwt>
</event>
<event>
 6    1  0.7457796E-006  0.1296841E+03  0.7546771E-02  0.1240736E+00
         -2   -1    0    0    0  501 -0.00000000000E+00  0.00000000000E+00  0.16387164167E+04  0.16387164167E+04  0.00000000000E+00 0.  1.
          2   -1    0    0  501    0  0.00000000000E+00 -0.00000000000E+00 -0.10660478060E+02  0.10660478060E+02  0.00000000000E+00 0. -1.
          5    1    1    2  502    0  0.82910172448E+00  0.13163196067E+02  0.13101370497E+02  0.19175323968E+02  0.47000000000E+01 0. -1.
         -5    1    1    2    0  502 -0.29923254398E+02  0.65471770513E+01  0.12880622962E+04  0.12884350335E+04  0.47000000000E+01 0.  1.
        -11    1    1    2    0    0 -0.10424231907E+02  0.31388983224E+02  0.80094981632E+02  0.86655288132E+02  0.00000000000E+00 0. -1.
         11    1    1    2    0    0  0.39518384580E+02 -0.51099356342E+02  0.24679729031E+03  0.25511124915E+03  0.00000000000E+00 0.  1.
<mgrwt>
<rscale>  0 0.12144230E+03</rscale>
<asrwt>0</asrwt>
<pdfrwt beam="2">  1        2 0.16400749E-02 0.12968408E+03</pdfrwt>
<pdfrwt beam="1">  1       -2 0.25211002E+00 0.12968408E+03</pdfrwt>
<totfact> 0.49295435E+02</totfact>
</mgrwt>
</event>
<event>
 6    1  0.7457796E-006  0.1457970E+03  0.7546771E-02  0.1215849E+00
         -1   -1    0    0    0  501 -0.00000000000E+00  0.00000000000E+00  0.15986049450E+03  0.15986049450E+03  0.00000000000E+00 0.  1.
          1   -1    0    0  501    0  0.00000000000E+00 -0.00000000000E+00 -0.10855737922E+03  0.10855737922E+03  0.00000000000E+00 0. -1.
          5    1    1    2  502    0 -0.58329419412E+02  0.36354625059E+02 -0.43987188871E+00  0.68893130422E+02  0.47000000000E+01 0.  1.
         -5    1    1    2    0  502  0.62107126739E+02  0.38665803595E+02  0.33516211433E+02  0.80608721539E+02  0.47000000000E+01 0.  1.
        -11    1    1    2    0    0  0.19273414588E+02 -0.32788235044E+01 -0.25238583915E+02  0.31924932443E+02  0.00000000000E+00 0.  1.
         11    1    1    2    0    0 -0.23051121915E+02 -0.71741605149E+02  0.43465359657E+02  0.86991089320E+02  0.00000000000E+00 0. -1.
<mgrwt>
<rscale>  0 0.13814364E+03</rscale>
<asrwt>0</asrwt>
<pdfrwt beam="2">  1        1 0.16701135E-01 0.14579698E+03</pdfrwt>
<pdfrwt beam="1">  1       -1 0.24593922E-01 0.14579698E+03</pdfrwt>
<totfact> 0.44474596E+03</totfact>
</mgrwt>
</event>
<event>
 6    1  0.7457796E-006  0.1900198E+03  0.7546771E-02  0.1163475E+00
          1   -1    0    0  501    0  0.00000000000E+00  0.00000000000E+00  0.22842638338E+03  0.22842638338E+03  0.00000000000E+00 0. -1.
         -1   -1    0    0    0  501 -0.00000000000E+00 -0.00000000000E+00 -0.14123543001E+03  0.14123543001E+03  0.00000000000E+00 0.  1.
          5    1    1    2  502    0  0.56939072582E+02  0.10072284314E+03  0.15054775940E+02  0.11677279390E+03  0.47000000000E+01 0.  1.
         -5    1    1    2    0  502  0.66994468316E+02 -0.29143915725E+02  0.25521222045E+02  0.77530957581E+02  0.47000000000E+01 0.  1.
        -11    1    1    2    0    0 -0.96561653254E+02 -0.52974523691E+01  0.34226491508E+02  0.10258493360E+03  0.00000000000E+00 0. -1.
         11    1    1    2    0    0 -0.27371887644E+02 -0.66281475043E+02  0.12388463877E+02  0.72773128312E+02  0.00000000000E+00 0.  1.
<mgrwt>
<rscale>  0 0.18454497E+03</rscale>
<asrwt>0</asrwt>
<pdfrwt beam="1">  1        1 0.35142521E-01 0.19001983E+03</pdfrwt>
<pdfrwt beam="2">  1       -1 0.21728528E-01 0.19001983E+03</pdfrwt>
<totfact> 0.21495643E+03</totfact>
</mgrwt>
</event>
<event>
 6    1  0.7457796E-006  0.1385800E+03  0.7546771E-02  0.1227058E+00
         -2   -1    0    0    0  501 -0.00000000000E+00  0.00000000000E+00  0.65313251112E+02  0.65313251112E+02  0.00000000000E+00 0.  1.
          2   -1    0    0  501    0  0.00000000000E+00 -0.00000000000E+00 -0.31525329824E+03  0.31525329824E+03  0.00000000000E+00 0. -1.
          5    1    1    2  502    0 -0.48181545720E+02 -0.30869568590E+01  0.29295123034E+02  0.56668199938E+02  0.47000000000E+01 0.  1.
         -5    1    1    2    0  502  0.13459982242E+02  0.51810964818E+02 -0.69060664556E+02  0.87504357528E+02  0.47000000000E+01 0.  1.
        -11    1    1    2    0    0 -0.56787992893E-01 -0.10776113465E+02  0.72312978972E+01  0.12977654471E+02  0.00000000000E+00 0.  1.
         11    1    1    2    0    0  0.34778351470E+02 -0.37947894495E+02 -0.21740580350E+03  0.22341633741E+03  0.00000000000E+00 0. -1.
<mgrwt>
<rscale>  0 0.13026854E+03</rscale>
<asrwt>0</asrwt>
<pdfrwt beam="2">  1        2 0.48500508E-01 0.13858004E+03</pdfrwt>
<pdfrwt beam="1">  1       -2 0.10048192E-01 0.13858004E+03</pdfrwt>
<totfact> 0.65183629E+03</totfact>
</mgrwt>
</event>
<event>
 6    1  0.7457796E-006  0.3300465E+03  0.7546771E-02  0.1096554E+00
         -2   -1    0    0    0  501 -0.00000000000E+00  0.00000000000E+00  0.22997213413E+03  0.22997213413E+03  0.00000000000E+00 0.  1.
          2   -1    0    0  501    0  0.00000000000E+00 -0.00000000000E+00 -0.35268281959E+03  0.35268281959E+03  0.00000000000E+00 0. -1.
          5    1    1    2  502    0 -0.12518051201E+03  0.36913651498E+02 -0.72902292433E+02  0.14956474349E+03  0.47000000000E+01 0. -1.
         -5    1    1    2    0  502  0.24453638094E+02 -0.12792803454E+03  0.13243451636E+03  0.18580784042E+03  0.47000000000E+01 0.  1.
        -11    1    1    2    0    0  0.10545892250E+03  0.10332321397E+03 -0.18165106592E+03  0.23408199552E+03  0.00000000000E+00 0. -1.
         11    1    1    2    0    0 -0.47320485812E+01 -0.12308830928E+02 -0.59184346611E+00  0.13200374286E+02  0.00000000000E+00 0.  1.
<mgrwt>
<rscale>  0 0.27842104E+03</rscale>
<asrwt>0</asrwt>
<pdfrwt beam="2">  1        2 0.54258895E-01 0.33004649E+03</pdfrwt>
<pdfrwt beam="1">  1       -2 0.35380328E-01 0.33004649E+03</pdfrwt>
<totfact> 0.69225043E+02</totfact>
</mgrwt>
</event>
<event>
 6    1  0.7457796E-006  0.1549164E+03  0.7546771E-02  0.1202983E+00
          2   -1    0    0  501    0  0.00000000000E+00  0.00000000000E+00  0.71247510662E+03  0.71247510662E+03  0.00000000000E+00 0. -1.
         -2   -1    0    0    0  501 -0.00000000000E+00 -0.00000000000E+00 -0.35669889140E+02  0.35669889140E+02  0.00000000000E+00 0.  1.
          5    1    1    2  502    0 -0.36970437792E+02  0.44881383014E+02  0.17964399007E+03  0.18887881030E+03  0.47000000000E+01 0. -1.
         -5    1    1    2    0  502  0.32880275256E+02  0.46537778986E+02  0.13554676500E+02  0.58759651368E+02  0.47000000000E+01 0. -1.
        -11    1    1    2    0    0  0.39734851799E+02 -0.72400552522E+02  0.24609194412E+03  0.25958032170E+03  0.00000000000E+00 0.  1.
         11    1    1    2    0    0 -0.35644689264E+02 -0.19018609478E+02  0.23751460679E+03  0.24092621240E+03  0.00000000000E+00 0. -1.
<mgrwt>
<rscale>  0 0.14797536E+03</rscale>
<asrwt>0</asrwt>
<pdfrwt beam="1">  1        2 0.10961154E+00 0.15491637E+03</pdfrwt>
<pdfrwt beam="2">  1       -2 0.54876758E-02 0.15491637E+03</pdfrwt>
<totfact> 0.67676857E+03</totfact>
</mgrwt>
</event>
<event>
 6    1  0.7457796E-006  0.1267002E+03  0.7546771E-02  0.1245984E+00
         -1   -1    0    0    0  501 -0.00000000000E+00  0.00000000000E+00  0.43080023111E+02  0.43080023111E+02  0.00000000000E+00 0.  1.
          1   -1    0    0  501    0  0.00000000000E+00 -0.00000000000E+00 -0.30010648450E+03  0.30010648450E+03  0.00000000000E+00 0. -1.
          5    1    1    2  502    0  0.50523707563E+02 -0.37417116101E+01 -0.74822561325E+02  0.90482877468E+02  0.47000000000E+01 0.  1.
         -5    1    1    2    0  502 -0.68791616799E+02 -0.59636520448E+01 -0.36858450002E+02  0.78412288732E+02  0.47000000000E+01 0.  1.
        -11    1    1    2    0    0  0.23696661533E+02  0.38974137198E+02 -0.13544670127E+03  0.14292069137E+03  0.00000000000E+00 0.  1.
         11    1    1    2    0    0 -0.54287522962E+01 -0.29268773543E+02 -0.98987487940E+01  0.31370650039E+02  0.00000000000E+00 0. -1.
<mgrwt>
<rscale>  0 0.11826693E+03</rscale>
<asrwt>0</asrwt>
<pdfrwt beam="2">  1        1 0.46170229E-01 0.12670015E+03</pdfrwt>
<pdfrwt beam="1">  1       -1 0.66276958E-02 0.12670015E+03</pdfrwt>
<totfact> 0.94737132E+03</totfact>
</mgrwt>
</event>
<event>
 6    1  0.7457796E-006  0.1488583E+03  0.7546771E-02  0.1209741E+00
         -1   -1    0    0    0  501 -0.00000000000E+00  0.00000000000E+00  0.51370368426E+02  0.51370368426E+02  0.00000000000E+00 0.  1.
          1   -1    0    0  501    0  0.00000000000E+00 -0.00000000000E+00 -0.37822682974E+03  0.37822682974E+03  0.00000000000E+00 0. -1.
          5    1    1    2  502    0 -0.30562373959E+02  0.18692645234E+02  0.85393117161E+01  0.37127934664E+02  0.47000000000E+01 0. -1.
         -5    1    1    2    0  502 -0.32114629002E+02 -0.69741905115E+02 -0.14827156451E+03  0.16703840746E+03  0.47000000000E+01 0. -1.
        -11    1    1    2    0    0  0.22133949691E+02 -0.15319651398E+02 -0.11910842692E+03  0.12211232866E+03  0.00000000000E+00 0. -1.
         11    1    1    2    0    0  0.40543053270E+02  0.66368911278E+02 -0.68015781598E+02  0.10331852738E+03  0.00000000000E+00 0.  1.
<mgrwt>
<rscale>  0 0.14270011E+03</rscale>
<asrwt>0</asrwt>
<pdfrwt beam="2">  1        1 0.58188742E-01 0.14885830E+03</pdfrwt>
<pdfrwt beam="1">  1       -1 0.79031337E-02 0.14885830E+03</pdfrwt>
<totfact> 0.55101242E+03</totfact>
</mgrwt>
</event>
<event>
 6    1  0.7457796E-006  0.1551960E+03  0.7546771E-02  0.1204814E+00
         -2   -1    0    0    0  501 -0.00000000000E+00  0.00000000000E+00  0.20824979957E+03  0.20824979957E+03  0.00000000000E+00 0.  1.
          2   -1    0    0  501    0  0.00000000000E+00 -0.00000000000E+00 -0.93608476775E+02  0.93608476775E+02  0.00000000000E+00 0. -1.
          5    1    1    2  502    0 -0.56125028156E+02 -0.94768068489E+02  0.19894929028E+02  0.11202188979E+03  0.47000000000E+01 0. -1.
         -5    1    1    2    0  502 -0.28832212403E+01  0.24205107894E+02  0.54910887177E+02  0.60261892963E+02  0.47000000000E+01 0. -1.
        -11    1    1    2    0    0  0.58968317969E+02  0.36413475463E+02  0.58467049755E+02  0.90673036932E+02  0.00000000000E+00 0.  1.
         11    1    1    2    0    0  0.39931427050E-01  0.34149485131E+02 -0.18631543171E+02  0.38901456659E+02  0.00000000000E+00 0. -1.
<mgrwt>
<rscale>  0 0.14652117E+03</rscale>
<asrwt>0</asrwt>
<pdfrwt beam="2">  1        2 0.14401304E-01 0.15519598E+03</pdfrwt>
<pdfrwt beam="1">  1       -2 0.32038431E-01 0.15519598E+03</pdfrwt>
<totfact> 0.35826432E+03</totfact>
</mgrwt>
</event>
<event>
 6    1  0.7457796E-006  0.3341664E+03  0.7546771E-02  0.1069308E+00
          2   -1    0    0  501    0  0.00000000000E+00  0.00000000000E+00  0.85999795597E+03  0.85999795597E+03  0.00000000000E+00 0. -1.
         -2   -1    0    0    0  501 -0.00000000000E+00 -0.00000000000E+00 -0.32461462995E+02  0.32461462995E+02  0.00000000000E+00 0.  1.
          5    1    1    2  502    0  0.27134994625E+02  0.13782569373E+02  0.21214749245E+02  0.37395490869E+02  0.47000000000E+01 0.  1.
         -5    1    1    2    0  502 -0.11171089654E+03  0.66262771026E+02  0.28541614161E+03  0.31361527884E+03  0.47000000000E+01 0.  1.
        -11    1    1    2    0    0  0.65525512628E+02 -0.13953140154E+02  0.15088856683E+03  0.16509283002E+03  0.00000000000E+00 0.  1.
         11    1    1    2    0    0  0.19050389287E+02 -0.66092200245E+02  0.37001703529E+03  0.37635581923E+03  0.00000000000E+00 0. -1.
<mgrwt>
<rscale>  0 0.33416638E+03</rscale>
<asrwt>0</asrwt>
<pdfrwt beam="1">  1        2 0.13230736E+00 0.33416638E+03</pdfrwt>
<pdfrwt beam="2">  1       -2 0.49940719E-02 0.33416638E+03</pdfrwt>
<totfact> 0.63545673E+03</totfact>
</mgrwt>
</event>
<event>
 6    1  0.7457796E-006  0.1284723E+03  0.7546771E-02  0.1241511E+00
         -1   -1    0    0    0  501 -0.00000000000E+00  0.00000000000E+00  0.11403034025E+03  0.11403034025E+03  0.00000000000E+00 0.  1.
          1   -1    0    0  501    0  0.00000000000E+00 -0.00000000000E+00 -0.11642877690E+03  0.11642877690E+03  0.00000000000E+00 0. -1.
          5    1    1    2  502    0  0.25503834995E+02  0.17554516149E+02 -0.41374057886E+02  0.51889394895E+02  0.47000000000E+01 0.  1.
         -5    1    1    2    0  502 -0.35523469339E+02 -0.45465850081E+02  0.50646709878E+02  0.76917095752E+02  0.47000000000E+01 0.  1.
        -11    1    1    2    0    0 -0.26782371490E+02 -0.17353608266E+02 -0.26475556482E+02  0.41465627133E+02  0.00000000000E+00 0. -1.
         11    1    1    2    0    0  0.36802005834E+02  0.45264942198E+02  0.14804467832E+02  0.60186999372E+02  0.00000000000E+00 0.  1.
<mgrwt>
<rscale>  0 0.12096685E+03</rscale>
<asrwt>0</asrwt>
<pdfrwt beam="2">  1        1 0.17912120E-01 0.12847229E+03</pdfrwt>
<pdfrwt beam="1">  1       -1 0.17543129E-01 0.12847229E+03</pdfrwt>
<totfact> 0.69512380E+03</totfact>
</mgrwt>
</event>
<event>
 6    1  0.7457796E-006  0.1330734E+03  0.7546771E-02  0.1236500E+00
         -2   -1    0    0    0  501 -0.00000000000E+00  0.00000000000E+00  0.93245295444E+02  0.93245295444E+02  0.00000000000E+00 0.  1.
          2   -1    0    0  501    0  0.00000000000E+00 -0.00000000000E+00 -0.23870092451E+03  0.23870092451E+03  0.00000000000E+00 0. -1.
          5    1    1    2  502    0 -0.73230568723E+02  0.38111654193E+02  0.17662481285E+02  0.84553341897E+02  0.47000000000E+01 0.  1.
         -5    1    1    2    0  502  0.50016228803E+02  0.11858250623E+01  0.60012295177E+01  0.50607648438E+02  0.47000000000E+01 0.  1.
        -11    1    1    2    0    0  0.52334444284E+02 -0.82457075227E+00 -0.90038080709E+02  0.10414619510E+03  0.00000000000E+00 0.  1.
         11    1    1    2    0    0 -0.29120104364E+02 -0.38472908503E+02 -0.79081259158E+02  0.92639034521E+02  0.00000000000E+00 0. -1.
<mgrwt>
<rscale>  0 0.12408876E+03</rscale>
<asrwt>0</asrwt>
<pdfrwt beam="2">  1        2 0.36723219E-01 0.13307337E+03</pdfrwt>
<pdfrwt beam="1">  1       -2 0.14345430E-01 0.13307337E+03</pdfrwt>
<totfact> 0.49469115E+03</totfact>
</mgrwt>
</event>
<event>
 6    1  0.7457796E-006  0.2743793E+03  0.7546771E-02  0.1098799E+00
          1   -1    0    0  501    0  0.00000000000E+00  0.00000000000E+00  0.12106172074E+02  0.12106172074E+02  0.00000000000E+00 0. -1.
         -1   -1    0    0    0  501 -0.00000000000E+00 -0.00000000000E+00 -0.15546618983E+04  0.15546618983E+04  0.00000000000E+00 0.  1.
          5    1    1    2  502    0 -0.26141885022E+02 -0.29197645152E+02 -0.28694476010E+03  0.28964682975E+03  0.47000000000E+01 0. -1.
         -5    1    1    2    0  502  0.29745267717E+02  0.99301101690E+02 -0.82835326630E+03  0.83482735553E+03  0.47000000000E+01 0. -1.
        -11    1    1    2    0    0  0.38017517984E+02 -0.36422265363E+02 -0.13006762730E+03  0.14031928149E+03  0.00000000000E+00 0.  1.
         11    1    1    2    0    0 -0.41620900678E+02 -0.33681191175E+02 -0.29719007256E+03  0.30197460364E+03  0.00000000000E+00 0. -1.
<mgrwt>
<rscale>  0 0.27437933E+03</rscale>
<asrwt>0</asrwt>
<pdfrwt beam="1">  1        1 0.18624892E-02 0.27437933E+03</pdfrwt>
<pdfrwt beam="2">  1       -1 0.23917860E+00 0.27437933E+03</pdfrwt>
<totfact> 0.62167184E+02</totfact>
</mgrwt>
</event>
<event>
 6    1  0.7457796E-006  0.1522262E+03  0.7546771E-02  0.1206264E+00
         -1   -1    0    0    0  501 -0.00000000000E+00  0.00000000000E+00  0.46417242069E+02  0.46417242069E+02  0.00000000000E+00 0.  1.
          1   -1    0    0  501    0  0.00000000000E+00 -0.00000000000E+00 -0.43976921391E+03  0.43976921391E+03  0.00000000000E+00 0. -1.
          5    1    1    2  502    0 -0.48330018217E+02 -0.10317269884E+02 -0.61068372635E+01  0.50016199176E+02  0.47000000000E+01 0. -1.
         -5    1    1    2    0  502 -0.12372468827E+02  0.72529114838E+02 -0.15495272727E+03  0.17159833382E+03  0.47000000000E+01 0. -1.
        -11    1    1    2    0    0  0.34400126148E+02 -0.15795794469E+02 -0.14819839395E+02  0.40650995579E+02  0.00000000000E+00 0.  1.
         11    1    1    2    0    0  0.26302360896E+02 -0.46416050484E+02 -0.21747256791E+03  0.22392092739E+03  0.00000000000E+00 0. -1.
<mgrwt>
<rscale>  0 0.14538268E+03</rscale>
<asrwt>0</asrwt>
<pdfrwt beam="2">  1        1 0.67656801E-01 0.15222621E+03</pdfrwt>
<pdfrwt beam="1">  1       -1 0.71411143E-02 0.15222621E+03</pdfrwt>
<totfact> 0.53094840E+03</totfact>
</mgrwt>
</event>
<event>
 6    1  0.7457796E-006  0.1402955E+03  0.7546771E-02  0.1214250E+00
          1   -1    0    0  501    0  0.00000000000E+00  0.00000000000E+00  0.53728208874E+02  0.53728208874E+02  0.00000000000E+00 0. -1.
         -1   -1    0    0    0  501 -0.00000000000E+00 -0.00000000000E+00 -0.43227927668E+03  0.43227927668E+03  0.00000000000E+00 0.  1.
          5    1    1    2  502    0  0.16366659370E+02 -0.39356316379E+02 -0.24747119295E+02  0.49510575550E+02  0.47000000000E+01 0.  1.
         -5    1    1    2    0  502 -0.61564632928E+02 -0.55277677506E+01 -0.26857894189E+03  0.27564016084E+03  0.47000000000E+01 0.  1.
        -11    1    1    2    0    0  0.34768494330E+02 -0.24092605527E+02 -0.80498926161E+02  0.90936125671E+02  0.00000000000E+00 0.  1.
         11    1    1    2    0    0  0.10429479229E+02  0.68976689657E+02 -0.47260804653E+01  0.69920623493E+02  0.00000000000E+00 0. -1.
<mgrwt>
<rscale>  0 0.13931751E+03</rscale>
<asrwt>0</asrwt>
<pdfrwt beam="1">  1        1 0.82658783E-02 0.14029549E+03</pdfrwt>
<pdfrwt beam="2">  1       -1 0.66504504E-01 0.14029549E+03</pdfrwt>
<totfact> 0.19234671E+03</totfact>
</mgrwt>
</event>
<event>
 6    1  0.7457796E-006  0.1297347E+03  0.7546771E-02  0.1241549E+00
         -1   -1    0    0    0  501 -0.00000000000E+00  0.00000000000E+00  0.92514920614E+02  0.92514920614E+02  0.00000000000E+00 0.  1.
          1   -1    0    0  501    0  0.00000000000E+00 -0.00000000000E+00 -0.14082360078E+03  0.14082360078E+03  0.00000000000E+00 0. -1.
          5    1    1    2  502    0 -0.81100822735E+00  0.34919567069E+02 -0.54972621355E+02  0.65300176089E+02  0.47000000000E+01 0. -1.
         -5    1    1    2    0  502 -0.32554844567E+02 -0.44631673905E+02  0.35577801138E+02  0.65876203246E+02  0.47000000000E+01 0. -1.
        -11    1    1    2    0    0  0.48213305954E+02  0.87231878107E+00  0.18538130649E+02  0.51661843744E+02  0.00000000000E+00 0.  1.
         11    1    1    2    0    0 -0.14847453160E+02  0.88397880547E+01 -0.47451990601E+02  0.50500298318E+02  0.00000000000E+00 0. -1.
<mgrwt>
<rscale>  0 0.12094338E+03</rscale>
<asrwt>0</asrwt>
<pdfrwt beam="2">  1        1 0.21665169E-01 0.12973467E+03</pdfrwt>
<pdfrwt beam="1">  1       -1 0.14233065E-01 0.12973467E+03</pdfrwt>
<totfact> 0.75878686E+03</totfact>
</mgrwt>
</event>
<event>
 6    1  0.7457796E-006  0.1510197E+03  0.7546771E-02  0.1208259E+00
          2   -1    0    0  501    0  0.00000000000E+00  0.00000000000E+00  0.30591379985E+03  0.30591379985E+03  0.00000000000E+00 0. -1.
         -2   -1    0    0    0  501 -0.00000000000E+00 -0.00000000000E+00 -0.62118084310E+02  0.62118084310E+02  0.00000000000E+00 0.  1.
          5    1    1    2  502    0 -0.62546878043E+02 -0.72993390767E+02  0.73936646037E+02  0.12136253407E+03  0.47000000000E+01 0.  1.
         -5    1    1    2    0  502 -0.19226596926E+02  0.50852931145E+02  0.49751100438E+02  0.73844056160E+02  0.47000000000E+01 0.  1.
        -11    1    1    2    0    0 -0.13496463293E+02  0.12447458011E+02 -0.10525249506E+01  0.18390256690E+02  0.00000000000E+00 0.  1.
         11    1    1    2    0    0  0.95269938262E+02  0.96930016117E+01  0.12116049401E+03  0.15443503724E+03  0.00000000000E+00 0. -1.
<mgrwt>
<rscale>  0 0.14383530E+03</rscale>
<asrwt>0</asrwt>
<pdfrwt beam="1">  1        2 0.47063661E-01 0.15101971E+03</pdfrwt>
<pdfrwt beam="2">  1       -2 0.95566285E-02 0.15101971E+03</pdfrwt>
<totfact> 0.73214306E+03</totfact>
</mgrwt>
</event>
<event>
 6    1  0.7457796E-006  0.1987995E+03  0.7546771E-02  0.1166004E+00
          1   -1    0    0  501    0  0.00000000000E+00  0.00000000000E+00  0.45338103907E+03  0.45338103907E+03  0.00000000000E+00 0. -1.
         -1   -1    0    0    0  501 -0.00000000000E+00 -0.00000000000E+00 -0.63506271844E+02  0.63506271844E+02  0.00000000000E+00 0.  1.
          5    1    1    2  502    0 -0.11679973568E+02 -0.12331780253E+02  0.19759871585E+03  0.19838305646E+03  0.47000000000E+01 0. -1.
         -5    1    1    2    0  502 -0.54057966014E+02 -0.69167223614E+02  0.90668471132E+01  0.88377973662E+02  0.47000000000E+01 0.  1.
        -11    1    1    2    0    0  0.88944581098E+02  0.69386622737E+02  0.15410277419E+03  0.19097986002E+03  0.00000000000E+00 0. -1.
         11    1    1    2    0    0 -0.23206641516E+02  0.12112381130E+02  0.29106430079E+02  0.39146420769E+02  0.00000000000E+00 0.  1.
<mgrwt>
<rscale>  0 0.18187191E+03</rscale>
<asrwt>0</asrwt>
<pdfrwt beam="1">  1        1 0.69750927E-01 0.19879948E+03</pdfrwt>
<pdfrwt beam="2">  1       -1 0.97701960E-02 0.19879948E+03</pdfrwt>
<totfact> 0.32056238E+03</totfact>
</mgrwt>
</event>
<event>
 6    1  0.7457796E-006  0.1251105E+03  0.7546771E-02  0.1281817E+00
         -2   -1    0    0    0  501 -0.00000000000E+00  0.00000000000E+00  0.30715112380E+02  0.30715112380E+02  0.00000000000E+00 0.  1.
          2   -1    0    0  501    0  0.00000000000E+00 -0.00000000000E+00 -0.25561740581E+03  0.25561740581E+03  0.00000000000E+00 0. -1.
          5    1    1    2  502    0  0.53819012590E+01 -0.61003759031E+02 -0.65806322796E+02  0.90016585122E+02  0.47000000000E+01 0. -1.
         -5    1    1    2    0  502 -0.10144407151E+02  0.62672261004E+02 -0.72219903651E+02  0.96273183074E+02  0.47000000000E+01 0. -1.
        -11    1    1    2    0    0  0.24990643484E+02 -0.35449083436E+01 -0.27692412694E+02  0.37469565753E+02  0.00000000000E+00 0. -1.
         11    1    1    2    0    0 -0.20228137591E+02  0.18764063713E+01 -0.59183654293E+02  0.62573184246E+02  0.00000000000E+00 0.  1.
<mgrwt>
<rscale>  0 0.99279941E+02</rscale>
<asrwt>0</asrwt>
<pdfrwt beam="2">  1        2 0.39325755E-01 0.12511051E+03</pdfrwt>
<pdfrwt beam="1">  1       -2 0.47254019E-02 0.12511051E+03</pdfrwt>
<totfact> 0.25593095E+04</totfact>
</mgrwt>
</event>
<event>
 6    1  0.7457796E-006  0.2602096E+03  0.7546771E-02  0.1107017E+00
         -2   -1    0    0    0  501 -0.00000000000E+00  0.00000000000E+00  0.73157044304E+02  0.73157044304E+02  0.00000000000E+00 0.  1.
          2   -1    0    0  501    0  0.00000000000E+00 -0.00000000000E+00 -0.23138249169E+03  0.23138249169E+03  0.00000000000E+00 0. -1.
          5    1    1    2  502    0  0.66220911402E+02 -0.52177573270E+02 -0.44003465816E+02  0.95216087207E+02  0.47000000000E+01 0.  1.
         -5    1    1    2    0  502 -0.28252683478E+02  0.23238952102E+02  0.18080826197E+02  0.41076383659E+02  0.47000000000E+01 0.  1.
        -11    1    1    2    0    0 -0.47380120651E+02 -0.13496210309E+02 -0.31506007950E+02  0.58477791191E+02  0.00000000000E+00 0.  1.
         11    1    1    2    0    0  0.94118927277E+01  0.42434831477E+02 -0.10079679982E+03  0.10976927394E+03  0.00000000000E+00 0. -1.
<mgrwt>
<rscale>  0 0.26020960E+03</rscale>
<asrwt>0</asrwt>
<pdfrwt beam="2">  1        2 0.35597306E-01 0.26020960E+03</pdfrwt>
<pdfrwt beam="1">  1       -2 0.11254930E-01 0.26020960E+03</pdfrwt>
<totfact> 0.78743405E+03</totfact>
</mgrwt>
</event>
<event>
 6    1  0.7457796E-006  0.1276828E+03  0.7546771E-02  0.1255626E+00
         -2   -1    0    0    0  501 -0.00000000000E+00  0.00000000000E+00  0.22930987826E+03  0.22930987826E+03  0.00000000000E+00 0.  1.
          2   -1    0    0  501    0  0.00000000000E+00 -0.00000000000E+00 -0.46115725457E+02  0.46115725457E+02  0.00000000000E+00 0. -1.
          5    1    1    2  502    0  0.16003149984E+02 -0.29594286740E+02  0.12313792961E+03  0.12773786567E+03  0.47000000000E+01 0.  1.
         -5    1    1    2    0  502 -0.41760978953E+02  0.25852735423E+02 -0.44167158740E+00  0.49341953405E+02  0.47000000000E+01 0.  1.
        -11    1    1    2    0    0 -0.18597371497E+02 -0.14618476873E+02  0.39297649256E+02  0.45867933567E+02  0.00000000000E+00 0.  1.
         11    1    1    2    0    0  0.44355200466E+02  0.18360028191E+02  0.21200245527E+02  0.52477851080E+02  0.00000000000E+00 0. -1.
<mgrwt>
<rscale>  0 0.11271343E+03</rscale>
<asrwt>0</asrwt>
<pdfrwt beam="2">  1        2 0.70947271E-02 0.12768277E+03</pdfrwt>
<pdfrwt beam="1">  1       -2 0.35278442E-01 0.12768277E+03</pdfrwt>
<totfact> 0.70540822E+03</totfact>
</mgrwt>
</event>
<event>
 6    1  0.7457796E-006  0.1473295E+03  0.7546771E-02  0.1213622E+00
         -2   -1    0    0    0  501 -0.00000000000E+00  0.00000000000E+00  0.93004666558E+02  0.93004666558E+02  0.00000000000E+00 0.  1.
          2   -1    0    0  501    0  0.00000000000E+00 -0.00000000000E+00 -0.23615346410E+03  0.23615346410E+03  0.00000000000E+00 0. -1.
          5    1    1    2  502    0 -0.94153019019E+01 -0.90027375827E+02  0.39623071457E+02  0.98922465092E+02  0.47000000000E+01 0.  1.
         -5    1    1    2    0  502  0.95574458704E+01  0.12046585072E+02 -0.45795350169E+02  0.48536265622E+02  0.47000000000E+01 0.  1.
        -11    1    1    2    0    0 -0.37217588405E+01  0.95675996662E+02 -0.90135477160E+02  0.13149962764E+03  0.00000000000E+00 0.  1.
         11    1    1    2    0    0  0.35796148720E+01 -0.17695205907E+02 -0.46841041675E+02  0.50199772309E+02  0.00000000000E+00 0. -1.
<mgrwt>
<rscale>  0 0.13978229E+03</rscale>
<asrwt>0</asrwt>
<pdfrwt beam="2">  1        2 0.36331302E-01 0.14732950E+03</pdfrwt>
<pdfrwt beam="1">  1       -2 0.14308410E-01 0.14732950E+03</pdfrwt>
<totfact> 0.50549250E+03</totfact>
</mgrwt>
</event>
<event>
 6    1  0.7457796E-006  0.1324601E+03  0.7546771E-02  0.1236363E+00
         -1   -1    0    0    0  501 -0.00000000000E+00  0.00000000000E+00  0.57077517690E+02  0.57077517690E+02  0.00000000000E+00 0.  1.
          1   -1    0    0  501    0  0.00000000000E+00 -0.00000000000E+00 -0.24336098394E+03  0.24336098394E+03  0.00000000000E+00 0. -1.
          5    1    1    2  502    0 -0.63835801604E+02  0.18622223672E+02 -0.10785363943E+03  0.12679232752E+03  0.47000000000E+01 0.  1.
         -5    1    1    2    0  502  0.20139714323E+02 -0.22008728749E+02  0.16213627614E+02  0.34277747221E+02  0.47000000000E+01 0.  1.
        -11    1    1    2    0    0  0.43707425389E+02  0.31870798096E+02 -0.96708961381E+02  0.11080934084E+03  0.00000000000E+00 0. -1.
         11    1    1    2    0    0 -0.11338107296E-01 -0.28484293019E+02  0.20655069380E+01  0.28559086055E+02  0.00000000000E+00 0.  1.
<mgrwt>
<rscale>  0 0.12417590E+03</rscale>
<asrwt>0</asrwt>
<pdfrwt beam="2">  1        1 0.37440152E-01 0.13246010E+03</pdfrwt>
<pdfrwt beam="1">  1       -1 0.87811564E-02 0.13246010E+03</pdfrwt>
<totfact> 0.80653070E+03</totfact>
</mgrwt>
</event>
<event>
 6    1  0.7457796E-006  0.1251108E+03  0.7546771E-02  0.1249426E+00
         -1   -1    0    0    0  501 -0.00000000000E+00  0.00000000000E+00  0.41834163209E+02  0.41834163209E+02  0.00000000000E+00 0.  1.
          1   -1    0    0  501    0  0.00000000000E+00 -0.00000000000E+00 -0.56772833121E+03  0.56772833121E+03  0.00000000000E+00 0. -1.
          5    1    1    2  502    0  0.69443336245E+01 -0.50742066892E+02  0.92666101913E+01  0.52258407806E+02  0.47000000000E+01 0.  1.
         -5    1    1    2    0  502 -0.65431543662E+01  0.45528746961E+02 -0.77513920116E+02  0.90256176967E+02  0.47000000000E+01 0.  1.
        -11    1    1    2    0    0 -0.99593355219E+01  0.47958895819E+02 -0.21850612891E+03  0.22392894503E+03  0.00000000000E+00 0.  1.
         11    1    1    2    0    0  0.95581562635E+01 -0.42745575887E+02 -0.23914072916E+03  0.24311896461E+03  0.00000000000E+00 0. -1.
<mgrwt>
<rscale>  0 0.11624330E+03</rscale>
<asrwt>0</asrwt>
<pdfrwt beam="2">  1        1 0.87342814E-01 0.12511080E+03</pdfrwt>
<pdfrwt beam="1">  1       -1 0.64360255E-02 0.12511080E+03</pdfrwt>
<totfact> 0.44002223E+03</totfact>
</mgrwt>
</event>
<event>
 6    1  0.7457796E-006  0.2699073E+03  0.7546771E-02  0.1101333E+00
         -1   -1    0    0    0  501 -0.00000000000E+00  0.00000000000E+00  0.75187911583E+02  0.75187911583E+02  0.00000000000E+00 0.  1.
          1   -1    0    0  501    0  0.00000000000E+00 -0.00000000000E+00 -0.24222627193E+03  0.24222627193E+03  0.00000000000E+00 0. -1.
          5    1    1    2  502    0  0.15845921216E+02 -0.56032823827E-01  0.31624714440E+02  0.35683454461E+02  0.47000000000E+01 0. -1.
         -5    1    1    2    0  502 -0.50249575413E+02 -0.65673479402E+02 -0.86301011252E+02  0.11961596996E+03  0.47000000000E+01 0. -1.
        -11    1    1    2    0    0  0.27756574241E+02  0.30880759951E+02  0.27961005666E+01  0.41615705294E+02  0.00000000000E+00 0.  1.
         11    1    1    2    0    0  0.66470799554E+01  0.34848752276E+02 -0.11515816410E+03  0.12049905380E+03  0.00000000000E+00 0. -1.
<mgrwt>
<rscale>  0 0.26990730E+03</rscale>
<asrwt>0</asrwt>
<pdfrwt beam="2">  1        1 0.37265580E-01 0.26990730E+03</pdfrwt>
<pdfrwt beam="1">  1       -1 0.11567371E-01 0.26990730E+03</pdfrwt>
<totfact> 0.55348821E+03</totfact>
</mgrwt>
</event>
<event>
 6    1  0.7457796E-006  0.1268768E+03  0.7546771E-02  0.1247370E+00
          3   -1    0    0  501    0  0.00000000000E+00  0.00000000000E+00  0.30523786717E+03  0.30523786717E+03  0.00000000000E+00 0. -1.
         -3   -1    0    0    0  501 -0.00000000000E+00 -0.00000000000E+00 -0.41627036478E+02  0.41627036478E+02  0.00000000000E+00 0.  1.
          5    1    1    2  502    0 -0.38401250291E+02 -0.55794190998E+02  0.10198238851E+03  0.12251589831E+03  0.47000000000E+01 0. -1.
         -5    1    1    2    0  502  0.27891964373E+02  0.36778922041E+02  0.11721938901E+02  0.47855455642E+02  0.47000000000E+01 0. -1.
        -11    1    1    2    0    0 -0.36986283647E+02  0.25723754951E+02  0.77388052844E+02  0.89546677603E+02  0.00000000000E+00 0.  1.
         11    1    1    2    0    0  0.47495569565E+02 -0.67084859942E+01  0.72518450439E+02  0.86946872093E+02  0.00000000000E+00 0. -1.
<mgrwt>
<rscale>  0 0.11744627E+03</rscale>
<asrwt>0</asrwt>
<pdfrwt beam="1">  1        3 0.46959670E-01 0.12687681E+03</pdfrwt>
<pdfrwt beam="2">  1       -3 0.64041597E-02 0.12687681E+03</pdfrwt>
<totfact> 0.15773162E+03</totfact>
</mgrwt>
</event>
<event>
 6    1  0.7457796E-006  0.2231253E+03  0.7546771E-02  0.1134631E+00
         -1   -1    0    0    0  501 -0.00000000000E+00  0.00000000000E+00  0.89110325141E+02  0.89110325141E+02  0.00000000000E+00 0.  1.
          1   -1    0    0  501    0  0.00000000000E+00 -0.00000000000E+00 -0.52113565338E+03  0.52113565338E+03  0.00000000000E+00 0. -1.
          5    1    1    2  502    0 -0.15636383221E+03 -0.84549089476E+01 -0.18219880546E+03  0.24029071605E+03  0.47000000000E+01 0.  1.
         -5    1    1    2    0  502 -0.16886887151E+02 -0.55921168499E+02 -0.23357068372E+02  0.63087135669E+02  0.47000000000E+01 0.  1.
        -11    1    1    2    0    0  0.86932713168E+02  0.20292517532E+01 -0.15777960853E+03  0.18015498703E+03  0.00000000000E+00 0. -1.
         11    1    1    2    0    0  0.86318006188E+02  0.62346825694E+02 -0.68689845873E+02  0.12671313978E+03  0.00000000000E+00 0.  1.
<mgrwt>
<rscale>  0 0.21899944E+03</rscale>
<asrwt>0</asrwt>
<pdfrwt beam="2">  1        1 0.80174718E-01 0.22312531E+03</pdfrwt>
<pdfrwt beam="1">  1       -1 0.13709280E-01 0.22312531E+03</pdfrwt>
<totfact> 0.15793798E+03</totfact>
</mgrwt>
</event>
<event>
 6    1  0.7457796E-006  0.1409100E+03  0.7546771E-02  0.1223030E+00
          1   -1    0    0  501    0  0.00000000000E+00  0.00000000000E+00  0.59572375409E+03  0.59572375409E+03  0.00000000000E+00 0. -1.
         -1   -1    0    0    0  501 -0.00000000000E+00 -0.00000000000E+00 -0.30457703586E+02  0.30457703586E+02  0.00000000000E+00 0.  1.
          5    1    1    2  502    0 -0.10901559519E+02  0.83391035962E+02  0.10154406430E+03  0.13193254289E+03  0.47000000000E+01 0. -1.
         -5    1    1    2    0  502 -0.37125708713E+02 -0.39533382301E+02  0.10216941093E+03  0.11576651110E+03  0.47000000000E+01 0. -1.
        -11    1    1    2    0    0  0.14837074112E+02  0.23862034496E+02  0.44855606243E+02  0.52929773000E+02  0.00000000000E+00 0.  1.
         11    1    1    2    0    0  0.33190194121E+02 -0.67719688157E+02  0.31669696904E+03  0.32555263069E+03  0.00000000000E+00 0. -1.
<mgrwt>
<rscale>  0 0.13302846E+03</rscale>
<asrwt>0</asrwt>
<pdfrwt beam="1">  1        1 0.91649800E-01 0.14091005E+03</pdfrwt>
<pdfrwt beam="2">  1       -1 0.46858010E-02 0.14091005E+03</pdfrwt>
<totfact> 0.66449307E+03</totfact>
</mgrwt>
</event>
<event>
 6    1  0.7457796E-006  0.1452449E+03  0.7546771E-02  0.1223355E+00
         -3   -1    0    0    0  501 -0.00000000000E+00  0.00000000000E+00  0.97426900393E+02  0.97426900393E+02  0.00000000000E+00 0.  1.
          3   -1    0    0  501    0  0.00000000000E+00 -0.00000000000E+00 -0.25017243206E+03  0.25017243206E+03  0.00000000000E+00 0. -1.
          5    1    1    2  502    0 -0.31541426345E+02 -0.15202333116E+02 -0.36718442060E+02  0.50953964472E+02  0.47000000000E+01 0. -1.
         -5    1    1    2    0  502  0.62327234915E+02  0.44421178301E+02  0.57336600830E+02  0.95747068302E+02  0.47000000000E+01 0.  1.
        -11    1    1    2    0    0 -0.13773856941E+02  0.33606442154E+02 -0.66563157381E+02  0.75827211540E+02  0.00000000000E+00 0.  1.
         11    1    1    2    0    0 -0.17011951628E+02 -0.62825287340E+02 -0.10680053305E+03  0.12507108814E+03  0.00000000000E+00 0. -1.
<mgrwt>
<rscale>  0 0.13280289E+03</rscale>
<asrwt>0</asrwt>
<pdfrwt beam="2">  1        3 0.38488066E-01 0.14524491E+03</pdfrwt>
<pdfrwt beam="1">  1       -3 0.14988754E-01 0.14524491E+03</pdfrwt>
<totfact> 0.58193968E+02</totfact>
</mgrwt>
</event>
<event>
 6    1  0.7457796E-006  0.2023623E+03  0.7546771E-02  0.1151884E+00
          2   -1    0    0  501    0  0.00000000000E+00  0.00000000000E+00  0.36448025045E+03  0.36448025045E+03  0.00000000000E+00 0. -1.
         -2   -1    0    0    0  501 -0.00000000000E+00 -0.00000000000E+00 -0.11831623090E+03  0.11831623090E+03  0.00000000000E+00 0.  1.
          5    1    1    2  502    0  0.30976566530E+02 -0.10997761833E+02  0.14966716155E+02  0.36422397392E+02  0.47000000000E+01 0. -1.
         -5    1    1    2    0  502 -0.10898185926E+03 -0.12771266034E+03  0.24125122015E+02  0.16968111496E+03  0.47000000000E+01 0. -1.
        -11    1    1    2    0    0  0.62798544019E+02  0.10447265436E+03  0.20582238731E+03  0.23920921336E+03  0.00000000000E+00 0. -1.
         11    1    1    2    0    0  0.15206748715E+02  0.34237767818E+02  0.12497940688E+01  0.37483755639E+02  0.00000000000E+00 0.  1.
<mgrwt>
<rscale>  0 0.19747805E+03</rscale>
<asrwt>0</asrwt>
<pdfrwt beam="1">  1        2 0.56073884E-01 0.20236226E+03</pdfrwt>
<pdfrwt beam="2">  1       -2 0.18202497E-01 0.20236226E+03</pdfrwt>
<totfact> 0.21615779E+03</totfact>
</mgrwt>
</event>
<event>
 6    1  0.7457796E-006  0.1494325E+03  0.7546771E-02  0.1210833E+00
         -2   -1    0    0    0  501 -0.00000000000E+00  0.00000000000E+00  0.26283654638E+02  0.26283654638E+02  0.00000000000E+00 0.  1.
          2   -1    0    0  501    0  0.00000000000E+00 -0.00000000000E+00 -0.95665123620E+03  0.95665123620E+03  0.00000000000E+00 0. -1.
          5    1    1    2  502    0 -0.89965678199E+01 -0.40639984809E+02 -0.11004614780E+02  0.43309792707E+02  0.47000000000E+01 0.  1.
         -5    1    1    2    0  502 -0.66854785657E+02  0.98152931332E+01 -0.23459684941E+03  0.24417959394E+03  0.47000000000E+01 0.  1.
        -11    1    1    2    0    0  0.62473038928E+02  0.61664356030E+02 -0.49093756626E+03  0.49872343775E+03  0.00000000000E+00 0.  1.
         11    1    1    2    0    0  0.13378314549E+02 -0.30839664354E+02 -0.19382855111E+03  0.19672206644E+03  0.00000000000E+00 0. -1.
<mgrwt>
<rscale>  0 0.14187154E+03</rscale>
<asrwt>0</asrwt>
<pdfrwt beam="2">  1        2 0.14717709E+00 0.14943249E+03</pdfrwt>
<pdfrwt beam="1">  1       -2 0.40436399E-02 0.14943249E+03</pdfrwt>
<totfact> 0.73525336E+03</totfact>
</mgrwt>
</event>
<event>
 6    1  0.7457796E-006  0.1398751E+03  0.7546771E-02  0.1224503E+00
          1   -1    0    0  501    0  0.00000000000E+00  0.00000000000E+00  0.79893582682E+02  0.79893582682E+02  0.00000000000E+00 0. -1.
         -1   -1    0    0    0  501 -0.00000000000E+00 -0.00000000000E+00 -0.21436716790E+03  0.21436716790E+03  0.00000000000E+00 0.  1.
          5    1    1    2  502    0  0.44056212187E+02 -0.20881127351E+02 -0.81799913403E+02  0.95342997354E+02  0.47000000000E+01 0.  1.
         -5    1    1    2    0  502 -0.16766378693E+02  0.77405532206E+02 -0.34295783755E+02  0.86435054543E+02  0.47000000000E+01 0.  1.
        -11    1    1    2    0    0 -0.53937383349E+02 -0.14754086230E+02  0.77760574738E+01  0.56456987636E+02  0.00000000000E+00 0. -1.
         11    1    1    2    0    0  0.26647549856E+02 -0.41770318625E+02 -0.26153945530E+02  0.56025711045E+02  0.00000000000E+00 0.  1.
<mgrwt>
<rscale>  0 0.13201034E+03</rscale>
<asrwt>0</asrwt>
<pdfrwt beam="1">  1        1 0.12291321E-01 0.13987512E+03</pdfrwt>
<pdfrwt beam="2">  1       -1 0.32979564E-01 0.13987512E+03</pdfrwt>
<totfact> 0.40474457E+03</totfact>
</mgrwt>
</event>
<event>
 6    1  0.7457796E-006  0.3480000E+03  0.7546771E-02  0.1063439E+00
         -1   -1    0    0    0  501 -0.00000000000E+00  0.00000000000E+00  0.24909910093E+02  0.24909910093E+02  0.00000000000E+00 0.  1.
          1   -1    0    0  501    0  0.00000000000E+00 -0.00000000000E+00 -0.12154201227E+04  0.12154201227E+04  0.00000000000E+00 0. -1.
          5    1    1    2  502    0  0.10044043038E+02 -0.35178442909E+02 -0.16418512605E+03  0.16827730466E+03  0.47000000000E+01 0. -1.
         -5    1    1    2    0  502 -0.14063786924E+03  0.10873291908E+02 -0.35521444427E+03  0.38222588892E+03  0.47000000000E+01 0. -1.
        -11    1    1    2    0    0  0.45964139688E+02  0.45881023676E+02 -0.18841589699E+03  0.19929455765E+03  0.00000000000E+00 0.  1.
         11    1    1    2    0    0  0.84629686517E+02 -0.21575872675E+02 -0.48269474531E+03  0.49053228158E+03  0.00000000000E+00 0. -1.
<mgrwt>
<rscale>  0 0.34800003E+03</rscale>
<asrwt>0</asrwt>
<pdfrwt beam="2">  1        1 0.18698770E+00 0.34800003E+03</pdfrwt>
<pdfrwt beam="1">  1       -1 0.38322941E-02 0.34800003E+03</pdfrwt>
<totfact> 0.29335043E+03</totfact>
</mgrwt>
</event>
<event>
 6    1  0.7457796E-006  0.2582352E+03  0.7546771E-02  0.1110488E+00
         -2   -1    0    0    0  501 -0.00000000000E+00  0.00000000000E+00  0.35034289642E+02  0.35034289642E+02  0.00000000000E+00 0.  1.
          2   -1    0    0  501    0  0.00000000000E+00 -0.00000000000E+00 -0.18061210570E+04  0.18061210570E+04  0.00000000000E+00 0. -1.
          5    1    1    2  502    0 -0.56549687309E+02  0.12777656305E+03 -0.38538952448E+03  0.40996572146E+03  0.47000000000E+01 0.  1.
         -5    1    1    2    0  502  0.58091649477E+02  0.98178199477E+02 -0.46193831675E+03  0.47583894027E+03  0.47000000000E+01 0.  1.
        -11    1    1    2    0    0  0.42104825440E+02 -0.10335202149E+03 -0.48650219200E+03  0.49913809661E+03  0.00000000000E+00 0. -1.
         11    1    1    2    0    0 -0.43646787607E+02 -0.12260274104E+03 -0.43725673411E+03  0.45621258828E+03  0.00000000000E+00 0.  1.
<mgrwt>
<rscale>  0 0.25450853E+03</rscale>
<asrwt>0</asrwt>
<pdfrwt beam="2">  1        2 0.27786478E+00 0.25823522E+03</pdfrwt>
<pdfrwt beam="1">  1       -2 0.53898906E-02 0.25823522E+03</pdfrwt>
<totfact> 0.16410444E+03</totfact>
</mgrwt>
</event>
<event>
 6    1  0.7457796E-006  0.1464744E+03  0.7546771E-02  0.1214509E+00
         -1   -1    0    0    0  501 -0.00000000000E+00  0.00000000000E+00  0.12707833273E+03  0.12707833273E+03  0.00000000000E+00 0.  1.
          1   -1    0    0  501    0  0.00000000000E+00 -0.00000000000E+00 -0.13929125916E+03  0.13929125916E+03  0.00000000000E+00 0. -1.
          5    1    1    2  502    0 -0.11741737294E+02 -0.48746998428E+02  0.73148070484E+01  0.50889435570E+02  0.47000000000E+01 0. -1.
         -5    1    1    2    0  502  0.87322832230E+02  0.37977397180E+02 -0.68534485180E+01  0.95585665671E+02  0.47000000000E+01 0. -1.
        -11    1    1    2    0    0 -0.39380649217E+02 -0.27557358004E+02 -0.38127837230E+02  0.61351246807E+02  0.00000000000E+00 0. -1.
         11    1    1    2    0    0 -0.36200445720E+02  0.38326959253E+02  0.25453552269E+02  0.58543243837E+02  0.00000000000E+00 0.  1.
<mgrwt>
<rscale>  0 0.13912686E+03</rscale>
<asrwt>0</asrwt>
<pdfrwt beam="2">  1        1 0.21429425E-01 0.14647437E+03</pdfrwt>
<pdfrwt beam="1">  1       -1 0.19550513E-01 0.14647437E+03</pdfrwt>
<totfact> 0.46949225E+03</totfact>
</mgrwt>
</event>
<event>
 6    1  0.7457796E-006  0.1365963E+03  0.7546771E-02  0.1229985E+00
         -2   -1    0    0    0  501 -0.00000000000E+00  0.00000000000E+00  0.40607516118E+02  0.40607516118E+02  0.00000000000E+00 0.  1.
          2   -1    0    0  501    0  0.00000000000E+00 -0.00000000000E+00 -0.36693906695E+03  0.36693906695E+03  0.00000000000E+00 0. -1.
          5    1    1    2  502    0 -0.14523975049E+02 -0.37794970430E+02 -0.41782430623E+02  0.58371800981E+02  0.47000000000E+01 0.  1.
         -5    1    1    2    0  502  0.26791259374E+02  0.91496841271E+02 -0.12155053033E+03  0.15455117264E+03  0.47000000000E+01 0.  1.
        -11    1    1    2    0    0  0.12299151213E+02 -0.58247619379E+02 -0.15840370056E+03  0.16922111758E+03  0.00000000000E+00 0. -1.
         11    1    1    2    0    0 -0.24566435537E+02  0.45457485380E+01 -0.45948893101E+01  0.25402491857E+02  0.00000000000E+00 0.  1.
<mgrwt>
<rscale>  0 0.12831015E+03</rscale>
<asrwt>0</asrwt>
<pdfrwt beam="2">  1        2 0.56452165E-01 0.13659625E+03</pdfrwt>
<pdfrwt beam="1">  1       -2 0.62473101E-02 0.13659625E+03</pdfrwt>
<totfact> 0.11547600E+04</totfact>
</mgrwt>
</event>
<event>
 6    1  0.7457796E-006  0.1666614E+03  0.7546771E-02  0.1188146E+00
         -1   -1    0    0    0  501 -0.00000000000E+00  0.00000000000E+00  0.15200576278E+03  0.15200576278E+03  0.00000000000E+00 0.  1.
          1   -1    0    0  501    0  0.00000000000E+00 -0.00000000000E+00 -0.16711575539E+03  0.16711575539E+03  0.00000000000E+00 0. -1.
          5    1    1    2  502    0  0.50622166032E+02  0.89074762175E+02  0.48779589842E+01  0.10267814487E+03  0.47000000000E+01 0.  1.
         -5    1    1    2    0  502  0.47713111164E+02 -0.39236133210E+02  0.24146140880E+02  0.66491662979E+02  0.47000000000E+01 0.  1.
        -11    1    1    2    0    0 -0.77863341614E+02 -0.76762117226E+02 -0.30791719650E+02  0.11359248482E+03  0.00000000000E+00 0.  1.
         11    1    1    2    0    0 -0.20471935582E+02  0.26923488262E+02 -0.13342372830E+02  0.36359225506E+02  0.00000000000E+00 0. -1.
<mgrwt>
<rscale>  0 0.16048899E+03</rscale>
<asrwt>0</asrwt>
<pdfrwt beam="2">  1        1 0.25710116E-01 0.16666141E+03</pdfrwt>
<pdfrwt beam="1">  1       -1 0.23385502E-01 0.16666141E+03</pdfrwt>
<totfact> 0.28072802E+03</totfact>
</mgrwt>
</event>
<event>
 6    1  0.7457796E-006  0.1327270E+03  0.7546771E-02  0.1236924E+00
         -3   -1    0    0    0  501 -0.00000000000E+00  0.00000000000E+00  0.71752138699E+03  0.71752138699E+03  0.00000000000E+00 0.  1.
          3   -1    0    0  501    0  0.00000000000E+00 -0.00000000000E+00 -0.18958229924E+02  0.18958229924E+02  0.00000000000E+00 0. -1.
          5    1    1    2  502    0  0.70620615096E+02 -0.10317722971E+02  0.30970859367E+03  0.31786039337E+03  0.47000000000E+01 0. -1.
         -5    1    1    2    0  502 -0.34720019496E+02  0.36790013092E+02  0.90522273765E+02  0.10380441640E+03  0.47000000000E+01 0. -1.
        -11    1    1    2    0    0 -0.22018187758E+02  0.32403666720E+02  0.97702881052E+02  0.10526467202E+03  0.00000000000E+00 0. -1.
         11    1    1    2    0    0 -0.13882407842E+02 -0.58875956841E+02  0.20062940858E+03  0.20955013512E+03  0.00000000000E+00 0.  1.
<mgrwt>
<rscale>  0 0.12382064E+03</rscale>
<asrwt>0</asrwt>
<pdfrwt beam="2">  1        3 0.29166513E-02 0.13272703E+03</pdfrwt>
<pdfrwt beam="1">  1       -3 0.11038788E+00 0.13272703E+03</pdfrwt>
<totfact> 0.88281209E+02</totfact>
</mgrwt>
</event>
<event>
 6    1  0.7457796E-006  0.2720362E+03  0.7546771E-02  0.1102133E+00
         -1   -1    0    0    0  501 -0.00000000000E+00  0.00000000000E+00  0.52155136686E+02  0.52155136686E+02  0.00000000000E+00 0.  1.
          1   -1    0    0  501    0  0.00000000000E+00 -0.00000000000E+00 -0.13516601165E+04  0.13516601165E+04  0.00000000000E+00 0. -1.
          5    1    1    2  502    0  0.45017600741E+02 -0.49482732879E+02 -0.71910166206E+02  0.98327449033E+02  0.47000000000E+01 0. -1.
         -5    1    1    2    0  502  0.15246434631E+03 -0.89728105489E+02 -0.63234634486E+03  0.65664335805E+03  0.47000000000E+01 0. -1.
        -11    1    1    2    0    0 -0.10719408899E+03  0.72443379234E+02 -0.43008079855E+03  0.44911925943E+03  0.00000000000E+00 0.  1.
         11    1    1    2    0    0 -0.90287858060E+02  0.66767459133E+02 -0.16516767017E+03  0.19972518665E+03  0.00000000000E+00 0. -1.
<mgrwt>
<rscale>  0 0.26851474E+03</rscale>
<asrwt>0</asrwt>
<pdfrwt beam="2">  1        1 0.20794773E+00 0.27203619E+03</pdfrwt>
<pdfrwt beam="1">  1       -1 0.80238664E-02 0.27203619E+03</pdfrwt>
<totfact> 0.77232483E+02</totfact>
</mgrwt>
</event>
<event>
 6    1  0.7457796E-006  0.1551796E+03  0.7546771E-02  0.1202617E+00
          3   -1    0    0  501    0  0.00000000000E+00  0.00000000000E+00  0.29004166485E+03  0.29004166485E+03  0.00000000000E+00 0. -1.
         -3   -1    0    0    0  501 -0.00000000000E+00 -0.00000000000E+00 -0.12690231756E+03  0.12690231756E+03  0.00000000000E+00 0.  1.
          5    1    1    2  502    0  0.37370740771E+02 -0.81841091561E+02 -0.78264776954E+01  0.90431633220E+02  0.47000000000E+01 0. -1.
         -5    1    1    2    0  502 -0.56947275672E+02 -0.80025161662E+01 -0.46091503199E+02  0.73848149189E+02  0.47000000000E+01 0. -1.
        -11    1    1    2    0    0  0.30155041954E+02  0.57794848016E+02  0.20762959397E+03  0.21762265347E+03  0.00000000000E+00 0. -1.
         11    1    1    2    0    0 -0.10578507053E+02  0.32048759712E+02  0.94277342081E+01  0.35041546525E+02  0.00000000000E+00 0.  1.
<mgrwt>
<rscale>  0 0.14826809E+03</rscale>
<asrwt>0</asrwt>
<pdfrwt beam="1">  1        3 0.44621795E-01 0.15517957E+03</pdfrwt>
<pdfrwt beam="2">  1       -3 0.19523434E-01 0.15517957E+03</pdfrwt>
<totfact> 0.27847599E+02</totfact>
</mgrwt>
</event>
<event>
 6    1  0.7457796E-006  0.1325973E+03  0.7546771E-02  0.1236903E+00
         -1   -1    0    0    0  501 -0.00000000000E+00  0.00000000000E+00  0.36776432451E+02  0.36776432451E+02  0.00000000000E+00 0.  1.
          1   -1    0    0  501    0  0.00000000000E+00 -0.00000000000E+00 -0.40892788860E+03  0.40892788860E+03  0.00000000000E+00 0. -1.
          5    1    1    2  502    0 -0.17958347420E+02  0.38465191683E+02 -0.20193492417E+02  0.47243415936E+02  0.47000000000E+01 0. -1.
         -5    1    1    2    0  502  0.56805945891E+02 -0.59631224626E+02 -0.12107365847E+03  0.14650501430E+03  0.47000000000E+01 0. -1.
        -11    1    1    2    0    0 -0.47489025480E+02  0.36706932925E+01 -0.22714822825E+03  0.23208834337E+03  0.00000000000E+00 0. -1.
         11    1    1    2    0    0  0.86414270081E+01  0.17495339650E+02 -0.37360770102E+01  0.19867547449E+02  0.00000000000E+00 0.  1.
<mgrwt>
<rscale>  0 0.12383363E+03</rscale>
<asrwt>0</asrwt>
<pdfrwt beam="2">  1        1 0.62911983E-01 0.13259731E+03</pdfrwt>
<pdfrwt beam="1">  1       -1 0.56579127E-02 0.13259731E+03</pdfrwt>
<totfact> 0.81805660E+03</totfact>
</mgrwt>
</event>
<event>
 6    1  0.7457796E-006  0.2852295E+03  0.7546771E-02  0.1095540E+00
         -1   -1    0    0    0  501 -0.00000000000E+00  0.00000000000E+00  0.21579968234E+03  0.21579968234E+03  0.00000000000E+00 0.  1.
          1   -1    0    0  501    0  0.00000000000E+00 -0.00000000000E+00 -0.45293506882E+03  0.45293506882E+03  0.00000000000E+00 0. -1.
          5    1    1    2  502    0  0.80434051902E+02  0.59202874565E+02  0.43941622306E+02  0.10921342973E+03  0.47000000000E+01 0. -1.
         -5    1    1    2    0  502  0.17472596276E+03 -0.34238115912E+02 -0.78890711776E+01  0.17828555210E+03  0.47000000000E+01 0. -1.
        -11    1    1    2    0    0 -0.12748181042E+03 -0.54167244093E+01 -0.18538575235E+03  0.22505294947E+03  0.00000000000E+00 0. -1.
         11    1    1    2    0    0 -0.12767820425E+03 -0.19548034244E+02 -0.87802185264E+02  0.15618281986E+03  0.00000000000E+00 0.  1.
<mgrwt>
<rscale>  0 0.28027234E+03</rscale>
<asrwt>0</asrwt>
<pdfrwt beam="2">  1        1 0.69682317E-01 0.28522952E+03</pdfrwt>
<pdfrwt beam="1">  1       -1 0.33199952E-01 0.28522952E+03</pdfrwt>
<totfact> 0.44401669E+02</totfact>
</mgrwt>
</event>
<event>
 6    1  0.7457796E-006  0.1335031E+03  0.7546771E-02  0.1235002E+00
         -1   -1    0    0    0  501 -0.00000000000E+00  0.00000000000E+00  0.41880896414E+02  0.41880896414E+02  0.00000000000E+00 0.  1.
          1   -1    0    0  501    0  0.00000000000E+00 -0.00000000000E+00 -0.35500544614E+03  0.35500544614E+03  0.00000000000E+00 0. -1.
          5    1    1    2  502    0 -0.38390718426E+02  0.38217504577E+02 -0.84698454986E+02  0.10064960603E+03  0.47000000000E+01 0. -1.
         -5    1    1    2    0  502  0.56330222722E+01 -0.71718273808E+02 -0.42168282906E+02  0.83519433793E+02  0.47000000000E+01 0. -1.
        -11    1    1    2    0    0  0.45921867978E+02  0.32287914937E+02 -0.19068442621E+03  0.19877594877E+03  0.00000000000E+00 0. -1.
         11    1    1    2    0    0 -0.13164171825E+02  0.12128542935E+01  0.44266143787E+01  0.13941353959E+02  0.00000000000E+00 0.  1.
<mgrwt>
<rscale>  0 0.12504298E+03</rscale>
<asrwt>0</asrwt>
<pdfrwt beam="2">  1        1 0.54616223E-01 0.13350306E+03</pdfrwt>
<pdfrwt beam="1">  1       -1 0.64432148E-02 0.13350306E+03</pdfrwt>
<totfact> 0.80530863E+03</totfact>
</mgrwt>
</event>
<event>
 6    1  0.7457796E-006  0.1467627E+03  0.7546771E-02  0.1213011E+00
          4   -1    0    0  501    0  0.00000000000E+00  0.00000000000E+00  0.55545387621E+03  0.55545387621E+03  0.00000000000E+00 0. -1.
         -4   -1    0    0    0  501 -0.00000000000E+00 -0.00000000000E+00 -0.33033117543E+02  0.33033117543E+02  0.00000000000E+00 0.  1.
          5    1    1    2  502    0  0.12726995730E+02  0.55088039968E+02  0.97384066619E+02  0.11270499101E+03  0.47000000000E+01 0. -1.
         -5    1    1    2    0  502  0.63729726442E+02 -0.63415086727E+02  0.15347274911E+03  0.17792955341E+03  0.47000000000E+01 0. -1.
        -11    1    1    2    0    0 -0.10319004379E+02  0.18420140156E+02  0.32978310668E+01  0.21369583629E+02  0.00000000000E+00 0.  1.
         11    1    1    2    0    0 -0.66137717793E+02 -0.10093093397E+02  0.26826611187E+03  0.27648286570E+03  0.00000000000E+00 0. -1.
<mgrwt>
<rscale>  0 0.14023658E+03</rscale>
<asrwt>0</asrwt>
<pdfrwt beam="1">  1        4 0.85454435E-01 0.14676272E+03</pdfrwt>
<pdfrwt beam="2">  1       -4 0.50820185E-02 0.14676272E+03</pdfrwt>
<totfact> 0.48099467E+02</totfact>
</mgrwt>
</event>
<event>
 6    1  0.7457796E-006  0.1441265E+03  0.7546771E-02  0.1218377E+00
         -3   -1    0    0    0  501 -0.00000000000E+00  0.00000000000E+00  0.36280746262E+03  0.36280746262E+03  0.00000000000E+00 0.  1.
          3   -1    0    0  501    0  0.00000000000E+00 -0.00000000000E+00 -0.59912304348E+02  0.59912304348E+02  0.00000000000E+00 0. -1.
          5    1    1    2  502    0 -0.14431764145E+02  0.69593214199E+02  0.21218263352E+03  0.22381923788E+03  0.47000000000E+01 0.  1.
         -5    1    1    2    0  502  0.55758976347E+02 -0.10944741605E+02  0.52233470681E+02  0.77325780122E+02  0.47000000000E+01 0.  1.
        -11    1    1    2    0    0 -0.22009704442E+02  0.76053435326E+01  0.46591692426E+02  0.52086986311E+02  0.00000000000E+00 0.  1.
         11    1    1    2    0    0 -0.19317507760E+02 -0.66253816126E+02 -0.81126383548E+01  0.69487762652E+02  0.00000000000E+00 0. -1.
<mgrwt>
<rscale>  0 0.13631336E+03</rscale>
<asrwt>0</asrwt>
<pdfrwt beam="2">  1        3 0.92172777E-02 0.14412649E+03</pdfrwt>
<pdfrwt beam="1">  1       -3 0.55816532E-01 0.14412649E+03</pdfrwt>
<totfact> 0.63033602E+02</totfact>
</mgrwt>
</event>
<event>
 6    1  0.7457796E-006  0.1362510E+03  0.7546771E-02  0.1231766E+00
         -2   -1    0    0    0  501 -0.00000000000E+00  0.00000000000E+00  0.15401811013E+03  0.15401811013E+03  0.00000000000E+00 0.  1.
          2   -1    0    0  501    0  0.00000000000E+00 -0.00000000000E+00 -0.94042226101E+02  0.94042226101E+02  0.00000000000E+00 0. -1.
          5    1    1    2  502    0  0.75685151777E+02 -0.27793967633E+02  0.40662760744E+01  0.80866380143E+02  0.47000000000E+01 0.  1.
         -5    1    1    2    0  502 -0.43805237323E+02 -0.16049947091E+02  0.42035503815E+02  0.62972797298E+02  0.47000000000E+01 0.  1.
        -11    1    1    2    0    0 -0.19991118216E+02  0.45423403711E+02  0.47392316549E+02  0.68621877562E+02  0.00000000000E+00 0.  1.
         11    1    1    2    0    0 -0.11888796237E+02 -0.15794889879E+01 -0.33518212405E+02  0.35599281233E+02  0.00000000000E+00 0. -1.
<mgrwt>
<rscale>  0 0.12713733E+03</rscale>
<asrwt>0</asrwt>
<pdfrwt beam="2">  1        2 0.14468035E-01 0.13625100E+03</pdfrwt>
<pdfrwt beam="1">  1       -2 0.23695094E-01 0.13625100E+03</pdfrwt>
<totfact> 0.60391898E+03</totfact>
</mgrwt>
</event>
<event>
 6    1  0.7457796E-006  0.1299013E+03  0.7546771E-02  0.1242164E+00
         -1   -1    0    0    0  501 -0.00000000000E+00  0.00000000000E+00  0.48306306455E+02  0.48306306455E+02  0.00000000000E+00 0.  1.
          1   -1    0    0  501    0  0.00000000000E+00 -0.00000000000E+00 -0.28378698817E+03  0.28378698817E+03  0.00000000000E+00 0. -1.
          5    1    1    2  502    0  0.25154234639E+02  0.35710916264E+02 -0.89135119089E+01  0.44827957295E+02  0.47000000000E+01 0.  1.
         -5    1    1    2    0  502 -0.51318169985E+02 -0.59370746322E+02 -0.82867279635E+02  0.11422572444E+03  0.47000000000E+01 0.  1.
        -11    1    1    2    0    0  0.15211228366E+02 -0.18589529194E+02 -0.12191553557E+03  0.12425920440E+03  0.00000000000E+00 0. -1.
         11    1    1    2    0    0  0.10952706979E+02  0.42249359252E+02 -0.21784354597E+02  0.48780408491E+02  0.00000000000E+00 0.  1.
<mgrwt>
<rscale>  0 0.12056743E+03</rscale>
<asrwt>0</asrwt>
<pdfrwt beam="2">  1        1 0.43659537E-01 0.12990135E+03</pdfrwt>
<pdfrwt beam="1">  1       -1 0.74317395E-02 0.12990135E+03</pdfrwt>
<totfact> 0.85676419E+03</totfact>
</mgrwt>
</event>
<event>
 6    1  0.7457796E-006  0.1819008E+03  0.7546771E-02  0.1171656E+00
         -2   -1    0    0    0  501 -0.00000000000E+00  0.00000000000E+00  0.84504100361E+03  0.84504100361E+03  0.00000000000E+00 0. -1.
          2   -1    0    0  501    0  0.00000000000E+00 -0.00000000000E+00 -0.72964229905E+02  0.72964229905E+02  0.00000000000E+00 0.  1.
          5    1    1    2  502    0 -0.51290374875E+02 -0.14058628363E+03  0.54555035838E+03  0.56572297923E+03  0.47000000000E+01 0. -1.
         -5    1    1    2    0  502  0.25485937890E+02  0.10985717563E+02  0.18519760800E+03  0.18732448594E+03  0.47000000000E+01 0. -1.
        -11    1    1    2    0    0 -0.20172669695E+01  0.10703880437E+03  0.61886106062E+02  0.12365785511E+03  0.00000000000E+00 0. -1.
         11    1    1    2    0    0  0.27821703955E+02  0.22561761695E+02 -0.20557298744E+02  0.41299913237E+02  0.00000000000E+00 0.  1.
<mgrwt>
<rscale>  0 0.17607586E+03</rscale>
<asrwt>0</asrwt>
<pdfrwt beam="2">  1        2 0.11225267E-01 0.18190078E+03</pdfrwt>
<pdfrwt beam="1">  1       -2 0.13000630E+00 0.18190078E+03</pdfrwt>
<totfact> 0.25274876E+02</totfact>
</mgrwt>
</event>
<event>
 6    1  0.7457796E-006  0.2211531E+03  0.7546771E-02  0.1136430E+00
          2   -1    0    0  501    0  0.00000000000E+00  0.00000000000E+00  0.45419637720E+03  0.45419637720E+03  0.00000000000E+00 0. -1.
         -2   -1    0    0    0  501 -0.00000000000E+00 -0.00000000000E+00 -0.20875593153E+03  0.20875593153E+03  0.00000000000E+00 0.  1.
          5    1    1    2  502    0  0.29524367980E+02  0.76626836251E+02  0.90172070023E+01  0.82745153095E+02  0.47000000000E+01 0. -1.
         -5    1    1    2    0  502  0.96262878771E+02  0.55489660147E+02 -0.12381879816E+03  0.16642965177E+03  0.47000000000E+01 0. -1.
        -11    1    1    2    0    0 -0.10488561880E+03 -0.77724535270E+02  0.31171481297E+03  0.33794706840E+03  0.00000000000E+00 0.  1.
         11    1    1    2    0    0 -0.20901627946E+02 -0.54391961128E+02  0.48527223863E+02  0.75830435460E+02  0.00000000000E+00 0. -1.
<mgrwt>
<rscale>  0 0.21661769E+03</rscale>
<asrwt>0</asrwt>
<pdfrwt beam="1">  1        2 0.69876365E-01 0.22115306E+03</pdfrwt>
<pdfrwt beam="2">  1       -2 0.32116297E-01 0.22115306E+03</pdfrwt>
<totfact> 0.62823370E+02</totfact>
</mgrwt>
</event>
<event>
 6    1  0.7457796E-006  0.1381946E+03  0.7546771E-02  0.1228106E+00
          2   -1    0    0  501    0  0.00000000000E+00  0.00000000000E+00  0.25689378171E+03  0.25689378171E+03  0.00000000000E+00 0. -1.
         -2   -1    0    0    0  501 -0.00000000000E+00 -0.00000000000E+00 -0.79016648859E+02  0.79016648859E+02  0.00000000000E+00 0.  1.
          5    1    1    2  502    0  0.76311578814E+01 -0.92855741800E+02  0.22501441070E+02  0.95962639637E+02  0.47000000000E+01 0.  1.
         -5    1    1    2    0  502 -0.20999079106E+02  0.35456487452E+02 -0.10404104690E+02  0.42760486669E+02  0.47000000000E+01 0.  1.
        -11    1    1    2    0    0 -0.34361769733E+02  0.31909774725E+02  0.45696938168E+02  0.65476523275E+02  0.00000000000E+00 0.  1.
         11    1    1    2    0    0  0.47729690958E+02  0.25489479623E+02  0.12008285830E+03  0.13171078099E+03  0.00000000000E+00 0. -1.
<mgrwt>
<rscale>  0 0.12956300E+03</rscale>
<asrwt>0</asrwt>
<pdfrwt beam="1">  1        2 0.39522120E-01 0.13819465E+03</pdfrwt>
<pdfrwt beam="2">  1       -2 0.12156408E-01 0.13819465E+03</pdfrwt>
<totfact> 0.59872255E+03</totfact>
</mgrwt>
</event>
<event>
 6    1  0.7457796E-006  0.1456382E+03  0.7546771E-02  0.1215870E+00
          2   -1    0    0  501    0  0.00000000000E+00  0.00000000000E+00  0.31430588437E+03  0.31430588437E+03  0.00000000000E+00 0. -1.
         -2   -1    0    0    0  501 -0.00000000000E+00 -0.00000000000E+00 -0.67654203346E+02  0.67654203346E+02  0.00000000000E+00 0.  1.
          5    1    1    2  502    0 -0.67949089333E+02  0.35096758486E+02  0.28189909572E+02  0.81643261811E+02  0.47000000000E+01 0.  1.
         -5    1    1    2    0  502  0.56869474255E+02  0.38812082036E+02  0.24248570638E+02  0.73147781866E+02  0.47000000000E+01 0.  1.
        -11    1    1    2    0    0 -0.17144189806E+02  0.72069303996E+01  0.48197987416E+01  0.19211807562E+02  0.00000000000E+00 0.  1.
         11    1    1    2    0    0  0.28223804885E+02 -0.81115770921E+02  0.18939340207E+03  0.20795723648E+03  0.00000000000E+00 0. -1.
<mgrwt>
<rscale>  0 0.13812824E+03</rscale>
<asrwt>0</asrwt>
<pdfrwt beam="1">  1        2 0.48354750E-01 0.14563816E+03</pdfrwt>
<pdfrwt beam="2">  1       -2 0.10408339E-01 0.14563816E+03</pdfrwt>
<totfact> 0.62050937E+03</totfact>
</mgrwt>
</event>
<event>
 6    1  0.7457796E-006  0.2331728E+03  0.7546771E-02  0.1127466E+00
          2   -1    0    0  501    0  0.00000000000E+00  0.00000000000E+00  0.10232083444E+04  0.10232083444E+04  0.00000000000E+00 0. -1.
         -2   -1    0    0    0  501 -0.00000000000E+00 -0.00000000000E+00 -0.49756345986E+02  0.49756345986E+02  0.00000000000E+00 0.  1.
          5    1    1    2  502    0  0.68106955973E+02  0.27102051983E+02  0.77263222796E+02  0.10660569530E+03  0.47000000000E+01 0. -1.
         -5    1    1    2    0  502  0.35065771337E+02  0.14053937866E+03  0.37952645765E+03  0.40625527360E+03  0.47000000000E+01 0. -1.
        -11    1    1    2    0    0 -0.25238959978E+02 -0.47008938745E+02  0.26524583338E+03  0.27055904632E+03  0.00000000000E+00 0. -1.
         11    1    1    2    0    0 -0.77933767332E+02 -0.12063249190E+03  0.25141648463E+03  0.28954467520E+03  0.00000000000E+00 0.  1.
<mgrwt>
<rscale>  0 0.22882928E+03</rscale>
<asrwt>0</asrwt>
<pdfrwt beam="1">  1        2 0.15741665E+00 0.23317281E+03</pdfrwt>
<pdfrwt beam="2">  1       -2 0.76548233E-02 0.23317281E+03</pdfrwt>
<totfact> 0.25671469E+03</totfact>
</mgrwt>
</event>
<event>
 6    1  0.7457796E-006  0.1558249E+03  0.7546771E-02  0.1201335E+00
          3   -1    0    0  501    0  0.00000000000E+00  0.00000000000E+00  0.56587154490E+02  0.56587154490E+02  0.00000000000E+00 0. -1.
         -3   -1    0    0    0  501 -0.00000000000E+00 -0.00000000000E+00 -0.36728149183E+03  0.36728149183E+03  0.00000000000E+00 0.  1.
          5    1    1    2  502    0  0.69310814247E+02 -0.91449918291E+02 -0.78625833775E+02  0.13918041624E+03  0.47000000000E+01 0. -1.
         -5    1    1    2    0  502 -0.17920954197E+00  0.29179420335E+02 -0.70757901893E+02  0.76682731872E+02  0.47000000000E+01 0. -1.
        -11    1    1    2    0    0 -0.88739343424E+02  0.44344800584E+02 -0.14830767844E+03  0.17842729582E+03  0.00000000000E+00 0.  1.
         11    1    1    2    0    0  0.19607738719E+02  0.17925697371E+02 -0.13002923233E+02  0.29578202388E+02  0.00000000000E+00 0. -1.
<mgrwt>
<rscale>  0 0.14930044E+03</rscale>
<asrwt>0</asrwt>
<pdfrwt beam="1">  1        3 0.87057159E-02 0.15582490E+03</pdfrwt>
<pdfrwt beam="2">  1       -3 0.56504846E-01 0.15582490E+03</pdfrwt>
<totfact> 0.68289064E+02</totfact>
</mgrwt>
</event>
<event>
 6    1  0.7457796E-006  0.1257940E+03  0.7546771E-02  0.1250316E+00
         -2   -1    0    0    0  501 -0.00000000000E+00  0.00000000000E+00  0.29900613622E+02  0.29900613622E+02  0.00000000000E+00 0. -1.
          2   -1    0    0  501    0  0.00000000000E+00 -0.00000000000E+00 -0.42729612408E+03  0.42729612408E+03  0.00000000000E+00 0.  1.
          5    1    1    2  502    0 -0.60611022953E+02  0.20339429940E+02 -0.11768245181E+03  0.13400984284E+03  0.47000000000E+01 0. -1.
         -5    1    1    2    0  502  0.48151547482E+02 -0.27266638715E+02 -0.44049141640E+02  0.70883411254E+02  0.47000000000E+01 0. -1.
        -11    1    1    2    0    0 -0.11286391041E+02  0.32419127496E+02 -0.19817501284E+03  0.20112612502E+03  0.00000000000E+00 0.  1.
         11    1    1    2    0    0  0.23745866512E+02 -0.25491918721E+02 -0.37488904161E+02  0.51177358585E+02  0.00000000000E+00 0. -1.
<mgrwt>
<rscale>  0 0.11572751E+03</rscale>
<asrwt>0</asrwt>
<pdfrwt beam="2">  1        2 0.65737862E-01 0.12579403E+03</pdfrwt>
<pdfrwt beam="1">  1       -2 0.46000946E-02 0.12579403E+03</pdfrwt>
<totfact> 0.15459495E+04</totfact>
</mgrwt>
</event>
<event>
 6    1  0.7457796E-006  0.1582501E+03  0.7546771E-02  0.1197686E+00
          2   -1    0    0  501    0  0.00000000000E+00  0.00000000000E+00  0.81614264024E+03  0.81614264024E+03  0.00000000000E+00 0. -1.
         -2   -1    0    0    0  501 -0.00000000000E+00 -0.00000000000E+00 -0.31623664826E+02  0.31623664826E+02  0.00000000000E+00 0.  1.
          5    1    1    2  502    0  0.73785312832E+02 -0.52811567067E+02  0.20314152759E+03  0.22253517528E+03  0.47000000000E+01 0.  1.
         -5    1    1    2    0  502  0.23235560431E+02  0.50211539651E+02  0.43621587795E+02  0.70611775961E+02  0.47000000000E+01 0.  1.
        -11    1    1    2    0    0 -0.10805365950E+03 -0.13223530482E+02  0.50504820436E+03  0.51664702053E+03  0.00000000000E+00 0. -1.
         11    1    1    2    0    0  0.11032786239E+02  0.15823557898E+02  0.32707655660E+02  0.37972333291E+02  0.00000000000E+00 0.  1.
<mgrwt>
<rscale>  0 0.15229055E+03</rscale>
<asrwt>0</asrwt>
<pdfrwt beam="1">  1        2 0.12556039E+00 0.15825012E+03</pdfrwt>
<pdfrwt beam="2">  1       -2 0.48651798E-02 0.15825012E+03</pdfrwt>
<totfact> 0.68750343E+03</totfact>
</mgrwt>
</event>
<event>
 6    1  0.7457796E-006  0.2251437E+03  0.7546771E-02  0.1161951E+00
          1   -1    0    0  501    0  0.00000000000E+00  0.00000000000E+00  0.27629481428E+03  0.27629481428E+03  0.00000000000E+00 0. -1.
         -1   -1    0    0    0  501 -0.00000000000E+00 -0.00000000000E+00 -0.11969126399E+03  0.11969126399E+03  0.00000000000E+00 0.  1.
          5    1    1    2  502    0 -0.54722484044E+02 -0.61059130874E+02  0.73117807243E+02  0.10995940823E+03  0.47000000000E+01 0. -1.
         -5    1    1    2    0  502  0.20523696679E+02  0.10325698626E+03 -0.49483574800E+02  0.11642139628E+03  0.47000000000E+01 0.  1.
        -11    1    1    2    0    0  0.38586851587E+02  0.18719049464E+02  0.41942088577E+02  0.59987388028E+02  0.00000000000E+00 0.  1.
         11    1    1    2    0    0 -0.43880642216E+01 -0.60916904852E+02  0.91027229261E+02  0.10961788573E+03  0.00000000000E+00 0. -1.
<mgrwt>
<rscale>  0 0.18618186E+03</rscale>
<asrwt>0</asrwt>
<pdfrwt beam="1">  1        1 0.42506894E-01 0.22514371E+03</pdfrwt>
<pdfrwt beam="2">  1       -1 0.18414041E-01 0.22514371E+03</pdfrwt>
<totfact> 0.22269774E+03</totfact>
</mgrwt>
</event>
<event>
 6    1  0.7457796E-006  0.1254066E+03  0.7546771E-02  0.1250610E+00
         -1   -1    0    0    0  501 -0.00000000000E+00  0.00000000000E+00  0.43488297123E+03  0.43488297123E+03  0.00000000000E+00 0.  1.
          1   -1    0    0  501    0  0.00000000000E+00 -0.00000000000E+00 -0.26800991815E+02  0.26800991815E+02  0.00000000000E+00 0. -1.
          5    1    1    2  502    0  0.75247558190E+01 -0.38519582402E+02  0.24130767455E+03  0.24452374930E+03  0.47000000000E+01 0. -1.
         -5    1    1    2    0  502 -0.41009376631E+01  0.28999846819E+02  0.26524336433E+01  0.29781440688E+02  0.47000000000E+01 0. -1.
        -11    1    1    2    0    0  0.33007260519E+02  0.27864399439E+01  0.13832059048E+03  0.14223160424E+03  0.00000000000E+00 0.  1.
         11    1    1    2    0    0 -0.36431078674E+02  0.67332956387E+01  0.25801280744E+02  0.45147168810E+02  0.00000000000E+00 0. -1.
<mgrwt>
<rscale>  0 0.11555797E+03</rscale>
<asrwt>0</asrwt>
<pdfrwt beam="2">  1        1 0.41232298E-02 0.12540655E+03</pdfrwt>
<pdfrwt beam="1">  1       -1 0.66905068E-01 0.12540655E+03</pdfrwt>
<totfact> 0.48562498E+03</totfact>
</mgrwt>
</event>
<event>
 6    1  0.7457796E-006  0.2296806E+03  0.7546771E-02  0.1147266E+00
          1   -1    0    0  501    0  0.00000000000E+00  0.00000000000E+00  0.36433763474E+03  0.36433763474E+03  0.00000000000E+00 0. -1.
         -1   -1    0    0    0  501 -0.00000000000E+00 -0.00000000000E+00 -0.10146343298E+03  0.10146343298E+03  0.00000000000E+00 0.  1.
          5    1    1    2  502    0 -0.33056828747E+02  0.53379598256E+02  0.24372740451E+02  0.67514856986E+02  0.47000000000E+01 0. -1.
         -5    1    1    2    0  502  0.58136443698E+02 -0.15611168218E+03  0.74267944512E+02  0.18245142088E+03  0.47000000000E+01 0.  1.
        -11    1    1    2    0    0  0.29943090351E+02  0.69205226444E+02  0.94362211824E+02  0.12078981351E+03  0.00000000000E+00 0.  1.
         11    1    1    2    0    0 -0.55022705302E+02  0.33526857475E+02  0.69871304971E+02  0.95044976350E+02  0.00000000000E+00 0. -1.
<mgrwt>
<rscale>  0 0.20295905E+03</rscale>
<asrwt>0</asrwt>
<pdfrwt beam="1">  1        1 0.56051943E-01 0.22968055E+03</pdfrwt>
<pdfrwt beam="2">  1       -1 0.15609759E-01 0.22968055E+03</pdfrwt>
<totfact> 0.20481975E+03</totfact>
</mgrwt>
</event>
<event>
 6    1  0.7457796E-006  0.1445250E+03  0.7546771E-02  0.1219066E+00
          4   -1    0    0  501    0  0.00000000000E+00  0.00000000000E+00  0.48277964434E+02  0.48277964434E+02  0.00000000000E+00 0. -1.
         -4   -1    0    0    0  501 -0.00000000000E+00 -0.00000000000E+00 -0.41955389377E+03  0.41955389377E+03  0.00000000000E+00 0.  1.
          5    1    1    2  502    0 -0.16321766866E+02  0.78443245756E+01  0.25335947622E+01  0.18879687606E+02  0.47000000000E+01 0.  1.
         -5    1    1    2    0  502  0.77398168802E+02  0.31298849657E+02 -0.30640259738E+03  0.31760783398E+03  0.47000000000E+01 0.  1.
        -11    1    1    2    0    0 -0.24862379495E+02  0.12096131763E+02  0.11999245042E+02  0.30140275369E+02  0.00000000000E+00 0. -1.
         11    1    1    2    0    0 -0.36214022441E+02 -0.51239305995E+02 -0.79406171766E+02  0.10120406126E+03  0.00000000000E+00 0.  1.
<mgrwt>
<rscale>  0 0.13582052E+03</rscale>
<asrwt>0</asrwt>
<pdfrwt beam="1">  1        4 0.74273792E-02 0.14452502E+03</pdfrwt>
<pdfrwt beam="2">  1       -4 0.64546752E-01 0.14452502E+03</pdfrwt>
<totfact> 0.47689877E+02</totfact>
</mgrwt>
</event>
<event>
 6    1  0.7457796E-006  0.3216150E+03  0.7546771E-02  0.1076282E+00
         -2   -1    0    0    0  501 -0.00000000000E+00  0.00000000000E+00  0.11007285285E+03  0.11007285285E+03  0.00000000000E+00 0.  1.
          2   -1    0    0  501    0  0.00000000000E+00 -0.00000000000E+00 -0.90778405207E+03  0.90778405207E+03  0.00000000000E+00 0. -1.
          5    1    1    2  502    0  0.13856226390E+02  0.19410408208E+03 -0.24189797265E+03  0.31049172108E+03  0.47000000000E+01 0.  1.
         -5    1    1    2    0  502  0.97704603262E+02  0.80429199034E+02 -0.13949306066E+03  0.18840236073E+03  0.47000000000E+01 0.  1.
        -11    1    1    2    0    0 -0.10875093709E+03 -0.17524089462E+03 -0.23873458736E+03  0.31548429544E+03  0.00000000000E+00 0.  1.
         11    1    1    2    0    0 -0.28098925623E+01 -0.99292386486E+02 -0.17758557856E+03  0.20347852767E+03  0.00000000000E+00 0. -1.
<mgrwt>
<rscale>  0 0.31862955E+03</rscale>
<asrwt>0</asrwt>
<pdfrwt beam="2">  1        2 0.13965908E+00 0.32161496E+03</pdfrwt>
<pdfrwt beam="1">  1       -2 0.16934286E-01 0.32161496E+03</pdfrwt>
<totfact> 0.83923013E+02</totfact>
</mgrwt>
</event>
<event>
 6    1  0.7457796E-006  0.3322244E+03  0.7546771E-02  0.1070157E+00
          3   -1    0    0  501    0  0.00000000000E+00  0.00000000000E+00  0.59088358107E+02  0.59088358107E+02  0.00000000000E+00 0. -1.
         -3   -1    0    0    0  501 -0.00000000000E+00 -0.00000000000E+00 -0.46698309155E+03  0.46698309155E+03  0.00000000000E+00 0.  1.
          5    1    1    2  502    0 -0.20682133649E+01 -0.12920452616E+02 -0.96363490927E+02  0.97361326953E+02  0.47000000000E+01 0.  1.
         -5    1    1    2    0  502 -0.26781755038E+02  0.13573887626E+03 -0.12576872161E+03  0.18703520061E+03  0.47000000000E+01 0.  1.
        -11    1    1    2    0    0 -0.15356149924E+02 -0.80371209236E+02 -0.59009805656E+02  0.10088359519E+03  0.00000000000E+00 0. -1.
         11    1    1    2    0    0  0.44206118327E+02 -0.42447214410E+02 -0.12675271525E+03  0.14079132691E+03  0.00000000000E+00 0.  1.
<mgrwt>
<rscale>  0 0.33222441E+03</rscale>
<asrwt>0</asrwt>
<pdfrwt beam="1">  1        3 0.90905168E-02 0.33222441E+03</pdfrwt>
<pdfrwt beam="2">  1       -3 0.71843551E-01 0.33222441E+03</pdfrwt>
<totfact> 0.41941646E+02</totfact>
</mgrwt>
</event>
<event>
 6    1  0.7457796E-006  0.1355353E+03  0.7546771E-02  0.1234434E+00
         -1   -1    0    0    0  501 -0.00000000000E+00  0.00000000000E+00  0.14341687907E+03  0.14341687907E+03  0.00000000000E+00 0.  1.
          1   -1    0    0  501    0  0.00000000000E+00 -0.00000000000E+00 -0.96710755222E+02  0.96710755222E+02  0.00000000000E+00 0. -1.
          5    1    1    2  502    0  0.50400941279E+02 -0.31799875318E+02  0.77048712708E+02  0.97519644596E+02  0.47000000000E+01 0.  1.
         -5    1    1    2    0  502 -0.29718318949E+01  0.95289477821E+01 -0.41220278023E+02  0.42671230952E+02  0.47000000000E+01 0.  1.
        -11    1    1    2    0    0 -0.89073333448E+01  0.70318097805E+01 -0.35783220249E+02  0.37539656198E+02  0.00000000000E+00 0. -1.
         11    1    1    2    0    0 -0.38521776039E+02  0.15239117756E+02  0.46660909412E+02  0.62397102548E+02  0.00000000000E+00 0.  1.
<mgrwt>
<rscale>  0 0.12540750E+03</rscale>
<asrwt>0</asrwt>
<pdfrwt beam="2">  1        1 0.14878578E-01 0.13553525E+03</pdfrwt>
<pdfrwt beam="1">  1       -1 0.22064135E-01 0.13553525E+03</pdfrwt>
<totfact> 0.61354839E+03</totfact>
</mgrwt>
</event>
<event>
 6    1  0.7457796E-006  0.2547792E+03  0.7546771E-02  0.1112701E+00
         -2   -1    0    0    0  501 -0.00000000000E+00  0.00000000000E+00  0.65798609575E+02  0.65798609575E+02  0.00000000000E+00 0.  1.
          2   -1    0    0  501    0  0.00000000000E+00 -0.00000000000E+00 -0.11449753123E+04  0.11449753123E+04  0.00000000000E+00 0. -1.
          5    1    1    2  502    0  0.17415733988E+02  0.23858485167E+02 -0.52129497571E+02  0.60100828794E+02  0.47000000000E+01 0. -1.
         -5    1    1    2    0  502  0.16918965611E+03 -0.14490954660E+03 -0.23817384195E+03  0.32614841011E+03  0.47000000000E+01 0.  1.
        -11    1    1    2    0    0 -0.10038269130E+03  0.39242592480E+02 -0.51193908062E+03  0.52316181822E+03  0.00000000000E+00 0.  1.
         11    1    1    2    0    0 -0.86222698797E+02  0.81808468949E+02 -0.27693428258E+03  0.30136286475E+03  0.00000000000E+00 0. -1.
<mgrwt>
<rscale>  0 0.25095747E+03</rscale>
<asrwt>0</asrwt>
<pdfrwt beam="2">  1        2 0.17615003E+00 0.25477921E+03</pdfrwt>
<pdfrwt beam="1">  1       -2 0.10122864E-01 0.25477921E+03</pdfrwt>
<totfact> 0.14002997E+03</totfact>
</mgrwt>
</event>
<event>
 6    1  0.7457796E-006  0.1336797E+03  0.7546771E-02  0.1239497E+00
         -1   -1    0    0    0  501 -0.00000000000E+00  0.00000000000E+00  0.36130699010E+02  0.36130699010E+02  0.00000000000E+00 0.  1.
          1   -1    0    0  501    0  0.00000000000E+00 -0.00000000000E+00 -0.38924159137E+03  0.38924159137E+03  0.00000000000E+00 0. -1.
          5    1    1    2  502    0  0.58419377119E+02 -0.36127009353E+02 -0.98208952454E+02  0.11993778708E+03  0.47000000000E+01 0. -1.
         -5    1    1    2    0  502 -0.43799885242E+02  0.42849052221E+02 -0.46473458066E+02  0.77047670491E+02  0.47000000000E+01 0.  1.
        -11    1    1    2    0    0 -0.44482055923E+02  0.92822948873E+01 -0.55395978453E+02  0.71648647763E+02  0.00000000000E+00 0.  1.
         11    1    1    2    0    0  0.29862564047E+02 -0.16004337756E+02 -0.15303250338E+03  0.15673818504E+03  0.00000000000E+00 0. -1.
<mgrwt>
<rscale>  0 0.12220866E+03</rscale>
<asrwt>0</asrwt>
<pdfrwt beam="2">  1        1 0.59883320E-01 0.13367973E+03</pdfrwt>
<pdfrwt beam="1">  1       -1 0.55585692E-02 0.13367973E+03</pdfrwt>
<totfact> 0.89419923E+03</totfact>
</mgrwt>
</event>
<event>
 6    1  0.7457796E-006  0.3167710E+03  0.7546771E-02  0.1077145E+00
         -2   -1    0    0    0  501 -0.00000000000E+00  0.00000000000E+00  0.45317527042E+03  0.45317527042E+03  0.00000000000E+00 0.  1.
          2   -1    0    0  501    0  0.00000000000E+00 -0.00000000000E+00 -0.55355983745E+02  0.55355983745E+02  0.00000000000E+00 0. -1.
          5    1    1    2  502    0  0.27938578882E+02  0.19367947084E+02  0.37797559713E+02  0.51053178985E+02  0.47000000000E+01 0.  1.
         -5    1    1    2    0  502 -0.13130489279E+03  0.29699071150E+02  0.18683861148E+03  0.23033403231E+03  0.47000000000E+01 0.  1.
        -11    1    1    2    0    0  0.15014749633E+02 -0.55004593992E+02  0.52872029498E+02  0.77758598045E+02  0.00000000000E+00 0. -1.
         11    1    1    2    0    0  0.88351564276E+02  0.59375757579E+01  0.12031108598E+03  0.14938544483E+03  0.00000000000E+00 0.  1.
<mgrwt>
<rscale>  0 0.31677098E+03</rscale>
<asrwt>0</asrwt>
<pdfrwt beam="2">  1        2 0.85163055E-02 0.31677098E+03</pdfrwt>
<pdfrwt beam="1">  1       -2 0.69719270E-01 0.31677098E+03</pdfrwt>
<totfact> 0.15149658E+03</totfact>
</mgrwt>
</event>
<event>
 6    1  0.7457796E-006  0.1269388E+03  0.7546771E-02  0.1246155E+00
          1   -1    0    0  501    0  0.00000000000E+00  0.00000000000E+00  0.38012455611E+03  0.38012455611E+03  0.00000000000E+00 0. -1.
         -1   -1    0    0    0  501 -0.00000000000E+00 -0.00000000000E+00 -0.36587497898E+02  0.36587497898E+02  0.00000000000E+00 0.  1.
          5    1    1    2  502    0  0.68781574214E+01 -0.44234192551E+02  0.96712973182E+02  0.10667456127E+03  0.47000000000E+01 0.  1.
         -5    1    1    2    0  502 -0.19651712412E+02  0.62228482527E+02  0.27641989652E+02  0.71026357292E+02  0.47000000000E+01 0.  1.
        -11    1    1    2    0    0  0.52356173262E+01  0.38226972092E+02  0.90424759380E+02  0.98312512902E+02  0.00000000000E+00 0.  1.
         11    1    1    2    0    0  0.75379376639E+01 -0.56221262067E+02  0.12875733600E+03  0.14069862254E+03  0.00000000000E+00 0. -1.
<mgrwt>
<rscale>  0 0.11816520E+03</rscale>
<asrwt>0</asrwt>
<pdfrwt beam="1">  1        1 0.58480698E-01 0.12693880E+03</pdfrwt>
<pdfrwt beam="2">  1       -1 0.56288461E-02 0.12693880E+03</pdfrwt>
<totfact> 0.90078890E+03</totfact>
</mgrwt>
</event>
<event>
 6    1  0.7457796E-006  0.1252692E+03  0.7546771E-02  0.1249089E+00
         -4   -1    0    0    0  501 -0.00000000000E+00  0.00000000000E+00  0.14508161037E+03  0.14508161037E+03  0.00000000000E+00 0.  1.
          4   -1    0    0  501    0  0.00000000000E+00 -0.00000000000E+00 -0.83752947669E+02  0.83752947669E+02  0.00000000000E+00 0. -1.
          5    1    1    2  502    0 -0.45503469059E+02  0.36046523447E+02  0.13827162701E+02  0.59859819390E+02  0.47000000000E+01 0.  1.
         -5    1    1    2    0  502  0.49387072001E+02 -0.43295496730E+02  0.35178693933E+02  0.74653957864E+02  0.47000000000E+01 0.  1.
        -11    1    1    2    0    0  0.38621199058E+02 -0.59978201140E+01  0.26931057702E+02  0.47464225810E+02  0.00000000000E+00 0. -1.
         11    1    1    2    0    0 -0.42504801999E+02  0.13246793397E+02 -0.14608251635E+02  0.46856554975E+02  0.00000000000E+00 0.  1.
<mgrwt>
<rscale>  0 0.11643956E+03</rscale>
<asrwt>0</asrwt>
<pdfrwt beam="2">  1        4 0.12885069E-01 0.12526924E+03</pdfrwt>
<pdfrwt beam="1">  1       -4 0.22320248E-01 0.12526924E+03</pdfrwt>
<totfact> 0.14679213E+03</totfact>
</mgrwt>
</event>
<event>
 6    1  0.7457796E-006  0.1359203E+03  0.7546771E-02  0.1230779E+00
          1   -1    0    0  501    0  0.00000000000E+00  0.00000000000E+00  0.20181002520E+03  0.20181002520E+03  0.00000000000E+00 0. -1.
         -1   -1    0    0    0  501 -0.00000000000E+00 -0.00000000000E+00 -0.11962071338E+03  0.11962071338E+03  0.00000000000E+00 0.  1.
          5    1    1    2  502    0  0.23469131085E+02 -0.50743773606E+02 -0.91505388037E+02  0.10733618548E+03  0.47000000000E+01 0.  1.
         -5    1    1    2    0  502 -0.17295028403E+02 -0.21496621989E+01  0.35377993946E+02  0.39716892007E+02  0.47000000000E+01 0.  1.
        -11    1    1    2    0    0 -0.21817940812E+02 -0.17396280506E+02  0.15270945574E+02  0.31809666698E+02  0.00000000000E+00 0.  1.
         11    1    1    2    0    0  0.15643838130E+02  0.70289716311E+02  0.12304576033E+03  0.14256799440E+03  0.00000000000E+00 0. -1.
<mgrwt>
<rscale>  0 0.12778588E+03</rscale>
<asrwt>0</asrwt>
<pdfrwt beam="1">  1        1 0.31047696E-01 0.13592028E+03</pdfrwt>
<pdfrwt beam="2">  1       -1 0.18403187E-01 0.13592028E+03</pdfrwt>
<totfact> 0.32350128E+03</totfact>
</mgrwt>
</event>
<event>
 6    1  0.7457796E-006  0.1795664E+03  0.7546771E-02  0.1173768E+00
         -2   -1    0    0    0  501 -0.00000000000E+00  0.00000000000E+00  0.20116446482E+03  0.20116446482E+03  0.00000000000E+00 0.  1.
          2   -1    0    0  501    0  0.00000000000E+00 -0.00000000000E+00 -0.14263854329E+03  0.14263854329E+03  0.00000000000E+00 0. -1.
          5    1    1    2  502    0 -0.20657366355E+02  0.51429418422E+02  0.25378227415E+01  0.55679820475E+02  0.47000000000E+01 0. -1.
         -5    1    1    2    0  502 -0.10814042818E+03 -0.57008081426E+02  0.41780425033E+02  0.12927477507E+03  0.47000000000E+01 0. -1.
        -11    1    1    2    0    0  0.36490005970E+02 -0.38464477887E+02 -0.94909095155E+01  0.53861989921E+02  0.00000000000E+00 0. -1.
         11    1    1    2    0    0  0.92307788562E+02  0.44043140891E+02  0.23698583268E+02  0.10498642263E+03  0.00000000000E+00 0.  1.
<mgrwt>
<rscale>  0 0.17397166E+03</rscale>
<asrwt>0</asrwt>
<pdfrwt beam="2">  1        2 0.21944391E-01 0.17956641E+03</pdfrwt>
<pdfrwt beam="1">  1       -2 0.30948379E-01 0.17956641E+03</pdfrwt>
<totfact> 0.23637114E+03</totfact>
</mgrwt>
</event>
<event>
 6    1  0.7457796E-006  0.1368188E+03  0.7546771E-02  0.1229398E+00
          2   -1    0    0  501    0  0.00000000000E+00  0.00000000000E+00  0.20374574320E+02  0.20374574320E+02  0.00000000000E+00 0.  1.
         -2   -1    0    0    0  501 -0.00000000000E+00 -0.00000000000E+00 -0.79746991111E+03  0.79746991111E+03  0.00000000000E+00 0. -1.
          5    1    1    2  502    0  0.39565061692E+02 -0.53841300309E+02 -0.51742338310E+03  0.52174067035E+03  0.47000000000E+01 0. -1.
         -5    1    1    2    0  502 -0.30650087860E+02 -0.10666024024E+01 -0.32439572294E+02  0.44888543941E+02  0.47000000000E+01 0. -1.
        -11    1    1    2    0    0  0.29885955171E+02  0.42178399948E+02 -0.18652488245E+03  0.19355546882E+03  0.00000000000E+00 0.  1.
         11    1    1    2    0    0 -0.38800929003E+02  0.12729502764E+02 -0.40707498955E+02  0.57659802317E+02  0.00000000000E+00 0. -1.
<mgrwt>
<rscale>  0 0.12869937E+03</rscale>
<asrwt>0</asrwt>
<pdfrwt beam="1">  1        2 0.31345505E-02 0.13681885E+03</pdfrwt>
<pdfrwt beam="2">  1       -2 0.12268766E+00 0.13681885E+03</pdfrwt>
<totfact> 0.14948363E+03</totfact>
</mgrwt>
</event>
<event>
 6    1  0.7457796E-006  0.1484637E+03  0.7546771E-02  0.1211789E+00
          1   -1    0    0  501    0  0.00000000000E+00  0.00000000000E+00  0.54832162107E+02  0.54832162107E+02  0.00000000000E+00 0. -1.
         -1   -1    0    0    0  501 -0.00000000000E+00 -0.00000000000E+00 -0.33825807102E+03  0.33825807102E+03  0.00000000000E+00 0.  1.
          5    1    1    2  502    0  0.24536583779E+01  0.59612588647E+02 -0.26563328926E+02  0.65478100219E+02  0.47000000000E+01 0. -1.
         -5    1    1    2    0  502  0.64910265865E+02 -0.16238812905E+02 -0.15616009387E+03  0.16995619017E+03  0.47000000000E+01 0. -1.
        -11    1    1    2    0    0 -0.38484757416E+01 -0.46989028221E+02 -0.75947072207E+02  0.89390924122E+02  0.00000000000E+00 0.  1.
         11    1    1    2    0    0 -0.63515448501E+02  0.36152524786E+01 -0.24755413907E+02  0.68265018615E+02  0.00000000000E+00 0. -1.
<mgrwt>
<rscale>  0 0.14115067E+03</rscale>
<asrwt>0</asrwt>
<pdfrwt beam="1">  1        1 0.84357172E-02 0.14846365E+03</pdfrwt>
<pdfrwt beam="2">  1       -1 0.52039703E-01 0.14846365E+03</pdfrwt>
<totfact> 0.29866395E+03</totfact>
</mgrwt>
</event>
<event>
 6    1  0.7457796E-006  0.3625535E+03  0.7546771E-02  0.1058573E+00
          2   -1    0    0  501    0  0.00000000000E+00  0.00000000000E+00  0.11553948403E+04  0.11553948403E+04  0.00000000000E+00 0. -1.
         -2   -1    0    0    0  501 -0.00000000000E+00 -0.00000000000E+00 -0.12367489924E+03  0.12367489924E+03  0.00000000000E+00 0.  1.
          5    1    1    2  502    0  0.24705793845E+03 -0.49543012861E+02  0.25083852624E+03  0.35557585875E+03  0.47000000000E+01 0.  1.
         -5    1    1    2    0  502  0.93255935259E+02  0.52040941186E+02  0.63943551566E+02  0.12456242133E+03  0.47000000000E+01 0.  1.
        -11    1    1    2    0    0 -0.67271268097E+02 -0.34583520068E+02  0.12203511172E+03  0.14357580529E+03  0.00000000000E+00 0. -1.
         11    1    1    2    0    0 -0.27304260561E+03  0.32085591743E+02  0.59490275153E+03  0.65535565417E+03  0.00000000000E+00 0.  1.
<mgrwt>
<rscale>  0 0.36002632E+03</rscale>
<asrwt>0</asrwt>
<pdfrwt beam="1">  1        2 0.17775305E+00 0.36255346E+03</pdfrwt>
<pdfrwt beam="2">  1       -2 0.19026908E-01 0.36255346E+03</pdfrwt>
<totfact> 0.48390999E+02</totfact>
</mgrwt>
</event>
<event>
 6    1  0.7457796E-006  0.1707282E+03  0.7546771E-02  0.1183442E+00
          1   -1    0    0  501    0  0.00000000000E+00  0.00000000000E+00  0.36466352490E+03  0.36466352490E+03  0.00000000000E+00 0. -1.
         -1   -1    0    0    0  501 -0.00000000000E+00 -0.00000000000E+00 -0.73629145608E+02  0.73629145608E+02  0.00000000000E+00 0.  1.
          5    1    1    2  502    0  0.20396356954E+02  0.96055307834E+02  0.67370159377E+02  0.11917827786E+03  0.47000000000E+01 0. -1.
         -5    1    1    2    0  502  0.68621049935E+02 -0.21225892402E+02  0.37159878202E+02  0.81008231375E+02  0.47000000000E+01 0. -1.
        -11    1    1    2    0    0 -0.35120839073E+02 -0.86033403979E+02  0.12003330825E+03  0.15179991775E+03  0.00000000000E+00 0. -1.
         11    1    1    2    0    0 -0.53896567817E+02  0.11203988547E+02  0.66471033455E+02  0.86306243519E+02  0.00000000000E+00 0.  1.
<mgrwt>
<rscale>  0 0.16474448E+03</rscale>
<asrwt>0</asrwt>
<pdfrwt beam="1">  1        1 0.56102080E-01 0.17072817E+03</pdfrwt>
<pdfrwt beam="2">  1       -1 0.11327561E-01 0.17072817E+03</pdfrwt>
<totfact> 0.33505168E+03</totfact>
</mgrwt>
</event>
<event>
 6    1  0.7457796E-006  0.1383569E+03  0.7546771E-02  0.1227159E+00
         -2   -1    0    0    0  501 -0.00000000000E+00  0.00000000000E+00  0.82795752658E+02  0.82795752658E+02  0.00000000000E+00 0. -1.
          2   -1    0    0  501    0  0.00000000000E+00 -0.00000000000E+00 -0.19112380076E+03  0.19112380076E+03  0.00000000000E+00 0.  1.
          5    1    1    2  502    0  0.42918818528E+01 -0.78106073610E+02 -0.30213147246E+02  0.83987518425E+02  0.47000000000E+01 0. -1.
         -5    1    1    2    0  502  0.41697547297E+02  0.40621452545E+02 -0.40161064494E+01  0.58540643732E+02  0.47000000000E+01 0. -1.
        -11    1    1    2    0    0 -0.69611741738E+02  0.34985450668E+02 -0.34481207671E+02  0.85198180900E+02  0.00000000000E+00 0.  1.
         11    1    1    2    0    0  0.23622312588E+02  0.24991703967E+01 -0.39617586738E+02  0.46193210362E+02  0.00000000000E+00 0. -1.
<mgrwt>
<rscale>  0 0.13020026E+03</rscale>
<asrwt>0</asrwt>
<pdfrwt beam="2">  1        2 0.29403662E-01 0.13835691E+03</pdfrwt>
<pdfrwt beam="1">  1       -2 0.12737808E-01 0.13835691E+03</pdfrwt>
<totfact> 0.76329859E+03</totfact>
</mgrwt>
</event>
<event>
 6    1  0.7457796E-006  0.1355208E+03  0.7546771E-02  0.1231782E+00
          1   -1    0    0  501    0  0.00000000000E+00  0.00000000000E+00  0.56969230318E+03  0.56969230318E+03  0.00000000000E+00 0. -1.
         -1   -1    0    0    0  501 -0.00000000000E+00 -0.00000000000E+00 -0.29661500796E+02  0.29661500796E+02  0.00000000000E+00 0.  1.
          5    1    1    2  502    0  0.49761479067E+02 -0.43501500288E+02  0.11165878326E+03  0.12983974432E+03  0.47000000000E+01 0.  1.
         -5    1    1    2    0  502 -0.66915914875E+02 -0.59858384744E+01  0.74583238585E+02  0.10049039458E+03  0.47000000000E+01 0.  1.
        -11    1    1    2    0    0  0.44051803427E+02  0.13385215878E+02  0.27008191077E+03  0.27397803546E+03  0.00000000000E+00 0. -1.
         11    1    1    2    0    0 -0.26897367618E+02  0.36102122884E+02  0.83706869772E+02  0.95045629613E+02  0.00000000000E+00 0.  1.
<mgrwt>
<rscale>  0 0.12712692E+03</rscale>
<asrwt>0</asrwt>
<pdfrwt beam="1">  1        1 0.87644961E-01 0.13552078E+03</pdfrwt>
<pdfrwt beam="2">  1       -1 0.45633082E-02 0.13552078E+03</pdfrwt>
<totfact> 0.73235653E+03</totfact>
</mgrwt>
</event>
<event>
 6    1  0.7457796E-006  0.1268210E+03  0.7546771E-02  0.1247782E+00
          1   -1    0    0  501    0  0.00000000000E+00  0.00000000000E+00  0.24157115264E+02  0.24157115264E+02  0.00000000000E+00 0. -1.
         -1   -1    0    0    0  501 -0.00000000000E+00 -0.00000000000E+00 -0.54105654872E+03  0.54105654872E+03  0.00000000000E+00 0.  1.
          5    1    1    2  502    0 -0.29236405626E+02 -0.31039558319E+02 -0.49050285811E+02  0.65163196151E+02  0.47000000000E+01 0. -1.
         -5    1    1    2    0  502  0.28209971749E+02  0.48085755779E+02 -0.32555089753E+03  0.33032335566E+03  0.47000000000E+01 0. -1.
        -11    1    1    2    0    0 -0.60322026821E+01  0.28395982763E+02 -0.11752692229E+02  0.31318446336E+02  0.00000000000E+00 0. -1.
         11    1    1    2    0    0  0.70586365594E+01 -0.45442180224E+02 -0.13054555789E+03  0.13840866584E+03  0.00000000000E+00 0.  1.
<mgrwt>
<rscale>  0 0.11720418E+03</rscale>
<asrwt>0</asrwt>
<pdfrwt beam="1">  1        1 0.37164792E-02 0.12682100E+03</pdfrwt>
<pdfrwt beam="2">  1       -1 0.83239471E-01 0.12682100E+03</pdfrwt>
<totfact> 0.36178446E+03</totfact>
</mgrwt>
</event>
<event>
 6    1  0.7457796E-006  0.2695800E+03  0.7546771E-02  0.1101520E+00
          2   -1    0    0  501    0  0.00000000000E+00  0.00000000000E+00  0.50567954863E+02  0.50567954863E+02  0.00000000000E+00 0. -1.
         -2   -1    0    0    0  501 -0.00000000000E+00 -0.00000000000E+00 -0.35928579407E+03  0.35928579407E+03  0.00000000000E+00 0.  1.
          5    1    1    2  502    0  0.85602091937E+02  0.35307100216E+02 -0.81028945954E+02  0.12313443691E+03  0.47000000000E+01 0.  1.
         -5    1    1    2    0  502 -0.20630526283E+02 -0.40647481392E+01 -0.13465933489E+03  0.13637216456E+03  0.47000000000E+01 0.  1.
        -11    1    1    2    0    0 -0.40454393131E+02 -0.10881182098E+02 -0.10747921323E+03  0.11535484092E+03  0.00000000000E+00 0.  1.
         11    1    1    2    0    0 -0.24517172524E+02 -0.20361169979E+02  0.14449654873E+02  0.34992306546E+02  0.00000000000E+00 0. -1.
<mgrwt>
<rscale>  0 0.26958003E+03</rscale>
<asrwt>0</asrwt>
<pdfrwt beam="1">  1        2 0.77796854E-02 0.26958003E+03</pdfrwt>
<pdfrwt beam="2">  1       -2 0.55274737E-01 0.26958003E+03</pdfrwt>
<totfact> 0.27501369E+03</totfact>
</mgrwt>
</event>
<event>
 6    1  0.7457796E-006  0.1830709E+03  0.7546771E-02  0.1170073E+00
          1   -1    0    0  501    0  0.00000000000E+00  0.00000000000E+00  0.49089105826E+03  0.49089105826E+03  0.00000000000E+00 0. -1.
         -1   -1    0    0    0  501 -0.00000000000E+00 -0.00000000000E+00 -0.63794820364E+02  0.63794820364E+02  0.00000000000E+00 0.  1.
          5    1    1    2  502    0 -0.26119591966E+02  0.19649801993E+02  0.99030883812E+00  0.33036623835E+02  0.47000000000E+01 0.  1.
         -5    1    1    2    0  502  0.10212211570E+03  0.90392168065E+02  0.16463266028E+03  0.21383562237E+03  0.47000000000E+01 0.  1.
        -11    1    1    2    0    0 -0.70228313952E+02 -0.78010137970E+02  0.10677372101E+03  0.14972716923E+03  0.00000000000E+00 0.  1.
         11    1    1    2    0    0 -0.57742097843E+01 -0.32031832088E+02  0.15469954777E+03  0.15808646320E+03  0.00000000000E+00 0. -1.
<mgrwt>
<rscale>  0 0.17767476E+03</rscale>
<asrwt>0</asrwt>
<pdfrwt beam="1">  1        1 0.75521699E-01 0.18307086E+03</pdfrwt>
<pdfrwt beam="2">  1       -1 0.98145881E-02 0.18307086E+03</pdfrwt>
<totfact> 0.28615869E+03</totfact>
</mgrwt>
</event>
<event>
 6    1  0.7457796E-006  0.2101302E+03  0.7546771E-02  0.1145305E+00
         -2   -1    0    0    0  501 -0.00000000000E+00  0.00000000000E+00  0.34368909155E+02  0.34368909155E+02  0.00000000000E+00 0.  1.
          2   -1    0    0  501    0  0.00000000000E+00 -0.00000000000E+00 -0.12042439265E+04  0.12042439265E+04  0.00000000000E+00 0. -1.
          5    1    1    2  502    0  0.76052616158E+02 -0.14242989633E+03 -0.39618587810E+03  0.42784999217E+03  0.47000000000E+01 0.  1.
         -5    1    1    2    0  502 -0.42490827243E+02 -0.23105338664E+02 -0.11720842529E+03  0.12688274916E+03  0.47000000000E+01 0.  1.
        -11    1    1    2    0    0 -0.24562511472E+02  0.12535904202E+03 -0.60302568081E+03  0.61640747733E+03  0.00000000000E+00 0. -1.
         11    1    1    2    0    0 -0.89992774433E+01  0.40176192980E+02 -0.53455033151E+02  0.67472617009E+02  0.00000000000E+00 0.  1.
<mgrwt>
<rscale>  0 0.20534620E+03</rscale>
<asrwt>0</asrwt>
<pdfrwt beam="2">  1        2 0.18526831E+00 0.21013021E+03</pdfrwt>
<pdfrwt beam="1">  1       -2 0.52875240E-02 0.21013021E+03</pdfrwt>
<totfact> 0.35544938E+03</totfact>
</mgrwt>
</event>
<event>
 6    1  0.7457796E-006  0.3384476E+03  0.7546771E-02  0.1068404E+00
         -2   -1    0    0    0  501 -0.00000000000E+00  0.00000000000E+00  0.10871326129E+03  0.10871326129E+03  0.00000000000E+00 0.  1.
          2   -1    0    0  501    0  0.00000000000E+00 -0.00000000000E+00 -0.11392114136E+04  0.11392114136E+04  0.00000000000E+00 0. -1.
          5    1    1    2  502    0  0.47149408417E+02 -0.12429049546E+03 -0.97753923539E+02  0.16507305517E+03  0.47000000000E+01 0.  1.
         -5    1    1    2    0  502  0.17841584478E+03 -0.94893321354E+02 -0.22749833014E+03  0.30432636482E+03  0.47000000000E+01 0.  1.
        -11    1    1    2    0    0 -0.55076220175E+02  0.33586820583E+02 -0.70399209642E+02  0.95485670463E+02  0.00000000000E+00 0.  1.
         11    1    1    2    0    0 -0.17048903303E+03  0.18559699624E+03 -0.63484668904E+03  0.68303958449E+03  0.00000000000E+00 0. -1.
<mgrwt>
<rscale>  0 0.33624990E+03</rscale>
<asrwt>0</asrwt>
<pdfrwt beam="2">  1        2 0.17526329E+00 0.33844761E+03</pdfrwt>
<pdfrwt beam="1">  1       -2 0.16725118E-01 0.33844761E+03</pdfrwt>
<totfact> 0.61706433E+02</totfact>
</mgrwt>
</event>
<event>
 6    1  0.7457796E-006  0.1388122E+03  0.7546771E-02  0.1226557E+00
         -2   -1    0    0    0  501 -0.00000000000E+00  0.00000000000E+00  0.38408722795E+02  0.38408722795E+02  0.00000000000E+00 0.  1.
          2   -1    0    0  501    0  0.00000000000E+00 -0.00000000000E+00 -0.45606328521E+03  0.45606328521E+03  0.00000000000E+00 0. -1.
          5    1    1    2  502    0  0.33486812403E+02  0.26428676412E+00 -0.46280411549E+01  0.34131293813E+02  0.47000000000E+01 0. -1.
         -5    1    1    2    0  502 -0.82963674168E+02  0.34376534419E+02 -0.13949941335E+03  0.16597256905E+03  0.47000000000E+01 0. -1.
        -11    1    1    2    0    0  0.70327752114E+02 -0.46794066343E+02 -0.21960890128E+03  0.23529502095E+03  0.00000000000E+00 0.  1.
         11    1    1    2    0    0 -0.20850890349E+02  0.12153245161E+02 -0.53918206622E+02  0.59073124190E+02  0.00000000000E+00 0. -1.
<mgrwt>
<rscale>  0 0.13060783E+03</rscale>
<asrwt>0</asrwt>
<pdfrwt beam="2">  1        2 0.70163585E-01 0.13881222E+03</pdfrwt>
<pdfrwt beam="1">  1       -2 0.59090340E-02 0.13881222E+03</pdfrwt>
<totfact> 0.99639879E+03</totfact>
</mgrwt>
</event>
<event>
 6    1  0.7457796E-006  0.1506780E+03  0.7546771E-02  0.1207829E+00
         -2   -1    0    0    0  501 -0.00000000000E+00  0.00000000000E+00  0.28540056017E+02  0.28540056017E+02  0.00000000000E+00 0.  1.
          2   -1    0    0  501    0  0.00000000000E+00 -0.00000000000E+00 -0.78701670043E+03  0.78701670043E+03  0.00000000000E+00 0. -1.
          5    1    1    2  502    0  0.74779862828E+02  0.62981729183E+00 -0.62543625843E+02  0.97602354931E+02  0.47000000000E+01 0. -1.
         -5    1    1    2    0  502 -0.64526292975E+01 -0.49484597877E+02 -0.18977454260E+03  0.19628252309E+03  0.47000000000E+01 0. -1.
        -11    1    1    2    0    0 -0.70797826815E+02 -0.11231836310E+01 -0.21828731481E+03  0.22948408578E+03  0.00000000000E+00 0. -1.
         11    1    1    2    0    0  0.24705932843E+01  0.49977964216E+02 -0.28787116117E+03  0.29218779264E+03  0.00000000000E+00 0.  1.
<mgrwt>
<rscale>  0 0.14416704E+03</rscale>
<asrwt>0</asrwt>
<pdfrwt beam="2">  1        2 0.12107949E+00 0.15067801E+03</pdfrwt>
<pdfrwt beam="1">  1       -2 0.43907780E-02 0.15067801E+03</pdfrwt>
<totfact> 0.83714595E+03</totfact>
</mgrwt>
</event>
<event>
 6    1  0.7457796E-006  0.1283625E+03  0.7546771E-02  0.1245356E+00
          3   -1    0    0  501    0  0.00000000000E+00  0.00000000000E+00  0.21388261320E+03  0.21388261320E+03  0.00000000000E+00 0. -1.
         -3   -1    0    0    0  501 -0.00000000000E+00 -0.00000000000E+00 -0.60641693174E+02  0.60641693174E+02  0.00000000000E+00 0.  1.
          5    1    1    2  502    0  0.51510430532E+02 -0.42889728619E+02  0.65977632908E+02  0.94170012842E+02  0.47000000000E+01 0.  1.
         -5    1    1    2    0  502 -0.43084201084E+02  0.14954979435E+02 -0.82364616394E+01  0.46581424338E+02  0.47000000000E+01 0.  1.
        -11    1    1    2    0    0 -0.22793904649E+02  0.38876087836E+02  0.97060351719E+01  0.46099017488E+02  0.00000000000E+00 0.  1.
         11    1    1    2    0    0  0.14367675202E+02 -0.10941338652E+02  0.85793713585E+02  0.87673851706E+02  0.00000000000E+00 0. -1.
<mgrwt>
<rscale>  0 0.11864087E+03</rscale>
<asrwt>0</asrwt>
<pdfrwt beam="1">  1        3 0.32905017E-01 0.12836247E+03</pdfrwt>
<pdfrwt beam="2">  1       -3 0.93294914E-02 0.12836247E+03</pdfrwt>
<totfact> 0.16996042E+03</totfact>
</mgrwt>
</event>
<event>
 6    1  0.7457796E-006  0.1256170E+03  0.7546771E-02  0.1248139E+00
          2   -1    0    0  501    0  0.00000000000E+00  0.00000000000E+00  0.27980359872E+03  0.27980359872E+03  0.00000000000E+00 0. -1.
         -2   -1    0    0    0  501 -0.00000000000E+00 -0.00000000000E+00 -0.52167661894E+02  0.52167661894E+02  0.00000000000E+00 0.  1.
          5    1    1    2  502    0  0.52987160249E+02  0.23532504174E+02  0.30454812906E+02  0.65658232790E+02  0.47000000000E+01 0. -1.
         -5    1    1    2    0  502 -0.57193274140E+02 -0.35222785501E+02  0.28835613810E+02  0.73248193487E+02  0.47000000000E+01 0. -1.
        -11    1    1    2    0    0  0.33794157538E+02  0.33901431555E+02  0.13508335883E+03  0.14331387224E+03  0.00000000000E+00 0. -1.
         11    1    1    2    0    0 -0.29588043647E+02 -0.22211150228E+02  0.33262151282E+02  0.49750962093E+02  0.00000000000E+00 0.  1.
<mgrwt>
<rscale>  0 0.11699467E+03</rscale>
<asrwt>0</asrwt>
<pdfrwt beam="1">  1        2 0.43046707E-01 0.12561704E+03</pdfrwt>
<pdfrwt beam="2">  1       -2 0.80257943E-02 0.12561704E+03</pdfrwt>
<totfact> 0.10420747E+04</totfact>
</mgrwt>
</event>
<event>
 6    1  0.7457796E-006  0.3107891E+03  0.7546771E-02  0.1079968E+00
          2   -1    0    0  501    0  0.00000000000E+00  0.00000000000E+00  0.75619390201E+02  0.75619390201E+02  0.00000000000E+00 0. -1.
         -2   -1    0    0    0  501 -0.00000000000E+00 -0.00000000000E+00 -0.31932911992E+03  0.31932911992E+03  0.00000000000E+00 0.  1.
          5    1    1    2  502    0 -0.79557954096E+02 -0.10447751834E+03 -0.10831754085E+03  0.17029327513E+03  0.47000000000E+01 0. -1.
         -5    1    1    2    0  502  0.26931250571E+02  0.90387085931E+01 -0.57061913396E+02  0.63915119266E+02  0.47000000000E+01 0. -1.
        -11    1    1    2    0    0  0.32248977371E+02  0.58223005206E+02 -0.94284583914E+02  0.11541012798E+03  0.00000000000E+00 0.  1.
         11    1    1    2    0    0  0.20377726154E+02  0.37215804540E+02  0.15954308444E+02  0.45329987742E+02  0.00000000000E+00 0. -1.
<mgrwt>
<rscale>  0 0.31078915E+03</rscale>
<asrwt>0</asrwt>
<pdfrwt beam="1">  1        2 0.11633752E-01 0.31078915E+03</pdfrwt>
<pdfrwt beam="2">  1       -2 0.49127557E-01 0.31078915E+03</pdfrwt>
<totfact> 0.21158008E+03</totfact>
</mgrwt>
</event>
<event>
 6    1  0.7457796E-006  0.1276580E+03  0.7546771E-02  0.1245764E+00
         -1   -1    0    0    0  501 -0.00000000000E+00  0.00000000000E+00  0.47438351476E+03  0.47438351476E+03  0.00000000000E+00 0.  1.
          1   -1    0    0  501    0  0.00000000000E+00 -0.00000000000E+00 -0.26748882080E+02  0.26748882080E+02  0.00000000000E+00 0. -1.
          5    1    1    2  502    0 -0.27377764216E+02 -0.47800593512E+02  0.14270121918E+03  0.15303648803E+03  0.47000000000E+01 0.  1.
         -5    1    1    2    0  502  0.53319798262E+02  0.48070455986E+02  0.15512786645E+03  0.17099858062E+03  0.47000000000E+01 0.  1.
        -11    1    1    2    0    0 -0.33994515342E+02  0.40375470516E+02  0.77626935450E+02  0.93870904971E+02  0.00000000000E+00 0.  1.
         11    1    1    2    0    0  0.80524812962E+01 -0.40645332990E+02  0.72178611606E+02  0.83226423222E+02  0.00000000000E+00 0. -1.
<mgrwt>
<rscale>  0 0.11839744E+03</rscale>
<asrwt>0</asrwt>
<pdfrwt beam="2">  1        1 0.41152130E-02 0.12765799E+03</pdfrwt>
<pdfrwt beam="1">  1       -1 0.72982073E-01 0.12765799E+03</pdfrwt>
<totfact> 0.41083546E+03</totfact>
</mgrwt>
</event>
<event>
 6    1  0.7457796E-006  0.1262062E+03  0.7546771E-02  0.1249650E+00
          2   -1    0    0  501    0  0.00000000000E+00  0.00000000000E+00  0.54188274111E+03  0.54188274111E+03  0.00000000000E+00 0. -1.
         -2   -1    0    0    0  501 -0.00000000000E+00 -0.00000000000E+00 -0.21681589127E+02  0.21681589127E+02  0.00000000000E+00 0.  1.
          5    1    1    2  502    0 -0.15056037534E+00  0.58155460735E+02  0.20390430392E+03  0.21208756550E+03  0.47000000000E+01 0.  1.
         -5    1    1    2    0  502  0.17541886247E+02 -0.59161559009E+02  0.10957762823E+03  0.12584575657E+03  0.47000000000E+01 0.  1.
        -11    1    1    2    0    0  0.21547852069E+02  0.18727105249E+02  0.15899691898E+03  0.16153957609E+03  0.00000000000E+00 0. -1.
         11    1    1    2    0    0 -0.38939177941E+02 -0.17721006975E+02  0.47722300853E+02  0.64091432076E+02  0.00000000000E+00 0.  1.
<mgrwt>
<rscale>  0 0.11611320E+03</rscale>
<asrwt>0</asrwt>
<pdfrwt beam="1">  1        2 0.83366565E-01 0.12620621E+03</pdfrwt>
<pdfrwt beam="2">  1       -2 0.33356295E-02 0.12620621E+03</pdfrwt>
<totfact> 0.19221736E+04</totfact>
</mgrwt>
</event>
<event>
 6    1  0.7457796E-006  0.1410491E+03  0.7546771E-02  0.1222847E+00
          3   -1    0    0  501    0  0.00000000000E+00  0.00000000000E+00  0.12011575351E+03  0.12011575351E+03  0.00000000000E+00 0. -1.
         -3   -1    0    0    0  501 -0.00000000000E+00 -0.00000000000E+00 -0.13333694214E+03  0.13333694214E+03  0.00000000000E+00 0.  1.
          5    1    1    2  502    0  0.76808008820E+01 -0.38106612104E+02 -0.64074245181E+02  0.75091327620E+02  0.47000000000E+01 0.  1.
         -5    1    1    2    0  502 -0.28884105854E+02 -0.23197001258E+02  0.54742260006E+02  0.66266111014E+02  0.47000000000E+01 0.  1.
        -11    1    1    2    0    0  0.39814665439E+02 -0.69073772136E+01 -0.83013192391E+01  0.41253258600E+02  0.00000000000E+00 0.  1.
         11    1    1    2    0    0 -0.18611360467E+02  0.68210990575E+02  0.44121157891E+01  0.70841998415E+02  0.00000000000E+00 0. -1.
<mgrwt>
<rscale>  0 0.13315549E+03</rscale>
<asrwt>0</asrwt>
<pdfrwt beam="1">  1        3 0.18479347E-01 0.14104907E+03</pdfrwt>
<pdfrwt beam="2">  1       -3 0.20513376E-01 0.14104907E+03</pdfrwt>
<totfact> 0.12819437E+03</totfact>
</mgrwt>
</event>
<event>
 6    1  0.7457796E-006  0.2568866E+03  0.7546771E-02  0.1111276E+00
          1   -1    0    0  501    0  0.00000000000E+00  0.00000000000E+00  0.59803158560E+03  0.59803158560E+03  0.00000000000E+00 0.  1.
         -1   -1    0    0    0  501 -0.00000000000E+00 -0.00000000000E+00 -0.10494135607E+03  0.10494135607E+03  0.00000000000E+00 0. -1.
          5    1    1    2  502    0  0.13778642086E+03 -0.32587490185E+02  0.20164382117E+03  0.24643328287E+03  0.47000000000E+01 0.  1.
         -5    1    1    2    0  502  0.86630321644E+02  0.32210346169E+02  0.24303667042E+02  0.95682167932E+02  0.47000000000E+01 0.  1.
        -11    1    1    2    0    0 -0.12082883638E+03  0.12581176183E+02  0.76545863560E+02  0.14358677838E+03  0.00000000000E+00 0. -1.
         11    1    1    2    0    0 -0.10358790611E+03 -0.12204032168E+02  0.19059687776E+03  0.21727071249E+03  0.00000000000E+00 0.  1.
<mgrwt>
<rscale>  0 0.25323692E+03</rscale>
<asrwt>0</asrwt>
<pdfrwt beam="1">  1        1 0.92004858E-01 0.25688658E+03</pdfrwt>
<pdfrwt beam="2">  1       -1 0.16144824E-01 0.25688658E+03</pdfrwt>
<totfact> 0.10108305E+03</totfact>
</mgrwt>
</event>
<event>
 6    1  0.7457796E-006  0.3120940E+03  0.7546771E-02  0.1079347E+00
          1   -1    0    0  501    0  0.00000000000E+00  0.00000000000E+00  0.70326678441E+03  0.70326678441E+03  0.00000000000E+00 0. -1.
         -1   -1    0    0    0  501 -0.00000000000E+00 -0.00000000000E+00 -0.34625071817E+02  0.34625071817E+02  0.00000000000E+00 0.  1.
          5    1    1    2  502    0  0.56976232079E+02  0.75341759528E+02  0.83761072210E+02  0.12633558077E+03  0.47000000000E+01 0. -1.
         -5    1    1    2    0  502 -0.43252646625E+02 -0.67003757029E+01  0.79498746398E+02  0.90872587470E+02  0.47000000000E+01 0. -1.
        -11    1    1    2    0    0 -0.56468542327E+02 -0.21378794907E+02  0.21012142807E+03  0.21862470967E+03  0.00000000000E+00 0.  1.
         11    1    1    2    0    0  0.42744956873E+02 -0.47262588918E+02  0.29526046592E+03  0.30205897832E+03  0.00000000000E+00 0. -1.
<mgrwt>
<rscale>  0 0.31209398E+03</rscale>
<asrwt>0</asrwt>
<pdfrwt beam="1">  1        1 0.10819488E+00 0.31209398E+03</pdfrwt>
<pdfrwt beam="2">  1       -1 0.53269347E-02 0.31209398E+03</pdfrwt>
<totfact> 0.44837667E+03</totfact>
</mgrwt>
</event>
<event>
 6    1  0.7457796E-006  0.2794806E+03  0.7546771E-02  0.1095973E+00
         -2   -1    0    0    0  501 -0.00000000000E+00  0.00000000000E+00  0.42382833917E+02  0.42382833917E+02  0.00000000000E+00 0.  1.
          2   -1    0    0  501    0  0.00000000000E+00 -0.00000000000E+00 -0.46073720909E+03  0.46073720909E+03  0.00000000000E+00 0. -1.
          5    1    1    2  502    0  0.41807468653E+01  0.18610796113E+02  0.34606637912E+01  0.19947595599E+02  0.47000000000E+01 0. -1.
         -5    1    1    2    0  502 -0.78827297144E+02 -0.64352282770E+02 -0.25061416434E+03  0.27052635443E+03  0.47000000000E+01 0. -1.
        -11    1    1    2    0    0  0.23330993667E+02  0.65503721380E+02 -0.78549712871E+02  0.10490533910E+03  0.00000000000E+00 0.  1.
         11    1    1    2    0    0  0.51315556611E+02 -0.19762234723E+02 -0.92651161753E+02  0.10774075388E+03  0.00000000000E+00 0. -1.
<mgrwt>
<rscale>  0 0.27948058E+03</rscale>
<asrwt>0</asrwt>
<pdfrwt beam="2">  1        2 0.70882648E-01 0.27948058E+03</pdfrwt>
<pdfrwt beam="1">  1       -2 0.65204359E-02 0.27948058E+03</pdfrwt>
<totfact> 0.88351955E+03</totfact>
</mgrwt>
</event>
<event>
 6    1  0.7457796E-006  0.1253015E+03  0.7546771E-02  0.1251091E+00
         -2   -1    0    0    0  501 -0.00000000000E+00  0.00000000000E+00  0.43209344057E+02  0.43209344057E+02  0.00000000000E+00 0.  1.
          2   -1    0    0  501    0  0.00000000000E+00 -0.00000000000E+00 -0.28306956109E+03  0.28306956109E+03  0.00000000000E+00 0. -1.
          5    1    1    2  502    0  0.39646363821E+02 -0.19612916235E+00 -0.11728872579E+03  0.12389756991E+03  0.47000000000E+01 0.  1.
         -5    1    1    2    0  502 -0.32581143237E+02  0.53472631389E+01  0.16219801994E+02  0.37084984757E+02  0.47000000000E+01 0.  1.
        -11    1    1    2    0    0 -0.13613397698E+02  0.40538497208E+02 -0.55413406782E+02  0.69995285584E+02  0.00000000000E+00 0. -1.
         11    1    1    2    0    0  0.65481771137E+01 -0.45689631185E+02 -0.83377886457E+02  0.95301064901E+02  0.00000000000E+00 0.  1.
<mgrwt>
<rscale>  0 0.11528108E+03</rscale>
<asrwt>0</asrwt>
<pdfrwt beam="2">  1        2 0.43549164E-01 0.12530146E+03</pdfrwt>
<pdfrwt beam="1">  1       -2 0.66475912E-02 0.12530146E+03</pdfrwt>
<totfact> 0.13734768E+04</totfact>
</mgrwt>
</event>
<event>
 6    1  0.7457796E-006  0.1376407E+03  0.7546771E-02  0.1229824E+00
          1   -1    0    0  501    0  0.00000000000E+00  0.00000000000E+00  0.60405244405E+02  0.60405244405E+02  0.00000000000E+00 0.  1.
         -1   -1    0    0    0  501 -0.00000000000E+00 -0.00000000000E+00 -0.43207795007E+03  0.43207795007E+03  0.00000000000E+00 0. -1.
          5    1    1    2  502    0 -0.51914287120E+02  0.54605007330E+02 -0.35159449028E+03  0.35960753000E+03  0.47000000000E+01 0. -1.
         -5    1    1    2    0  502  0.25302613315E+02 -0.35014455172E+01 -0.10951625770E+02  0.28187062072E+02  0.47000000000E+01 0. -1.
        -11    1    1    2    0    0  0.64623740386E+01 -0.40684692953E+02  0.35659943302E+02  0.54485209692E+02  0.00000000000E+00 0.  1.
         11    1    1    2    0    0  0.20149299766E+02 -0.10418868860E+02 -0.44786532909E+02  0.50203392708E+02  0.00000000000E+00 0. -1.
<mgrwt>
<rscale>  0 0.12841650E+03</rscale>
<asrwt>0</asrwt>
<pdfrwt beam="1">  1        1 0.92931143E-02 0.13764069E+03</pdfrwt>
<pdfrwt beam="2">  1       -1 0.66473532E-01 0.13764069E+03</pdfrwt>
<totfact> 0.16451102E+03</totfact>
</mgrwt>
</event>
<event>
 6    1  0.7457796E-006  0.1560669E+03  0.7546771E-02  0.1201616E+00
          3   -1    0    0  501    0  0.00000000000E+00  0.00000000000E+00  0.25240427083E+03  0.25240427083E+03  0.00000000000E+00 0. -1.
         -3   -1    0    0    0  501 -0.00000000000E+00 -0.00000000000E+00 -0.13281384028E+03  0.13281384028E+03  0.00000000000E+00 0.  1.
          5    1    1    2  502    0  0.17127377370E+02 -0.27972228571E+02 -0.37079347692E+02  0.49726860469E+02  0.47000000000E+01 0. -1.
         -5    1    1    2    0  502  0.23359344985E+02  0.11217858352E+03 -0.19776782589E+02  0.11637398648E+03  0.47000000000E+01 0. -1.
        -11    1    1    2    0    0  0.21009545771E+01 -0.83386175091E+02  0.14043456394E+03  0.16333871236E+03  0.00000000000E+00 0. -1.
         11    1    1    2    0    0 -0.42587676933E+02 -0.82017986202E+00  0.36011996889E+02  0.55778551805E+02  0.00000000000E+00 0.  1.
<mgrwt>
<rscale>  0 0.14907381E+03</rscale>
<asrwt>0</asrwt>
<pdfrwt beam="1">  1        3 0.38831426E-01 0.15606688E+03</pdfrwt>
<pdfrwt beam="2">  1       -3 0.20432898E-01 0.15606688E+03</pdfrwt>
<totfact> 0.33688525E+02</totfact>
</mgrwt>
</event>
<event>
 6    1  0.7457796E-006  0.2951696E+03  0.7546771E-02  0.1087681E+00
         -1   -1    0    0    0  501 -0.00000000000E+00  0.00000000000E+00  0.62579235762E+03  0.62579235762E+03  0.00000000000E+00 0.  1.
          1   -1    0    0  501    0  0.00000000000E+00 -0.00000000000E+00 -0.34805912044E+02  0.34805912044E+02  0.00000000000E+00 0. -1.
          5    1    1    2  502    0 -0.26064844947E+01 -0.31554900658E+02  0.76164003900E+02  0.82616892988E+02  0.47000000000E+01 0.  1.
         -5    1    1    2    0  502  0.23842650824E+02  0.11910196725E+03  0.34208422827E+03  0.36303919875E+03  0.47000000000E+01 0.  1.
        -11    1    1    2    0    0  0.15046025437E+02 -0.51109832492E+02  0.14912931677E+03  0.15836082526E+03  0.00000000000E+00 0.  1.
         11    1    1    2    0    0 -0.36282191767E+02 -0.36437234099E+02  0.23608896642E+02  0.56581352660E+02  0.00000000000E+00 0. -1.
<mgrwt>
<rscale>  0 0.29516960E+03</rscale>
<asrwt>0</asrwt>
<pdfrwt beam="2">  1        1 0.53547562E-02 0.29516960E+03</pdfrwt>
<pdfrwt beam="1">  1       -1 0.96275739E-01 0.29516960E+03</pdfrwt>
<totfact> 0.16607239E+03</totfact>
</mgrwt>
</event>
<event>
 6    1  0.7457796E-006  0.1338485E+03  0.7546771E-02  0.1232227E+00
         -2   -1    0    0    0  501 -0.00000000000E+00  0.00000000000E+00  0.66117999463E+02  0.66117999463E+02  0.00000000000E+00 0.  1.
          2   -1    0    0  501    0  0.00000000000E+00 -0.00000000000E+00 -0.24910141331E+03  0.24910141331E+03  0.00000000000E+00 0. -1.
          5    1    1    2  502    0  0.54830986721E+01 -0.61176525197E+02  0.25079555957E+02  0.66510944462E+02  0.47000000000E+01 0. -1.
         -5    1    1    2    0  502 -0.14391194702E+02  0.14158732049E+02 -0.72634635912E+02  0.75534472343E+02  0.47000000000E+01 0. -1.
        -11    1    1    2    0    0 -0.34424442907E+02 -0.35158767399E+01 -0.77715004653E+02  0.85070709453E+02  0.00000000000E+00 0.  1.
         11    1    1    2    0    0  0.43332538937E+02  0.50533669888E+02 -0.57713329241E+02  0.88103286517E+02  0.00000000000E+00 0. -1.
<mgrwt>
<rscale>  0 0.12683624E+03</rscale>
<asrwt>0</asrwt>
<pdfrwt beam="2">  1        2 0.38323294E-01 0.13384848E+03</pdfrwt>
<pdfrwt beam="1">  1       -2 0.10172000E-01 0.13384848E+03</pdfrwt>
<totfact> 0.81903343E+03</totfact>
</mgrwt>
</event>
<event>
 6    1  0.7457796E-006  0.1281638E+03  0.7546771E-02  0.1243723E+00
         -1   -1    0    0    0  501 -0.00000000000E+00  0.00000000000E+00  0.12328983312E+02  0.12328983312E+02  0.00000000000E+00 0.  1.
          1   -1    0    0  501    0  0.00000000000E+00 -0.00000000000E+00 -0.10328103883E+04  0.10328103883E+04  0.00000000000E+00 0. -1.
          5    1    1    2  502    0  0.25125332196E+02 -0.34553114553E+02 -0.39710152380E+03  0.39942071835E+03  0.47000000000E+01 0.  1.
         -5    1    1    2    0  502 -0.15714667852E+02  0.61355077870E+02 -0.15804969413E+03  0.17033259283E+03  0.47000000000E+01 0.  1.
        -11    1    1    2    0    0 -0.15252342409E+02  0.32676982201E+02 -0.13734932134E+03  0.14200441960E+03  0.00000000000E+00 0. -1.
         11    1    1    2    0    0  0.58416780648E+01 -0.59478945518E+02 -0.32798086569E+03  0.33338164080E+03  0.00000000000E+00 0.  1.
<mgrwt>
<rscale>  0 0.11962139E+03</rscale>
<asrwt>0</asrwt>
<pdfrwt beam="2">  1        1 0.15889390E+00 0.12816380E+03</pdfrwt>
<pdfrwt beam="1">  1       -1 0.18967667E-02 0.12816380E+03</pdfrwt>
<totfact> 0.10758634E+04</totfact>
</mgrwt>
</event>
<event>
 6    1  0.7457796E-006  0.1740137E+03  0.7546771E-02  0.1179271E+00
         -1   -1    0    0    0  501 -0.00000000000E+00  0.00000000000E+00  0.32126023513E+03  0.32126023513E+03  0.00000000000E+00 0.  1.
          1   -1    0    0  501    0  0.00000000000E+00 -0.00000000000E+00 -0.85025511300E+02  0.85025511300E+02  0.00000000000E+00 0. -1.
          5    1    1    2  502    0  0.73536325265E+01  0.16744260879E+02  0.11910669971E+03  0.12059412133E+03  0.47000000000E+01 0.  1.
         -5    1    1    2    0  502 -0.21703761033E+02  0.10337577618E+03  0.33660485936E+02  0.11096270840E+03  0.47000000000E+01 0.  1.
        -11    1    1    2    0    0  0.28657037021E+02  0.35599559793E+01  0.13036144290E+02  0.31683435978E+02  0.00000000000E+00 0. -1.
         11    1    1    2    0    0 -0.14306908515E+02 -0.12367999303E+03  0.70431393898E+02  0.14304548072E+03  0.00000000000E+00 0.  1.
<mgrwt>
<rscale>  0 0.16864255E+03</rscale>
<asrwt>0</asrwt>
<pdfrwt beam="2">  1        1 0.13080848E-01 0.17401366E+03</pdfrwt>
<pdfrwt beam="1">  1       -1 0.49424651E-01 0.17401366E+03</pdfrwt>
<totfact> 0.18460673E+03</totfact>
</mgrwt>
</event>
<event>
 6    1  0.7457796E-006  0.1118469E+03  0.7546771E-02  0.1268232E+00
         -1   -1    0    0    0  501 -0.00000000000E+00  0.00000000000E+00  0.86673779672E+03  0.86673779672E+03  0.00000000000E+00 0.  1.
          1   -1    0    0  501    0  0.00000000000E+00 -0.00000000000E+00 -0.32969218272E+02  0.32969218272E+02  0.00000000000E+00 0. -1.
          5    1    1    2  502    0 -0.74246441740E+01 -0.50505244365E+02  0.22269715521E+03  0.22852137315E+03  0.47000000000E+01 0. -1.
         -5    1    1    2    0  502  0.12835512335E+02  0.46119269157E+02  0.57022804193E+03  0.57225330682E+03  0.47000000000E+01 0.  1.
        -11    1    1    2    0    0  0.38744742117E+02 -0.15145073091E+02  0.15419792554E+02  0.44365507808E+02  0.00000000000E+00 0.  1.
         11    1    1    2    0    0 -0.44155610277E+02  0.19531048299E+02  0.25423588755E+02  0.54566827210E+02  0.00000000000E+00 0. -1.
<mgrwt>
<rscale>  0 0.10596404E+03</rscale>
<asrwt>0</asrwt>
<pdfrwt beam="2">  1        1 0.50721881E-02 0.11184686E+03</pdfrwt>
<pdfrwt beam="1">  1       -1 0.13334426E+00 0.11184686E+03</pdfrwt>
<totfact> 0.81832972E+02</totfact>
</mgrwt>
</event>
<event>
 6    1  0.7457796E-006  0.1871947E+03  0.7546771E-02  0.1166245E+00
          1   -1    0    0  501    0  0.00000000000E+00  0.00000000000E+00  0.17133841848E+03  0.17133841848E+03  0.00000000000E+00 0. -1.
         -1   -1    0    0    0  501 -0.00000000000E+00 -0.00000000000E+00 -0.18190652368E+03  0.18190652368E+03  0.00000000000E+00 0.  1.
          5    1    1    2  502    0 -0.15421355159E+03  0.15304026354E+02  0.21540740574E+02  0.15653155025E+03  0.47000000000E+01 0. -1.
         -5    1    1    2    0  502  0.16295503442E+02  0.45407475141E+01 -0.25182279436E+02  0.30698518173E+02  0.47000000000E+01 0. -1.
        -11    1    1    2    0    0  0.13185721387E+03 -0.44685399349E+02  0.10599975771E+01  0.13922727233E+03  0.00000000000E+00 0.  1.
         11    1    1    2    0    0  0.60608342770E+01  0.24840625481E+02 -0.79865639064E+01  0.26787601413E+02  0.00000000000E+00 0. -1.
<mgrwt>
<rscale>  0 0.18161940E+03</rscale>
<asrwt>0</asrwt>
<pdfrwt beam="1">  1        1 0.26359757E-01 0.18719465E+03</pdfrwt>
<pdfrwt beam="2">  1       -1 0.27985619E-01 0.18719465E+03</pdfrwt>
<totfact> 0.20285354E+03</totfact>
</mgrwt>
</event>
<event>
 6    1  0.7457796E-006  0.2559012E+03  0.7546771E-02  0.1109631E+00
         -2   -1    0    0    0  501 -0.00000000000E+00  0.00000000000E+00  0.23373785347E+02  0.23373785347E+02  0.00000000000E+00 0. -1.
          2   -1    0    0  501    0  0.00000000000E+00 -0.00000000000E+00 -0.70041543204E+03  0.70041543204E+03  0.00000000000E+00 0.  1.
          5    1    1    2  502    0  0.16546889337E+01  0.19586347992E+01  0.12284497961E+02  0.13400490136E+02  0.47000000000E+01 0.  1.
         -5    1    1    2    0  502  0.48533272125E+02 -0.36027496061E+02 -0.30053820672E+03  0.30659217647E+03  0.47000000000E+01 0.  1.
        -11    1    1    2    0    0  0.21595480037E+02  0.21321275949E+02 -0.18246007714E+03  0.18496659513E+03  0.00000000000E+00 0.  1.
         11    1    1    2    0    0 -0.71783441096E+02  0.12747585313E+02 -0.20632786080E+03  0.21882995565E+03  0.00000000000E+00 0. -1.
<mgrwt>
<rscale>  0 0.25590123E+03</rscale>
<asrwt>0</asrwt>
<pdfrwt beam="2">  1        2 0.10775620E+00 0.25590123E+03</pdfrwt>
<pdfrwt beam="1">  1       -2 0.35959675E-02 0.25590123E+03</pdfrwt>
<totfact> 0.13416806E+04</totfact>
</mgrwt>
</event>
<event>
 6    1  0.7457796E-006  0.1665576E+03  0.7546771E-02  0.1188188E+00
          1   -1    0    0  501    0  0.00000000000E+00  0.00000000000E+00  0.10452158481E+03  0.10452158481E+03  0.00000000000E+00 0. -1.
         -1   -1    0    0    0  501 -0.00000000000E+00 -0.00000000000E+00 -0.29067590335E+03  0.29067590335E+03  0.00000000000E+00 0.  1.
          5    1    1    2  502    0  0.91690542189E+02  0.48054823525E+02 -0.12457885770E+03  0.16204444877E+03  0.47000000000E+01 0.  1.
         -5    1    1    2    0  502 -0.38574378199E+02  0.49147588533E+02 -0.64170994030E+02  0.89685420147E+02  0.47000000000E+01 0. -1.
        -11    1    1    2    0    0 -0.22148142219E+02  0.24359403955E+01 -0.27004593186E+02  0.35010313659E+02  0.00000000000E+00 0.  1.
         11    1    1    2    0    0 -0.30968021771E+02 -0.99638352453E+02  0.29600126382E+02  0.10845730558E+03  0.00000000000E+00 0. -1.
<mgrwt>
<rscale>  0 0.16045157E+03</rscale>
<asrwt>0</asrwt>
<pdfrwt beam="1">  1        1 0.16080244E-01 0.16655756E+03</pdfrwt>
<pdfrwt beam="2">  1       -1 0.44719369E-01 0.16655756E+03</pdfrwt>
<totfact> 0.16881122E+03</totfact>
</mgrwt>
</event>
<event>
 6    1  0.7457796E-006  0.1705847E+03  0.7546771E-02  0.1182734E+00
          1   -1    0    0  501    0  0.00000000000E+00  0.00000000000E+00  0.10835856720E+03  0.10835856720E+03  0.00000000000E+00 0. -1.
         -1   -1    0    0    0  501 -0.00000000000E+00 -0.00000000000E+00 -0.23827252573E+03  0.23827252573E+03  0.00000000000E+00 0.  1.
          5    1    1    2  502    0 -0.24415562666E+02 -0.57326242806E+02 -0.19530338328E+02  0.65467105708E+02  0.47000000000E+01 0. -1.
         -5    1    1    2    0  502 -0.91654079465E+02  0.56569278237E+02 -0.47658628833E+02  0.11787276371E+03  0.47000000000E+01 0. -1.
        -11    1    1    2    0    0 -0.52066618294E+01  0.14479245629E+02 -0.34853851816E+02  0.38099197732E+02  0.00000000000E+00 0.  1.
         11    1    1    2    0    0  0.12127630396E+03 -0.13722281061E+02 -0.27871139553E+02  0.12519202578E+03  0.00000000000E+00 0. -1.
<mgrwt>
<rscale>  0 0.16539756E+03</rscale>
<asrwt>0</asrwt>
<pdfrwt beam="1">  1        1 0.16670549E-01 0.17058473E+03</pdfrwt>
<pdfrwt beam="2">  1       -1 0.36657311E-01 0.17058473E+03</pdfrwt>
<totfact> 0.22907069E+03</totfact>
</mgrwt>
</event>
<event>
 6    1  0.7457796E-006  0.1309453E+03  0.7546771E-02  0.1235563E+00
          2   -1    0    0  501    0  0.00000000000E+00  0.00000000000E+00  0.15539767879E+03  0.15539767879E+03  0.00000000000E+00 0. -1.
         -2   -1    0    0    0  501 -0.00000000000E+00 -0.00000000000E+00 -0.14525151739E+03  0.14525151739E+03  0.00000000000E+00 0.  1.
          5    1    1    2  502    0 -0.19987392314E+02  0.24542668531E+01 -0.11737404492E+03  0.11918169196E+03  0.47000000000E+01 0. -1.
         -5    1    1    2    0  502 -0.17774041282E+02  0.72942563426E+01  0.31654282023E+02  0.37325678688E+02  0.47000000000E+01 0. -1.
        -11    1    1    2    0    0  0.60145505542E+02 -0.22045719361E+02  0.24913172611E+02  0.68732537772E+02  0.00000000000E+00 0.  1.
         11    1    1    2    0    0 -0.22384071945E+02  0.12297196165E+02  0.70952751684E+02  0.75409287769E+02  0.00000000000E+00 0. -1.
<mgrwt>
<rscale>  0 0.12468436E+03</rscale>
<asrwt>0</asrwt>
<pdfrwt beam="1">  1        2 0.23907335E-01 0.13094533E+03</pdfrwt>
<pdfrwt beam="2">  1       -2 0.22346387E-01 0.13094533E+03</pdfrwt>
<totfact> 0.37583843E+03</totfact>
</mgrwt>
</event>
<event>
 6    1  0.7457796E-006  0.3569718E+03  0.7546771E-02  0.1059789E+00
         -2   -1    0    0    0  501 -0.00000000000E+00  0.00000000000E+00  0.10501205109E+03  0.10501205109E+03  0.00000000000E+00 0.  1.
          2   -1    0    0  501    0  0.00000000000E+00 -0.00000000000E+00 -0.30336724005E+03  0.30336724005E+03  0.00000000000E+00 0. -1.
          5    1    1    2  502    0  0.25859530459E+02  0.18535477451E+02  0.30483624383E+02  0.44312758834E+02  0.47000000000E+01 0. -1.
         -5    1    1    2    0  502  0.10506557314E+01  0.11711821935E+03 -0.10189407532E+03  0.15531346937E+03  0.47000000000E+01 0. -1.
        -11    1    1    2    0    0  0.75889380209E+01 -0.85875634805E+02 -0.24294884797E+02  0.89568175491E+02  0.00000000000E+00 0.  1.
         11    1    1    2    0    0 -0.34499124212E+02 -0.49778061997E+02 -0.10264985323E+03  0.11918488745E+03  0.00000000000E+00 0. -1.
<mgrwt>
<rscale>  0 0.35697180E+03</rscale>
<asrwt>0</asrwt>
<pdfrwt beam="2">  1        2 0.46671882E-01 0.35697180E+03</pdfrwt>
<pdfrwt beam="1">  1       -2 0.16155701E-01 0.35697180E+03</pdfrwt>
<totfact> 0.32789040E+03</totfact>
</mgrwt>
</event>
<event>
 6    1  0.7457796E-006  0.1291310E+03  0.7546771E-02  0.1242101E+00
          2   -1    0    0  501    0  0.00000000000E+00  0.00000000000E+00  0.36982026814E+03  0.36982026814E+03  0.00000000000E+00 0. -1.
         -2   -1    0    0    0  501 -0.00000000000E+00 -0.00000000000E+00 -0.34965912586E+02  0.34965912586E+02  0.00000000000E+00 0.  1.
          5    1    1    2  502    0 -0.12413969094E+02  0.75823803656E+02  0.15405729875E+03  0.17221816724E+03  0.47000000000E+01 0.  1.
         -5    1    1    2    0  502  0.72898956985E+00 -0.45597242163E+02  0.39803723055E+02  0.60712982860E+02  0.47000000000E+01 0.  1.
        -11    1    1    2    0    0 -0.28608213735E+02 -0.39643539669E+02  0.10929317554E+03  0.11972902050E+03  0.00000000000E+00 0.  1.
         11    1    1    2    0    0  0.40293193259E+02  0.94169781755E+01  0.31700158205E+02  0.52126010121E+02  0.00000000000E+00 0. -1.
<mgrwt>
<rscale>  0 0.12060552E+03</rscale>
<asrwt>0</asrwt>
<pdfrwt beam="1">  1        2 0.56895423E-01 0.12913104E+03</pdfrwt>
<pdfrwt beam="2">  1       -2 0.53793714E-02 0.12913104E+03</pdfrwt>
<totfact> 0.14295107E+04</totfact>
</mgrwt>
</event>
<event>
 6    1  0.7457796E-006  0.1308313E+03  0.7546771E-02  0.1240917E+00
          4   -1    0    0  501    0  0.00000000000E+00  0.00000000000E+00  0.29920782060E+03  0.29920782060E+03  0.00000000000E+00 0. -1.
         -4   -1    0    0    0  501 -0.00000000000E+00 -0.00000000000E+00 -0.43643244923E+02  0.43643244923E+02  0.00000000000E+00 0.  1.
          5    1    1    2  502    0  0.16593300923E+02  0.33953052460E+02 -0.23004588056E+00  0.38082677532E+02  0.47000000000E+01 0.  1.
         -5    1    1    2    0  502  0.50815122617E+01 -0.65857745792E+02  0.13160093456E+03  0.14732264057E+03  0.47000000000E+01 0.  1.
        -11    1    1    2    0    0 -0.33659923631E+02 -0.13548826395E+02  0.16341114012E+02  0.39794386069E+02  0.00000000000E+00 0.  1.
         11    1    1    2    0    0  0.11985110446E+02  0.45453519727E+02  0.10785257299E+03  0.11765136135E+03  0.00000000000E+00 0. -1.
<mgrwt>
<rscale>  0 0.12133125E+03</rscale>
<asrwt>0</asrwt>
<pdfrwt beam="1">  1        4 0.46031971E-01 0.13083127E+03</pdfrwt>
<pdfrwt beam="2">  1       -4 0.67143456E-02 0.13083127E+03</pdfrwt>
<totfact> 0.11100225E+03</totfact>
</mgrwt>
</event>
<event>
 6    1  0.7457796E-006  0.1339419E+03  0.7546771E-02  0.1234847E+00
         -1   -1    0    0    0  501 -0.00000000000E+00  0.00000000000E+00  0.40999251181E+03  0.40999251181E+03  0.00000000000E+00 0.  1.
          1   -1    0    0  501    0  0.00000000000E+00 -0.00000000000E+00 -0.38187402300E+02  0.38187402300E+02  0.00000000000E+00 0. -1.
          5    1    1    2  502    0 -0.59583256590E+02  0.67531397503E+02  0.21178929569E+03  0.23019002994E+03  0.47000000000E+01 0. -1.
         -5    1    1    2    0  502  0.25534249665E+02 -0.33497922034E+02  0.70374597131E+02  0.82150974479E+02  0.47000000000E+01 0. -1.
        -11    1    1    2    0    0 -0.15331531335E+02 -0.12407290428E+02  0.78305897830E+02  0.80751534622E+02  0.00000000000E+00 0.  1.
         11    1    1    2    0    0  0.49380538259E+02 -0.21626185041E+02  0.11335318856E+02  0.55087375067E+02  0.00000000000E+00 0. -1.
<mgrwt>
<rscale>  0 0.12514211E+03</rscale>
<asrwt>0</asrwt>
<pdfrwt beam="2">  1        1 0.58749853E-02 0.13394193E+03</pdfrwt>
<pdfrwt beam="1">  1       -1 0.63075768E-01 0.13394193E+03</pdfrwt>
<totfact> 0.33706288E+03</totfact>
</mgrwt>
</event>
<event>
 6    1  0.7457796E-006  0.1402129E+03  0.7546771E-02  0.1221685E+00
          2   -1    0    0  501    0  0.00000000000E+00  0.00000000000E+00  0.40573029824E+03  0.40573029824E+03  0.00000000000E+00 0. -1.
         -2   -1    0    0    0  501 -0.00000000000E+00 -0.00000000000E+00 -0.79911562293E+02  0.79911562293E+02  0.00000000000E+00 0.  1.
          5    1    1    2  502    0 -0.84394905073E+02 -0.45790371055E+01  0.32493054252E+02  0.90671694358E+02  0.47000000000E+01 0. -1.
         -5    1    1    2    0  502  0.19010948247E+02 -0.32615413459E+02 -0.31737347027E+02  0.49543218958E+02  0.47000000000E+01 0.  1.
        -11    1    1    2    0    0  0.51328269598E+02  0.56063744644E+02  0.30554017575E+03  0.31485319392E+03  0.00000000000E+00 0. -1.
         11    1    1    2    0    0  0.14055687227E+02 -0.18869294080E+02  0.19522852967E+02  0.30573753294E+02  0.00000000000E+00 0.  1.
<mgrwt>
<rscale>  0 0.13396694E+03</rscale>
<asrwt>0</asrwt>
<pdfrwt beam="1">  1        2 0.62420045E-01 0.14021288E+03</pdfrwt>
<pdfrwt beam="2">  1       -2 0.12294087E-01 0.14021288E+03</pdfrwt>
<totfact> 0.36204025E+03</totfact>
</mgrwt>
</event>
<event>
 6    1  0.7457796E-006  0.1386230E+03  0.7546771E-02  0.1226481E+00
         -1   -1    0    0    0  501 -0.00000000000E+00  0.00000000000E+00  0.21727629630E+02  0.21727629630E+02  0.00000000000E+00 0.  1.
          1   -1    0    0  501    0  0.00000000000E+00 -0.00000000000E+00 -0.70952068059E+03  0.70952068059E+03  0.00000000000E+00 0. -1.
          5    1    1    2  502    0 -0.94169020143E+01 -0.93397687676E+02 -0.28437612747E+03  0.29950572279E+03  0.47000000000E+01 0.  1.
         -5    1    1    2    0  502  0.25868662994E+02  0.35771167505E+02 -0.11750155647E+03  0.12560839910E+03  0.47000000000E+01 0.  1.
        -11    1    1    2    0    0  0.34649273997E+02  0.31484694737E+02 -0.83407399038E+02  0.95648588100E+02  0.00000000000E+00 0.  1.
         11    1    1    2    0    0 -0.51101034976E+02  0.26141825433E+02 -0.20250796798E+03  0.21048560024E+03  0.00000000000E+00 0. -1.
<mgrwt>
<rscale>  0 0.13065943E+03</rscale>
<asrwt>0</asrwt>
<pdfrwt beam="2">  1        1 0.10915700E+00 0.13862303E+03</pdfrwt>
<pdfrwt beam="1">  1       -1 0.33427130E-02 0.13862303E+03</pdfrwt>
<totfact> 0.85411779E+03</totfact>
</mgrwt>
</event>
<event>
 6    1  0.7457796E-006  0.4679035E+03  0.7546771E-02  0.1077939E+00
         -2   -1    0    0    0  501 -0.00000000000E+00  0.00000000000E+00  0.41542062569E+03  0.41542062569E+03  0.00000000000E+00 0.  1.
          2   -1    0    0  501    0  0.00000000000E+00 -0.00000000000E+00 -0.19192858655E+03  0.19192858655E+03  0.00000000000E+00 0. -1.
          5    1    1    2  502    0 -0.23758640421E+02  0.11267345845E+03 -0.12878479642E+03  0.17282185922E+03  0.47000000000E+01 0. -1.
         -5    1    1    2    0  502  0.14319202351E+02 -0.12027216761E+03  0.30320108046E+03  0.32653241654E+03  0.47000000000E+01 0.  1.
        -11    1    1    2    0    0  0.47358174210E+02  0.24417424410E+02  0.18276485723E+02  0.56329718708E+02  0.00000000000E+00 0.  1.
         11    1    1    2    0    0 -0.37918736140E+02 -0.16818715248E+02  0.30799269376E+02  0.51665217770E+02  0.00000000000E+00 0. -1.
<mgrwt>
<rscale>  0 0.31507299E+03</rscale>
<asrwt>0</asrwt>
<pdfrwt beam="2">  1        2 0.29527475E-01 0.46790347E+03</pdfrwt>
<pdfrwt beam="1">  1       -2 0.63910865E-01 0.46790347E+03</pdfrwt>
<totfact> 0.41456421E+02</totfact>
</mgrwt>
</event>
<event>
 6    1  0.7457796E-006  0.1478589E+03  0.7546771E-02  0.1212455E+00
          1   -1    0    0  501    0  0.00000000000E+00  0.00000000000E+00  0.60072028485E+02  0.60072028485E+02  0.00000000000E+00 0. -1.
         -1   -1    0    0    0  501 -0.00000000000E+00 -0.00000000000E+00 -0.32745246687E+03  0.32745246687E+03  0.00000000000E+00 0.  1.
          5    1    1    2  502    0  0.10044632833E+03  0.19946669164E+02 -0.92799115053E+02  0.13827906653E+03  0.47000000000E+01 0. -1.
         -5    1    1    2    0  502 -0.21736720712E+02 -0.13505774872E+02 -0.10797158509E+03  0.11106234361E+03  0.47000000000E+01 0. -1.
        -11    1    1    2    0    0 -0.66327442858E+02  0.91400392326E+01  0.17582189975E+01  0.66977319499E+02  0.00000000000E+00 0. -1.
         11    1    1    2    0    0 -0.12382164761E+02 -0.15580933524E+02 -0.68367957241E+02  0.71205765714E+02  0.00000000000E+00 0.  1.
<mgrwt>
<rscale>  0 0.14065136E+03</rscale>
<asrwt>0</asrwt>
<pdfrwt beam="1">  1        1 0.92418504E-02 0.14785894E+03</pdfrwt>
<pdfrwt beam="2">  1       -1 0.50377304E-01 0.14785894E+03</pdfrwt>
<totfact> 0.28053162E+03</totfact>
</mgrwt>
</event>
<event>
 6    1  0.7457796E-006  0.1815043E+03  0.7546771E-02  0.1171421E+00
         -1   -1    0    0    0  501 -0.00000000000E+00  0.00000000000E+00  0.15249080382E+03  0.15249080382E+03  0.00000000000E+00 0.  1.
          1   -1    0    0  501    0  0.00000000000E+00 -0.00000000000E+00 -0.20625783253E+03  0.20625783253E+03  0.00000000000E+00 0. -1.
          5    1    1    2  502    0  0.25369721462E+02 -0.40114073397E+02 -0.19289089569E+00  0.47695794977E+02  0.47000000000E+01 0.  1.
         -5    1    1    2    0  502 -0.12549000585E+03 -0.45299073098E+02  0.17247168883E+02  0.13460795826E+03  0.47000000000E+01 0.  1.
        -11    1    1    2    0    0  0.11079972837E+03  0.77703909077E+02 -0.37222557767E+02  0.14035667458E+03  0.00000000000E+00 0.  1.
         11    1    1    2    0    0 -0.10679443984E+02  0.77092374186E+01 -0.33598748932E+02  0.36088208534E+02  0.00000000000E+00 0. -1.
<mgrwt>
<rscale>  0 0.17631160E+03</rscale>
<asrwt>0</asrwt>
<pdfrwt beam="2">  1        1 0.31731974E-01 0.18150430E+03</pdfrwt>
<pdfrwt beam="1">  1       -1 0.23460124E-01 0.18150430E+03</pdfrwt>
<totfact> 0.21509662E+03</totfact>
</mgrwt>
</event>
<event>
 6    1  0.7457796E-006  0.1414202E+03  0.7546771E-02  0.1224189E+00
          1   -1    0    0  501    0  0.00000000000E+00  0.00000000000E+00  0.55171310968E+03  0.55171310968E+03  0.00000000000E+00 0. -1.
         -1   -1    0    0    0  501 -0.00000000000E+00 -0.00000000000E+00 -0.31671114355E+02  0.31671114355E+02  0.00000000000E+00 0.  1.
          5    1    1    2  502    0 -0.27078700340E+02 -0.40026487636E+02  0.55466329052E+02  0.73715530135E+02  0.47000000000E+01 0.  1.
         -5    1    1    2    0  502 -0.15541499985E+02  0.90605898079E+02  0.13980690948E+03  0.16738885545E+03  0.47000000000E+01 0.  1.
        -11    1    1    2    0    0 -0.22695732729E+02 -0.33374595393E+02  0.13098130166E+03  0.13705860530E+03  0.00000000000E+00 0.  1.
         11    1    1    2    0    0  0.65315933054E+02 -0.17204815051E+02  0.19378745513E+03  0.20522123315E+03  0.00000000000E+00 0. -1.
<mgrwt>
<rscale>  0 0.13222620E+03</rscale>
<asrwt>0</asrwt>
<pdfrwt beam="1">  1        1 0.84878933E-01 0.14142025E+03</pdfrwt>
<pdfrwt beam="2">  1       -1 0.48724795E-02 0.14142025E+03</pdfrwt>
<totfact> 0.69565191E+03</totfact>
</mgrwt>
</event>
<event>
 6    1  0.7457796E-006  0.1956428E+03  0.7546771E-02  0.1158325E+00
         -2   -1    0    0    0  501 -0.00000000000E+00  0.00000000000E+00  0.56437924615E+03  0.56437924615E+03  0.00000000000E+00 0.  1.
          2   -1    0    0  501    0  0.00000000000E+00 -0.00000000000E+00 -0.62589795257E+02  0.62589795257E+02  0.00000000000E+00 0. -1.
          5    1    1    2  502    0 -0.61015077541E+01  0.49461225341E+02 -0.26295826971E+01  0.50126299626E+02  0.47000000000E+01 0.  1.
         -5    1    1    2    0  502  0.33709569967E+02  0.98481793012E+02  0.21322180169E+03  0.23731966917E+03  0.47000000000E+01 0.  1.
        -11    1    1    2    0    0  0.49938523171E+01 -0.10552304932E+03  0.11861418609E+03  0.15883758258E+03  0.00000000000E+00 0. -1.
         11    1    1    2    0    0 -0.32601914530E+02 -0.42419969034E+02  0.17258304582E+03  0.18068549003E+03  0.00000000000E+00 0.  1.
<mgrwt>
<rscale>  0 0.19015157E+03</rscale>
<asrwt>0</asrwt>
<pdfrwt beam="2">  1        2 0.96291997E-02 0.19564279E+03</pdfrwt>
<pdfrwt beam="1">  1       -2 0.86827573E-01 0.19564279E+03</pdfrwt>
<totfact> 0.78960330E+02</totfact>
</mgrwt>
</event>
<event>
 6    1  0.7457796E-006  0.2914417E+03  0.7546771E-02  0.1089599E+00
         -1   -1    0    0    0  501 -0.00000000000E+00  0.00000000000E+00  0.29991976199E+03  0.29991976199E+03  0.00000000000E+00 0.  1.
          1   -1    0    0  501    0  0.00000000000E+00 -0.00000000000E+00 -0.70800847323E+02  0.70800847323E+02  0.00000000000E+00 0. -1.
          5    1    1    2  502    0 -0.10422679659E+03  0.12731440578E+02  0.79433152238E+02  0.13174608298E+03  0.47000000000E+01 0.  1.
         -5    1    1    2    0  502  0.24991332628E+02  0.27244676895E+02  0.86367970076E+02  0.94065697152E+02  0.47000000000E+01 0.  1.
        -11    1    1    2    0    0  0.37034364190E+02 -0.60268519028E+02  0.67653969438E+02  0.97882062185E+02  0.00000000000E+00 0.  1.
         11    1    1    2    0    0  0.42201099769E+02  0.20292401555E+02 -0.43361770821E+01  0.47026766998E+02  0.00000000000E+00 0. -1.
<mgrwt>
<rscale>  0 0.29144175E+03</rscale>
<asrwt>0</asrwt>
<pdfrwt beam="2">  1        1 0.10892438E-01 0.29144175E+03</pdfrwt>
<pdfrwt beam="1">  1       -1 0.46141501E-01 0.29144175E+03</pdfrwt>
<totfact> 0.27198368E+03</totfact>
</mgrwt>
</event>
<event>
 6    1  0.7457796E-006  0.2164263E+03  0.7546771E-02  0.1138873E+00
          1   -1    0    0  501    0  0.00000000000E+00  0.00000000000E+00  0.81400899416E+03  0.81400899416E+03  0.00000000000E+00 0. -1.
         -1   -1    0    0    0  501 -0.00000000000E+00 -0.00000000000E+00 -0.56108799949E+02  0.56108799949E+02  0.00000000000E+00 0.  1.
          5    1    1    2  502    0  0.29353916278E+01  0.47794585150E+02  0.27945836638E+02  0.55641699103E+02  0.47000000000E+01 0. -1.
         -5    1    1    2    0  502  0.14149281339E+03  0.64752152433E+02  0.28692219312E+03  0.32643451471E+03  0.47000000000E+01 0.  1.
        -11    1    1    2    0    0 -0.42226113995E+02  0.92112789547E+01  0.66288171545E+02  0.79132888548E+02  0.00000000000E+00 0.  1.
         11    1    1    2    0    0 -0.10220209102E+03 -0.12175801654E+03  0.37674399291E+03  0.40890869175E+03  0.00000000000E+00 0. -1.
<mgrwt>
<rscale>  0 0.21343641E+03</rscale>
<asrwt>0</asrwt>
<pdfrwt beam="1">  1        1 0.12523214E+00 0.21642633E+03</pdfrwt>
<pdfrwt beam="2">  1       -1 0.86321236E-02 0.21642633E+03</pdfrwt>
<totfact> 0.17134705E+03</totfact>
</mgrwt>
</event>
<event>
 6    1  0.7457796E-006  0.2507779E+03  0.7546771E-02  0.1112814E+00
         -1   -1    0    0    0  501 -0.00000000000E+00  0.00000000000E+00  0.37694198993E+02  0.37694198993E+02  0.00000000000E+00 0.  1.
          1   -1    0    0  501    0  0.00000000000E+00 -0.00000000000E+00 -0.41710354570E+03  0.41710354570E+03  0.00000000000E+00 0. -1.
          5    1    1    2  502    0 -0.12086514796E+02 -0.29167491539E+01 -0.14466233190E+03  0.14527171623E+03  0.47000000000E+01 0.  1.
         -5    1    1    2    0  502  0.32777148518E+02  0.53923500704E+02 -0.15354541478E+02  0.65114801214E+02  0.47000000000E+01 0.  1.
        -11    1    1    2    0    0 -0.45234282576E+02 -0.10758831362E+02 -0.48713061017E+02  0.67341332673E+02  0.00000000000E+00 0.  1.
         11    1    1    2    0    0  0.24543648854E+02 -0.40247920188E+02 -0.17067941231E+03  0.17706989458E+03  0.00000000000E+00 0. -1.
<mgrwt>
<rscale>  0 0.25077786E+03</rscale>
<asrwt>0</asrwt>
<pdfrwt beam="2">  1        1 0.64169772E-01 0.25077786E+03</pdfrwt>
<pdfrwt beam="1">  1       -1 0.57991079E-02 0.25077786E+03</pdfrwt>
<totfact> 0.79856023E+03</totfact>
</mgrwt>
</event>
<event>
 6    1  0.7457796E-006  0.1620640E+03  0.7546771E-02  0.1193744E+00
         -2   -1    0    0    0  501 -0.00000000000E+00  0.00000000000E+00  0.59727280928E+02  0.59727280928E+02  0.00000000000E+00 0.  1.
          2   -1    0    0  501    0  0.00000000000E+00 -0.00000000000E+00 -0.38114654964E+03  0.38114654964E+03  0.00000000000E+00 0. -1.
          5    1    1    2  502    0  0.45914770589E+02  0.24386282258E+02  0.90785759990E+01  0.52984596467E+02  0.47000000000E+01 0.  1.
         -5    1    1    2    0  502  0.54440848132E+02 -0.54839268014E+00 -0.15773367442E+03  0.16693144918E+03  0.47000000000E+01 0.  1.
        -11    1    1    2    0    0 -0.92380453434E+00 -0.19033774073E+02  0.26754448975E+01  0.19243076045E+02  0.00000000000E+00 0.  1.
         11    1    1    2    0    0 -0.99431814187E+02 -0.48041155046E+01 -0.17543961518E+03  0.20171470887E+03  0.00000000000E+00 0. -1.
<mgrwt>
<rscale>  0 0.15560990E+03</rscale>
<asrwt>0</asrwt>
<pdfrwt beam="2">  1        2 0.58637933E-01 0.16206397E+03</pdfrwt>
<pdfrwt beam="1">  1       -2 0.91888121E-02 0.16206397E+03</pdfrwt>
<totfact> 0.61845309E+03</totfact>
</mgrwt>
</event>
<event>
 6    1  0.7457796E-006  0.1322347E+03  0.7546771E-02  0.1235671E+00
         -1   -1    0    0    0  501 -0.00000000000E+00  0.00000000000E+00  0.15178070193E+03  0.15178070193E+03  0.00000000000E+00 0.  1.
          1   -1    0    0  501    0  0.00000000000E+00 -0.00000000000E+00 -0.11344854277E+03  0.11344854277E+03  0.00000000000E+00 0. -1.
          5    1    1    2  502    0 -0.49722348309E+02  0.14144913272E+01  0.19456228284E+02  0.53618537150E+02  0.47000000000E+01 0. -1.
         -5    1    1    2    0  502  0.70715952613E+02 -0.39101892208E+02  0.58683771200E+02  0.99977892208E+02  0.47000000000E+01 0. -1.
        -11    1    1    2    0    0 -0.48377907172E+02  0.36544301079E+02  0.31109832206E+01  0.60709027832E+02  0.00000000000E+00 0. -1.
         11    1    1    2    0    0  0.27384302868E+02  0.11430998013E+01 -0.42918823536E+02  0.50923787511E+02  0.00000000000E+00 0.  1.
<mgrwt>
<rscale>  0 0.12461597E+03</rscale>
<asrwt>0</asrwt>
<pdfrwt beam="2">  1        1 0.17453622E-01 0.13223465E+03</pdfrwt>
<pdfrwt beam="1">  1       -1 0.23350877E-01 0.13223465E+03</pdfrwt>
<totfact> 0.45484452E+03</totfact>
</mgrwt>
</event>
<event>
 6    1  0.7457796E-006  0.3304515E+03  0.7546771E-02  0.1070937E+00
         -2   -1    0    0    0  501 -0.00000000000E+00  0.00000000000E+00  0.46657178232E+02  0.46657178232E+02  0.00000000000E+00 0. -1.
          2   -1    0    0  501    0  0.00000000000E+00 -0.00000000000E+00 -0.58510933850E+03  0.58510933850E+03  0.00000000000E+00 0.  1.
          5    1    1    2  502    0  0.35228063838E+02  0.37491013147E+02 -0.63597530644E+02  0.81934903750E+02  0.47000000000E+01 0. -1.
         -5    1    1    2    0  502  0.71876972184E+02 -0.99823793761E+02 -0.20889648535E+03  0.24246839077E+03  0.47000000000E+01 0. -1.
        -11    1    1    2    0    0 -0.73686501366E+02 -0.25507855621E+01 -0.18051741000E+03  0.19499421095E+03  0.00000000000E+00 0.  1.
         11    1    1    2    0    0 -0.33418534657E+02  0.64883566176E+02 -0.85440734268E+02  0.11236901126E+03  0.00000000000E+00 0. -1.
<mgrwt>
<rscale>  0 0.33045151E+03</rscale>
<asrwt>0</asrwt>
<pdfrwt beam="2">  1        2 0.90016824E-01 0.33045151E+03</pdfrwt>
<pdfrwt beam="1">  1       -2 0.71780272E-02 0.33045151E+03</pdfrwt>
<totfact> 0.58376960E+03</totfact>
</mgrwt>
</event>
<event>
 6    1  0.7457796E-006  0.3704124E+03  0.7546771E-02  0.1055507E+00
          1   -1    0    0  501    0  0.00000000000E+00  0.00000000000E+00  0.17543650322E+04  0.17543650322E+04  0.00000000000E+00 0. -1.
         -1   -1    0    0    0  501 -0.00000000000E+00 -0.00000000000E+00 -0.88703367603E+02  0.88703367603E+02  0.00000000000E+00 0.  1.
          5    1    1    2  502    0  0.25281062232E+02  0.93397684762E+02  0.56005895591E+02  0.11189731886E+03  0.47000000000E+01 0.  1.
         -5    1    1    2    0  502  0.42346036045E+02  0.24866726350E+03  0.43935560170E+03  0.50663994064E+03  0.47000000000E+01 0.  1.
        -11    1    1    2    0    0 -0.57788721290E+02 -0.24483076558E+03  0.69092505360E+03  0.73529522627E+03  0.00000000000E+00 0.  1.
         11    1    1    2    0    0 -0.98383769868E+01 -0.97234182688E+02  0.47937511371E+03  0.48923591404E+03  0.00000000000E+00 0. -1.
<mgrwt>
<rscale>  0 0.36787850E+03</rscale>
<asrwt>0</asrwt>
<pdfrwt beam="1">  1        1 0.26990229E+00 0.37041238E+03</pdfrwt>
<pdfrwt beam="2">  1       -1 0.13646673E-01 0.37041238E+03</pdfrwt>
<totfact> 0.17949104E+02</totfact>
</mgrwt>
</event>
<event>
 6    1  0.7457796E-006  0.1346999E+03  0.7546771E-02  0.1233025E+00
         -1   -1    0    0    0  501 -0.00000000000E+00  0.00000000000E+00  0.40746294680E+02  0.40746294680E+02  0.00000000000E+00 0. -1.
          1   -1    0    0  501    0  0.00000000000E+00 -0.00000000000E+00 -0.35546292495E+03  0.35546292495E+03  0.00000000000E+00 0.  1.
          5    1    1    2  502    0  0.23496449473E+02  0.36561909569E+02 -0.27975679575E+02  0.51899759314E+02  0.47000000000E+01 0.  1.
         -5    1    1    2    0  502 -0.11992880767E+02 -0.85384037975E+02 -0.12503004677E+03  0.15195020804E+03  0.47000000000E+01 0.  1.
        -11    1    1    2    0    0  0.26352486975E+02  0.24165668484E+02 -0.14867094758E+02  0.38722908072E+02  0.00000000000E+00 0. -1.
         11    1    1    2    0    0 -0.37856055681E+02  0.24656459922E+02 -0.14684380917E+03  0.15363634420E+03  0.00000000000E+00 0.  1.
<mgrwt>
<rscale>  0 0.12631719E+03</rscale>
<asrwt>0</asrwt>
<pdfrwt beam="2">  1        1 0.54686601E-01 0.13469988E+03</pdfrwt>
<pdfrwt beam="1">  1       -1 0.62686610E-02 0.13469988E+03</pdfrwt>
<totfact> 0.83816762E+03</totfact>
</mgrwt>
</event>
<event>
 6    1  0.7457796E-006  0.1251160E+03  0.7546771E-02  0.1250821E+00
         -3   -1    0    0    0  501 -0.00000000000E+00  0.00000000000E+00  0.93449576540E+03  0.93449576540E+03  0.00000000000E+00 0.  1.
          3   -1    0    0  501    0  0.00000000000E+00 -0.00000000000E+00 -0.12505783107E+02  0.12505783107E+02  0.00000000000E+00 0. -1.
          5    1    1    2  502    0 -0.50050005924E+02  0.31742024828E+02  0.21260819643E+03  0.22076434138E+03  0.47000000000E+01 0.  1.
         -5    1    1    2    0  502  0.54988079436E+02 -0.29840576637E+02  0.35113316416E+03  0.35669417975E+03  0.47000000000E+01 0.  1.
        -11    1    1    2    0    0  0.86217264965E+01 -0.41281053006E+02  0.25050192023E+03  0.25402691107E+03  0.00000000000E+00 0.  1.
         11    1    1    2    0    0 -0.13559800008E+02  0.39379604815E+02  0.10774670147E+03  0.11551611631E+03  0.00000000000E+00 0. -1.
<mgrwt>
<rscale>  0 0.11543660E+03</rscale>
<asrwt>0</asrwt>
<pdfrwt beam="2">  1        3 0.19239674E-02 0.12511603E+03</pdfrwt>
<pdfrwt beam="1">  1       -3 0.14376852E+00 0.12511603E+03</pdfrwt>
<totfact> 0.88091732E+02</totfact>
</mgrwt>
</event>
<event>
 6    1  0.7457796E-006  0.1319295E+03  0.7546771E-02  0.1236798E+00
         -2   -1    0    0    0  501 -0.00000000000E+00  0.00000000000E+00  0.80547386016E+03  0.80547386016E+03  0.00000000000E+00 0.  1.
          2   -1    0    0  501    0  0.00000000000E+00 -0.00000000000E+00 -0.17241500701E+02  0.17241500701E+02  0.00000000000E+00 0. -1.
          5    1    1    2  502    0 -0.49549690340E+02 -0.50166561467E+02  0.22636941662E+03  0.23714353983E+03  0.47000000000E+01 0. -1.
         -5    1    1    2    0  502  0.59123488525E+02  0.90774571735E+01  0.25651845478E+03  0.26344220384E+03  0.47000000000E+01 0. -1.
        -11    1    1    2    0    0  0.10334305438E+02 -0.26964779335E+02  0.12622923339E+03  0.12949021800E+03  0.00000000000E+00 0.  1.
         11    1    1    2    0    0 -0.19908103624E+02  0.68053883628E+02  0.17911525467E+03  0.19263939919E+03  0.00000000000E+00 0. -1.
<mgrwt>
<rscale>  0 0.12390005E+03</rscale>
<asrwt>0</asrwt>
<pdfrwt beam="2">  1        2 0.26525392E-02 0.13192949E+03</pdfrwt>
<pdfrwt beam="1">  1       -2 0.12391903E+00 0.13192949E+03</pdfrwt>
<totfact> 0.18224440E+03</totfact>
</mgrwt>
</event>
<event>
 6    1  0.7457796E-006  0.1296030E+03  0.7546771E-02  0.1241750E+00
         -1   -1    0    0    0  501 -0.00000000000E+00  0.00000000000E+00  0.40066144022E+03  0.40066144022E+03  0.00000000000E+00 0.  1.
          1   -1    0    0  501    0  0.00000000000E+00 -0.00000000000E+00 -0.32302658514E+02  0.32302658514E+02  0.00000000000E+00 0. -1.
          5    1    1    2  502    0 -0.30602589992E+01 -0.73759361638E+02  0.10833942935E+03  0.13118433811E+03  0.47000000000E+01 0. -1.
         -5    1    1    2    0  502 -0.22113102346E+02  0.50402972804E+02  0.97348500552E+02  0.11192975262E+03  0.47000000000E+01 0. -1.
        -11    1    1    2    0    0  0.45596126091E+02  0.47537214948E+02  0.11731482663E+03  0.13454204572E+03  0.00000000000E+00 0. -1.
         11    1    1    2    0    0 -0.20422764745E+02 -0.24180826115E+02  0.45356025169E+02  0.55307962271E+02  0.00000000000E+00 0.  1.
<mgrwt>
<rscale>  0 0.12082001E+03</rscale>
<asrwt>0</asrwt>
<pdfrwt beam="2">  1        1 0.49696401E-02 0.12960300E+03</pdfrwt>
<pdfrwt beam="1">  1       -1 0.61640218E-01 0.12960300E+03</pdfrwt>
<totfact> 0.44151163E+03</totfact>
</mgrwt>
</event>
<event>
 6    1  0.7457796E-006  0.1305435E+03  0.7546771E-02  0.1241390E+00
          2   -1    0    0  501    0  0.00000000000E+00  0.00000000000E+00  0.16811059613E+03  0.16811059613E+03  0.00000000000E+00 0. -1.
         -2   -1    0    0    0  501 -0.00000000000E+00 -0.00000000000E+00 -0.97135849760E+02  0.97135849760E+02  0.00000000000E+00 0.  1.
          5    1    1    2  502    0 -0.23104780639E+02 -0.54846734174E+02  0.31957743125E+02  0.67715452325E+02  0.47000000000E+01 0. -1.
         -5    1    1    2    0  502  0.32054213619E+02  0.18291423805E+02 -0.52634100969E+02  0.64455313050E+02  0.47000000000E+01 0. -1.
        -11    1    1    2    0    0  0.40133264010E+02  0.14521159999E+02  0.41072485995E+02  0.59232525471E+02  0.00000000000E+00 0. -1.
         11    1    1    2    0    0 -0.49082696990E+02  0.22034150370E+02  0.50578618221E+02  0.73843155048E+02  0.00000000000E+00 0.  1.
<mgrwt>
<rscale>  0 0.12104044E+03</rscale>
<asrwt>0</asrwt>
<pdfrwt beam="1">  1        2 0.25863169E-01 0.13054348E+03</pdfrwt>
<pdfrwt beam="2">  1       -2 0.14943977E-01 0.13054348E+03</pdfrwt>
<totfact> 0.67518182E+03</totfact>
</mgrwt>
</event>
<event>
 6    1  0.7457796E-006  0.2781934E+03  0.7546771E-02  0.1096680E+00
          3   -1    0    0  501    0  0.00000000000E+00  0.00000000000E+00  0.73821573974E+02  0.73821573974E+02  0.00000000000E+00 0. -1.
         -3   -1    0    0    0  501 -0.00000000000E+00 -0.00000000000E+00 -0.26208994121E+03  0.26208994121E+03  0.00000000000E+00 0.  1.
          5    1    1    2  502    0 -0.19006747402E+02 -0.11897836707E+02 -0.10901815956E+03  0.11139956947E+03  0.47000000000E+01 0.  1.
         -5    1    1    2    0  502 -0.67235867497E+02  0.46479421960E+01  0.12470759907E+02  0.68701347130E+02  0.47000000000E+01 0.  1.
        -11    1    1    2    0    0  0.59202526480E+02 -0.35559588827E+02 -0.76226744513E+02  0.10285883568E+03  0.00000000000E+00 0.  1.
         11    1    1    2    0    0  0.27040088420E+02  0.42809483337E+02 -0.15494223071E+02  0.52951762897E+02  0.00000000000E+00 0. -1.
<mgrwt>
<rscale>  0 0.27819340E+03</rscale>
<asrwt>0</asrwt>
<pdfrwt beam="1">  1        3 0.11357165E-01 0.27819340E+03</pdfrwt>
<pdfrwt beam="2">  1       -3 0.40321529E-01 0.27819340E+03</pdfrwt>
<totfact> 0.92796576E+02</totfact>
</mgrwt>
</event>
<event>
 6    1  0.7457796E-006  0.2086881E+03  0.7546771E-02  0.1146133E+00
         -1   -1    0    0    0  501 -0.00000000000E+00  0.00000000000E+00  0.21346550999E+03  0.21346550999E+03  0.00000000000E+00 0.  1.
          1   -1    0    0  501    0  0.00000000000E+00 -0.00000000000E+00 -0.18950209420E+03  0.18950209420E+03  0.00000000000E+00 0. -1.
          5    1    1    2  502    0  0.32288458240E+02 -0.92943584100E+02  0.12989457684E+02  0.99357286455E+02  0.47000000000E+01 0.  1.
         -5    1    1    2    0  502 -0.89456554249E+02 -0.64103887912E+02  0.18291535230E+02  0.11166223088E+03  0.47000000000E+01 0.  1.
        -11    1    1    2    0    0  0.37360887749E+01  0.10219455220E+03  0.30264556066E+02  0.10664721380E+03  0.00000000000E+00 0. -1.
         11    1    1    2    0    0  0.53432007234E+02  0.54852919816E+02 -0.37582133192E+02  0.85300873059E+02  0.00000000000E+00 0.  1.
<mgrwt>
<rscale>  0 0.20433384E+03</rscale>
<asrwt>0</asrwt>
<pdfrwt beam="2">  1        1 0.29154168E-01 0.20868813E+03</pdfrwt>
<pdfrwt beam="1">  1       -1 0.32840848E-01 0.20868813E+03</pdfrwt>
<totfact> 0.13653042E+03</totfact>
</mgrwt>
</event>
<event>
 6    1  0.7457796E-006  0.3432142E+03  0.7546771E-02  0.1065435E+00
         -1   -1    0    0    0  501 -0.00000000000E+00  0.00000000000E+00  0.35111097730E+03  0.35111097730E+03  0.00000000000E+00 0.  1.
          1   -1    0    0  501    0  0.00000000000E+00 -0.00000000000E+00 -0.83873759872E+02  0.83873759872E+02  0.00000000000E+00 0. -1.
          5    1    1    2  502    0 -0.21249418595E+02 -0.36874646826E+02  0.21841515288E+02  0.48066819733E+02  0.47000000000E+01 0. -1.
         -5    1    1    2    0  502 -0.33560647138E+02  0.79158813332E+02  0.17660708235E+03  0.19648049853E+03  0.47000000000E+01 0. -1.
        -11    1    1    2    0    0  0.32717571342E+02 -0.71279134383E+02 -0.30897135464E+02  0.84295832950E+02  0.00000000000E+00 0. -1.
         11    1    1    2    0    0  0.22092494391E+02  0.28994967877E+02  0.99685755253E+02  0.10614158596E+03  0.00000000000E+00 0.  1.
<mgrwt>
<rscale>  0 0.34321421E+03</rscale>
<asrwt>0</asrwt>
<pdfrwt beam="2">  1        1 0.12903656E-01 0.34321421E+03</pdfrwt>
<pdfrwt beam="1">  1       -1 0.54017073E-01 0.34321421E+03</pdfrwt>
<totfact> 0.16229943E+03</totfact>
</mgrwt>
</event>
<event>
 6    1  0.7457796E-006  0.1251923E+03  0.7546771E-02  0.1249625E+00
         -2   -1    0    0    0  501 -0.00000000000E+00  0.00000000000E+00  0.27088077148E+03  0.27088077148E+03  0.00000000000E+00 0. -1.
          2   -1    0    0  501    0  0.00000000000E+00 -0.00000000000E+00 -0.43845535087E+02  0.43845535087E+02  0.00000000000E+00 0.  1.
          5    1    1    2  502    0 -0.37112890535E+02  0.44319592282E+02  0.46355510755E+02  0.74246321668E+02  0.47000000000E+01 0. -1.
         -5    1    1    2    0  502  0.41542487206E+02 -0.49687660769E+02  0.88422547891E+02  0.10970541852E+03  0.47000000000E+01 0. -1.
        -11    1    1    2    0    0 -0.37128304273E+02  0.33119465186E+02  0.51562348626E+02  0.71652534834E+02  0.00000000000E+00 0.  1.
         11    1    1    2    0    0  0.32698707601E+02 -0.27751396699E+02  0.40694829125E+02  0.59122031554E+02  0.00000000000E+00 0. -1.
<mgrwt>
<rscale>  0 0.11612780E+03</rscale>
<asrwt>0</asrwt>
<pdfrwt beam="2">  1        2 0.67454671E-02 0.12519232E+03</pdfrwt>
<pdfrwt beam="1">  1       -2 0.41673964E-01 0.12519232E+03</pdfrwt>
<totfact> 0.54944036E+03</totfact>
</mgrwt>
</event>
<event>
 6    1  0.7457796E-006  0.1319002E+03  0.7546771E-02  0.1237935E+00
          2   -1    0    0  501    0  0.00000000000E+00  0.00000000000E+00  0.61716162851E+02  0.61716162851E+02  0.00000000000E+00 0. -1.
         -2   -1    0    0    0  501 -0.00000000000E+00 -0.00000000000E+00 -0.28051212824E+03  0.28051212824E+03  0.00000000000E+00 0.  1.
          5    1    1    2  502    0 -0.62360260587E+02 -0.11472731489E+02 -0.99362218974E+02  0.11796341055E+03  0.47000000000E+01 0. -1.
         -5    1    1    2    0  502  0.45983096085E+02  0.50269764469E+02 -0.10149884829E+03  0.12233397136E+03  0.47000000000E+01 0. -1.
        -11    1    1    2    0    0  0.24782319445E+02  0.11729391047E+02 -0.38052272697E+02  0.46901145283E+02  0.00000000000E+00 0.  1.
         11    1    1    2    0    0 -0.84051549436E+01 -0.50526424027E+02  0.20117374575E+02  0.55029763895E+02  0.00000000000E+00 0. -1.
<mgrwt>
<rscale>  0 0.12318373E+03</rscale>
<asrwt>0</asrwt>
<pdfrwt beam="1">  1        2 0.94947942E-02 0.13190020E+03</pdfrwt>
<pdfrwt beam="2">  1       -2 0.43155713E-01 0.13190020E+03</pdfrwt>
<totfact> 0.33615159E+03</totfact>
</mgrwt>
</event>
<event>
 6    1  0.7457796E-006  0.2293483E+03  0.7546771E-02  0.1132680E+00
         -1   -1    0    0    0  501 -0.00000000000E+00  0.00000000000E+00  0.71357409826E+03  0.71357409826E+03  0.00000000000E+00 0.  1.
          1   -1    0    0  501    0  0.00000000000E+00 -0.00000000000E+00 -0.15589185056E+03  0.15589185056E+03  0.00000000000E+00 0. -1.
          5    1    1    2  502    0  0.16273502095E+02 -0.25395276395E+02  0.35302781673E+02  0.46670368838E+02  0.47000000000E+01 0. -1.
         -5    1    1    2    0  502 -0.18301075217E+03 -0.45863345622E+02  0.58384647788E+03  0.61359203190E+03  0.47000000000E+01 0.  1.
        -11    1    1    2    0    0  0.70576358721E+02  0.75959108021E+02 -0.30936581454E+02  0.10820296010E+03  0.00000000000E+00 0. -1.
         11    1    1    2    0    0  0.96160891349E+02 -0.47004860039E+01 -0.30530430391E+02  0.10100058799E+03  0.00000000000E+00 0.  1.
<mgrwt>
<rscale>  0 0.22162193E+03</rscale>
<asrwt>0</asrwt>
<pdfrwt beam="2">  1        1 0.23983362E-01 0.22934828E+03</pdfrwt>
<pdfrwt beam="1">  1       -1 0.10978063E+00 0.22934828E+03</pdfrwt>
<totfact> 0.16622819E+02</totfact>
</mgrwt>
</event>
<event>
 6    1  0.7457796E-006  0.1250659E+03  0.7546771E-02  0.1250368E+00
         -2   -1    0    0    0  501 -0.00000000000E+00  0.00000000000E+00  0.21093416150E+03  0.21093416150E+03  0.00000000000E+00 0.  1.
          2   -1    0    0  501    0  0.00000000000E+00 -0.00000000000E+00 -0.67655770847E+02  0.67655770847E+02  0.00000000000E+00 0. -1.
          5    1    1    2  502    0 -0.22584138955E+02 -0.52010209753E+02  0.10041220728E+03  0.11541146660E+03  0.47000000000E+01 0. -1.
         -5    1    1    2    0  502  0.21867488113E+02  0.55940715567E+02  0.38459199835E+02  0.71475525507E+02  0.47000000000E+01 0. -1.
        -11    1    1    2    0    0  0.16138204506E+02  0.40570880013E+02  0.82996721045E+01  0.44444600423E+02  0.00000000000E+00 0.  1.
         11    1    1    2    0    0 -0.15421553664E+02 -0.44501385827E+02 -0.38926885721E+01  0.47258339817E+02  0.00000000000E+00 0. -1.
<mgrwt>
<rscale>  0 0.11569764E+03</rscale>
<asrwt>0</asrwt>
<pdfrwt beam="2">  1        2 0.10408580E-01 0.12506590E+03</pdfrwt>
<pdfrwt beam="1">  1       -2 0.32451409E-01 0.12506590E+03</pdfrwt>
<totfact> 0.50961015E+03</totfact>
</mgrwt>
</event>
<event>
 6    1  0.7457796E-006  0.1279464E+03  0.7546771E-02  0.1245135E+00
          2   -1    0    0  501    0  0.00000000000E+00  0.00000000000E+00  0.71673917845E+02  0.71673917845E+02  0.00000000000E+00 0. -1.
         -2   -1    0    0    0  501 -0.00000000000E+00 -0.00000000000E+00 -0.17751312601E+03  0.17751312601E+03  0.00000000000E+00 0.  1.
          5    1    1    2  502    0  0.64814503887E+02  0.57911789137E+01 -0.20061007239E+02  0.68256806831E+02  0.47000000000E+01 0.  1.
         -5    1    1    2    0  502 -0.53598851050E+02  0.19061819190E+02 -0.59272341427E+02  0.82289065148E+02  0.47000000000E+01 0.  1.
        -11    1    1    2    0    0 -0.50006954577E+02 -0.23141912090E+01 -0.11846488718E+02  0.51443078077E+02  0.00000000000E+00 0.  1.
         11    1    1    2    0    0  0.38791301740E+02 -0.22538806894E+02 -0.14659370785E+02  0.47198093804E+02  0.00000000000E+00 0. -1.
<mgrwt>
<rscale>  0 0.11877283E+03</rscale>
<asrwt>0</asrwt>
<pdfrwt beam="1">  1        2 0.11026757E-01 0.12794639E+03</pdfrwt>
<pdfrwt beam="2">  1       -2 0.27309712E-01 0.12794639E+03</pdfrwt>
<totfact> 0.64847530E+03</totfact>
</mgrwt>
</event>
<event>
 6    1  0.7457796E-006  0.2281078E+03  0.7546771E-02  0.1131045E+00
         -2   -1    0    0    0  501 -0.00000000000E+00  0.00000000000E+00  0.55083748088E+03  0.55083748088E+03  0.00000000000E+00 0.  1.
          2   -1    0    0  501    0  0.00000000000E+00 -0.00000000000E+00 -0.91039428674E+02  0.91039428674E+02  0.00000000000E+00 0. -1.
          5    1    1    2  502    0  0.65123010141E+02  0.17115688614E+02  0.10202304630E+03  0.12233047544E+03  0.47000000000E+01 0. -1.
         -5    1    1    2    0  502  0.64037685970E+01  0.15977581598E+03  0.19738226255E+03  0.25406921732E+03  0.47000000000E+01 0. -1.
        -11    1    1    2    0    0 -0.12145069594E+02 -0.50048289773E+02  0.10095364468E+03  0.11333125076E+03  0.00000000000E+00 0.  1.
         11    1    1    2    0    0 -0.59381709144E+02 -0.12684321482E+03  0.59439098685E+02  0.15214596603E+03  0.00000000000E+00 0. -1.
<mgrwt>
<rscale>  0 0.22385001E+03</rscale>
<asrwt>0</asrwt>
<pdfrwt beam="2">  1        2 0.14006066E-01 0.22810785E+03</pdfrwt>
<pdfrwt beam="1">  1       -2 0.84744226E-01 0.22810785E+03</pdfrwt>
<totfact> 0.52933172E+02</totfact>
</mgrwt>
</event>
<event>
 6    1  0.7457796E-006  0.1763791E+03  0.7546771E-02  0.1177310E+00
         -2   -1    0    0    0  501 -0.00000000000E+00  0.00000000000E+00  0.13134012016E+03  0.13134012016E+03  0.00000000000E+00 0.  1.
          2   -1    0    0  501    0  0.00000000000E+00 -0.00000000000E+00 -0.20790453591E+03  0.20790453591E+03  0.00000000000E+00 0. -1.
          5    1    1    2  502    0 -0.12116921958E+03 -0.44351145378E+02 -0.25086975343E+01  0.12914095955E+03  0.47000000000E+01 0. -1.
         -5    1    1    2    0  502 -0.30125516048E+01  0.36409433882E+02 -0.35768178163E+02  0.51343693983E+02  0.47000000000E+01 0. -1.
        -11    1    1    2    0    0  0.12575490262E+03  0.25696273022E+02 -0.49650673349E+02  0.13762188541E+03  0.00000000000E+00 0. -1.
         11    1    1    2    0    0 -0.15731314277E+01 -0.17754561527E+02  0.11363133296E+02  0.21138117130E+02  0.00000000000E+00 0.  1.
<mgrwt>
<rscale>  0 0.17051701E+03</rscale>
<asrwt>0</asrwt>
<pdfrwt beam="2">  1        2 0.31985313E-01 0.17637911E+03</pdfrwt>
<pdfrwt beam="1">  1       -2 0.20206172E-01 0.17637911E+03</pdfrwt>
<totfact> 0.32953166E+03</totfact>
</mgrwt>
</event>
<event>
 6    1  0.7457796E-006  0.2277406E+03  0.7546771E-02  0.1131420E+00
          2   -1    0    0  501    0  0.00000000000E+00  0.00000000000E+00  0.20058336108E+03  0.20058336108E+03  0.00000000000E+00 0. -1.
         -2   -1    0    0    0  501 -0.00000000000E+00 -0.00000000000E+00 -0.24194482552E+03  0.24194482552E+03  0.00000000000E+00 0.  1.
          5    1    1    2  502    0 -0.29878825877E+02  0.62627199504E+02 -0.77419692537E+02  0.10407117346E+03  0.47000000000E+01 0. -1.
         -5    1    1    2    0  502 -0.84999618502E+02  0.89167261111E+02  0.33755895230E+02  0.12781739343E+03  0.47000000000E+01 0. -1.
        -11    1    1    2    0    0  0.36341970113E+02 -0.11438611582E+03  0.20519698320E+02  0.12176198217E+03  0.00000000000E+00 0.  1.
         11    1    1    2    0    0  0.78536474266E+02 -0.37408344795E+02 -0.18217365446E+02  0.88877637538E+02  0.00000000000E+00 0. -1.
<mgrwt>
<rscale>  0 0.22333607E+03</rscale>
<asrwt>0</asrwt>
<pdfrwt beam="1">  1        2 0.30858979E-01 0.22774060E+03</pdfrwt>
<pdfrwt beam="2">  1       -2 0.37222281E-01 0.22774060E+03</pdfrwt>
<totfact> 0.11582872E+03</totfact>
</mgrwt>
</event>
<event>
 6    1  0.7457796E-006  0.1488859E+03  0.7546771E-02  0.1213369E+00
         -1   -1    0    0    0  501 -0.00000000000E+00  0.00000000000E+00  0.32510698703E+02  0.32510698703E+02  0.00000000000E+00 0.  1.
          1   -1    0    0  501    0  0.00000000000E+00 -0.00000000000E+00 -0.54455419314E+03  0.54455419314E+03  0.00000000000E+00 0. -1.
          5    1    1    2  502    0 -0.48300908540E+02  0.20608694045E+02 -0.22512984254E+03  0.23122117558E+03  0.47000000000E+01 0.  1.
         -5    1    1    2    0  502  0.43511297475E+02  0.60127166355E+02 -0.85985124379E+02  0.11368395118E+03  0.47000000000E+01 0.  1.
        -11    1    1    2    0    0 -0.37603953872E+02 -0.27672671922E+02 -0.62985745787E+02  0.78403050262E+02  0.00000000000E+00 0.  1.
         11    1    1    2    0    0  0.42393564937E+02 -0.53063188478E+02 -0.13794278173E+03  0.15375671482E+03  0.00000000000E+00 0. -1.
<mgrwt>
<rscale>  0 0.13997033E+03</rscale>
<asrwt>0</asrwt>
<pdfrwt beam="2">  1        1 0.83777562E-01 0.14888594E+03</pdfrwt>
<pdfrwt beam="1">  1       -1 0.50016463E-02 0.14888594E+03</pdfrwt>
<totfact> 0.68298022E+03</totfact>
</mgrwt>
</event>
<event>
 6    1  0.7457796E-006  0.3101958E+03  0.7546771E-02  0.1080252E+00
          4   -1    0    0  501    0  0.00000000000E+00  0.00000000000E+00  0.19705984409E+03  0.19705984409E+03  0.00000000000E+00 0. -1.
         -4   -1    0    0    0  501 -0.00000000000E+00 -0.00000000000E+00 -0.12207130858E+03  0.12207130858E+03  0.00000000000E+00 0.  1.
          5    1    1    2  502    0 -0.87211122643E+01 -0.26825386784E+01 -0.36646556369E+02  0.38056719599E+02  0.47000000000E+01 0. -1.
         -5    1    1    2    0  502 -0.13857677320E+02  0.11092439673E+03  0.70451449949E+02  0.13221858345E+03  0.47000000000E+01 0. -1.
        -11    1    1    2    0    0  0.33275201819E+02 -0.95750484251E+01 -0.11511584737E+02  0.36488863940E+02  0.00000000000E+00 0. -1.
         11    1    1    2    0    0 -0.10696412235E+02 -0.98666809623E+02  0.52695226670E+02  0.11236698568E+03  0.00000000000E+00 0.  1.
<mgrwt>
<rscale>  0 0.31019576E+03</rscale>
<asrwt>0</asrwt>
<pdfrwt beam="1">  1        4 0.30316899E-01 0.31019576E+03</pdfrwt>
<pdfrwt beam="2">  1       -4 0.18780201E-01 0.31019576E+03</pdfrwt>
<totfact> 0.50104996E+02</totfact>
</mgrwt>
</event>
<event>
 6    1  0.7457796E-006  0.1303694E+03  0.7546771E-02  0.1239496E+00
         -2   -1    0    0    0  501 -0.00000000000E+00  0.00000000000E+00  0.68721459678E+02  0.68721459678E+02  0.00000000000E+00 0.  1.
          2   -1    0    0  501    0  0.00000000000E+00 -0.00000000000E+00 -0.19451607695E+03  0.19451607695E+03  0.00000000000E+00 0. -1.
          5    1    1    2  502    0  0.22849951283E+02  0.18222071983E+02  0.28130053314E+02  0.40835696155E+02  0.47000000000E+01 0.  1.
         -5    1    1    2    0  502 -0.29743744694E+02  0.18171991081E+02 -0.10449007550E+03  0.11025052148E+03  0.47000000000E+01 0.  1.
        -11    1    1    2    0    0  0.79216325476E+01 -0.52987568618E+02  0.63412554093E+01  0.53950405100E+02  0.00000000000E+00 0.  1.
         11    1    1    2    0    0 -0.10278391370E+01  0.16593505554E+02 -0.55775850485E+02  0.58200913886E+02  0.00000000000E+00 0. -1.
<mgrwt>
<rscale>  0 0.12220957E+03</rscale>
<asrwt>0</asrwt>
<pdfrwt beam="2">  1        2 0.29925550E-01 0.13036944E+03</pdfrwt>
<pdfrwt beam="1">  1       -2 0.10572532E-01 0.13036944E+03</pdfrwt>
<totfact> 0.10029187E+04</totfact>
</mgrwt>
</event>
<event>
 6    1  0.7457796E-006  0.2343836E+03  0.7546771E-02  0.1123592E+00
          1   -1    0    0  501    0  0.00000000000E+00  0.00000000000E+00  0.31621437226E+03  0.31621437226E+03  0.00000000000E+00 0. -1.
         -1   -1    0    0    0  501 -0.00000000000E+00 -0.00000000000E+00 -0.43432317891E+02  0.43432317891E+02  0.00000000000E+00 0.  1.
          5    1    1    2  502    0 -0.22015070227E+02  0.77850718908E+02  0.52541714932E+02  0.96582190696E+02  0.47000000000E+01 0. -1.
         -5    1    1    2    0  502  0.20870670386E+02 -0.35749682677E+02  0.81210637211E+02  0.91273667014E+02  0.47000000000E+01 0. -1.
        -11    1    1    2    0    0 -0.37263634780E+02 -0.21484053883E+02  0.25087875534E+02  0.49795025324E+02  0.00000000000E+00 0.  1.
         11    1    1    2    0    0  0.38408034620E+02 -0.20616982348E+02  0.11394182669E+03  0.12199580712E+03  0.00000000000E+00 0. -1.
<mgrwt>
<rscale>  0 0.23438364E+03</rscale>
<asrwt>0</asrwt>
<pdfrwt beam="1">  1        1 0.48648363E-01 0.23438364E+03</pdfrwt>
<pdfrwt beam="2">  1       -1 0.66818953E-02 0.23438364E+03</pdfrwt>
<totfact> 0.91383461E+03</totfact>
</mgrwt>
</event>
<event>
 6    1  0.7457796E-006  0.1253012E+03  0.7546771E-02  0.1249922E+00
         -1   -1    0    0    0  501 -0.00000000000E+00  0.00000000000E+00  0.14981329292E+03  0.14981329292E+03  0.00000000000E+00 0.  1.
          1   -1    0    0  501    0  0.00000000000E+00 -0.00000000000E+00 -0.10037472857E+03  0.10037472857E+03  0.00000000000E+00 0. -1.
          5    1    1    2  502    0  0.27896403615E+02  0.53213619974E+02  0.25114081465E+02  0.65289400160E+02  0.47000000000E+01 0.  1.
         -5    1    1    2    0  502 -0.36488789328E+02 -0.49710654677E+02  0.60144498946E+02  0.86267210970E+02  0.47000000000E+01 0.  1.
        -11    1    1    2    0    0 -0.21418060346E+02  0.32672045998E+02  0.75649256314E+00  0.39073881041E+02  0.00000000000E+00 0.  1.
         11    1    1    2    0    0  0.30010446059E+02 -0.36175011294E+02 -0.36576508628E+02  0.59557529316E+02  0.00000000000E+00 0. -1.
<mgrwt>
<rscale>  0 0.11595562E+03</rscale>
<asrwt>0</asrwt>
<pdfrwt beam="2">  1        1 0.15442266E-01 0.12530116E+03</pdfrwt>
<pdfrwt beam="1">  1       -1 0.23048199E-01 0.12530116E+03</pdfrwt>
<totfact> 0.54184490E+03</totfact>
</mgrwt>
</event>
<event>
 6    1  0.7457796E-006  0.4224863E+03  0.7546771E-02  0.1036260E+00
          2   -1    0    0  501    0  0.00000000000E+00  0.00000000000E+00  0.44689115837E+03  0.44689115837E+03  0.00000000000E+00 0. -1.
         -2   -1    0    0    0  501 -0.00000000000E+00 -0.00000000000E+00 -0.99853542691E+02  0.99853542691E+02  0.00000000000E+00 0.  1.
          5    1    1    2  502    0 -0.64469769982E+01 -0.12122688950E+03 -0.31074697313E+02  0.12540035512E+03  0.47000000000E+01 0.  1.
         -5    1    1    2    0  502  0.43672911993E+01 -0.17229857786E+02  0.60304271984E+02  0.63044717870E+02  0.47000000000E+01 0.  1.
        -11    1    1    2    0    0 -0.26940209051E+02  0.80677757664E+02  0.10094040521E+03  0.13199863957E+03  0.00000000000E+00 0.  1.
         11    1    1    2    0    0  0.29019894850E+02  0.57778989624E+02  0.21686763580E+03  0.22630098850E+03  0.00000000000E+00 0. -1.
<mgrwt>
<rscale>  0 0.42248629E+03</rscale>
<asrwt>0</asrwt>
<pdfrwt beam="1">  1        2 0.68752485E-01 0.42248629E+03</pdfrwt>
<pdfrwt beam="2">  1       -2 0.15362084E-01 0.42248629E+03</pdfrwt>
<totfact> 0.23378154E+03</totfact>
</mgrwt>
</event>
<event>
 6    1  0.7457796E-006  0.1821021E+03  0.7546771E-02  0.1187301E+00
          2   -1    0    0  501    0  0.00000000000E+00  0.00000000000E+00  0.91293173732E+03  0.91293173732E+03  0.00000000000E+00 0. -1.
         -2   -1    0    0    0  501 -0.00000000000E+00 -0.00000000000E+00 -0.23703738451E+02  0.23703738451E+02  0.00000000000E+00 0.  1.
          5    1    1    2  502    0  0.44208714933E+02  0.67247543701E+02  0.49160232578E+03  0.49816822392E+03  0.47000000000E+01 0. -1.
         -5    1    1    2    0  502 -0.48771251651E+02 -0.14327774551E+02  0.43492680815E+02  0.67064322823E+02  0.47000000000E+01 0.  1.
        -11    1    1    2    0    0 -0.28518600895E+02 -0.69109709100E+02  0.22319344484E+03  0.23538219199E+03  0.00000000000E+00 0.  1.
         11    1    1    2    0    0  0.33081137613E+02  0.16189939950E+02  0.13093954743E+03  0.13602073703E+03  0.00000000000E+00 0. -1.
<mgrwt>
<rscale>  0 0.16124263E+03</rscale>
<asrwt>0</asrwt>
<pdfrwt beam="1">  1        2 0.14045101E+00 0.18210208E+03</pdfrwt>
<pdfrwt beam="2">  1       -2 0.36467297E-02 0.18210208E+03</pdfrwt>
<totfact> 0.92184212E+03</totfact>
</mgrwt>
</event>
<event>
 6    1  0.7457796E-006  0.2946794E+03  0.7546771E-02  0.1087931E+00
         -2   -1    0    0    0  501 -0.00000000000E+00  0.00000000000E+00  0.10648526782E+03  0.10648526782E+03  0.00000000000E+00 0. -1.
          2   -1    0    0  501    0  0.00000000000E+00 -0.00000000000E+00 -0.20386841648E+03  0.20386841648E+03  0.00000000000E+00 0.  1.
          5    1    1    2  502    0 -0.46810469591E+02  0.46516776117E+02 -0.75941802542E+02  0.10071880607E+03  0.47000000000E+01 0.  1.
         -5    1    1    2    0  502 -0.24513448245E+02  0.18229638957E+02  0.50414241124E+02  0.59134715603E+02  0.47000000000E+01 0.  1.
        -11    1    1    2    0    0  0.85416637015E+01 -0.67323900024E+02 -0.48720420602E+02  0.83541288695E+02  0.00000000000E+00 0.  1.
         11    1    1    2    0    0  0.62782254134E+02  0.25774849499E+01 -0.23135166636E+02  0.66958873931E+02  0.00000000000E+00 0. -1.
<mgrwt>
<rscale>  0 0.29467937E+03</rscale>
<asrwt>0</asrwt>
<pdfrwt beam="2">  1        2 0.31364371E-01 0.29467937E+03</pdfrwt>
<pdfrwt beam="1">  1       -2 0.16382349E-01 0.29467937E+03</pdfrwt>
<totfact> 0.49128801E+03</totfact>
</mgrwt>
</event>
<event>
 6    1  0.9288176E-006  0.1531958E+03  0.7546771E-02  0.1204875E+00
         -1   -1    0    0    0  501 -0.00000000000E+00  0.00000000000E+00  0.71899465855E+02  0.71899465855E+02  0.00000000000E+00 0.  1.
          1   -1    0    0  501    0  0.00000000000E+00 -0.00000000000E+00 -0.28896647079E+03  0.28896647079E+03  0.00000000000E+00 0. -1.
          5    1    1    2  502    0 -0.49295029365E+02 -0.11388440985E+02  0.25241393512E+02  0.56735477918E+02  0.47000000000E+01 0. -1.
         -5    1    1    2    0  502 -0.35876900821E+02  0.35674036592E+02 -0.10348087100E+03  0.11528299771E+03  0.47000000000E+01 0. -1.
        -11    1    1    2    0    0  0.69123502931E+02 -0.42867566661E+02 -0.14244330023E+03  0.16402981652E+03  0.00000000000E+00 0. -1.
         11    1    1    2    0    0  0.16048427254E+02  0.18581971053E+02  0.36157727722E+01  0.24817644495E+02  0.00000000000E+00 0.  1.
<mgrwt>
<rscale>  0 0.14647326E+03</rscale>
<asrwt>0</asrwt>
<pdfrwt beam="2">  1        1 0.44456380E-01 0.15319576E+03</pdfrwt>
<pdfrwt beam="1">  1       -1 0.11061456E-01 0.15319576E+03</pdfrwt>
<totfact> 0.46248754E+03</totfact>
</mgrwt>
</event>
<event>
 6    1  0.7457796E-006  0.1365095E+03  0.7546771E-02  0.1229364E+00
          1   -1    0    0  501    0  0.00000000000E+00  0.00000000000E+00  0.50193092891E+02  0.50193092891E+02  0.00000000000E+00 0. -1.
         -1   -1    0    0    0  501 -0.00000000000E+00 -0.00000000000E+00 -0.31513989334E+03  0.31513989334E+03  0.00000000000E+00 0.  1.
          5    1    1    2  502    0 -0.27171152948E+02 -0.23907385487E+02  0.24997158823E+01  0.36581049914E+02  0.47000000000E+01 0.  1.
         -5    1    1    2    0  502  0.30527426968E+02 -0.30841211749E+02 -0.19242285627E+03  0.19731130164E+03  0.47000000000E+01 0.  1.
        -11    1    1    2    0    0  0.17163137069E+02  0.75701256021E+02 -0.62036358105E+02  0.99366811181E+02  0.00000000000E+00 0.  1.
         11    1    1    2    0    0 -0.20519411089E+02 -0.20952658785E+02 -0.12987301955E+02  0.32073823497E+02  0.00000000000E+00 0. -1.
<mgrwt>
<rscale>  0 0.12872233E+03</rscale>
<asrwt>0</asrwt>
<pdfrwt beam="1">  1        1 0.77220144E-02 0.13650946E+03</pdfrwt>
<pdfrwt beam="2">  1       -1 0.48483060E-01 0.13650946E+03</pdfrwt>
<totfact> 0.38100993E+03</totfact>
</mgrwt>
</event>
<event>
 6    1  0.7457796E-006  0.1331266E+03  0.7546771E-02  0.1234666E+00
          1   -1    0    0  501    0  0.00000000000E+00  0.00000000000E+00  0.27155999939E+03  0.27155999939E+03  0.00000000000E+00 0.  1.
         -1   -1    0    0    0  501 -0.00000000000E+00 -0.00000000000E+00 -0.53403962614E+02  0.53403962614E+02  0.00000000000E+00 0. -1.
          5    1    1    2  502    0  0.16203854064E+02 -0.39248243403E+02  0.48016400626E+02  0.64270165907E+02  0.47000000000E+01 0. -1.
         -5    1    1    2    0  502 -0.20764068680E+02  0.84820252064E+02  0.46947977630E+02  0.99256356531E+02  0.47000000000E+01 0. -1.
        -11    1    1    2    0    0 -0.17943928413E+02 -0.75344663868E+01  0.11481729506E+03  0.11645498700E+03  0.00000000000E+00 0.  1.
         11    1    1    2    0    0  0.22504143029E+02 -0.38037542274E+02  0.83743634552E+01  0.44982452568E+02  0.00000000000E+00 0. -1.
<mgrwt>
<rscale>  0 0.12525829E+03</rscale>
<asrwt>0</asrwt>
<pdfrwt beam="1">  1        1 0.41778460E-01 0.13312660E+03</pdfrwt>
<pdfrwt beam="2">  1       -1 0.82159945E-02 0.13312660E+03</pdfrwt>
<totfact> 0.77919637E+03</totfact>
</mgrwt>
</event>
<event>
 6    1  0.7457796E-006  0.1352106E+03  0.7546771E-02  0.1232021E+00
          1   -1    0    0  501    0  0.00000000000E+00  0.00000000000E+00  0.78729018082E+03  0.78729018082E+03  0.00000000000E+00 0. -1.
         -1   -1    0    0    0  501 -0.00000000000E+00 -0.00000000000E+00 -0.18822368978E+02  0.18822368978E+02  0.00000000000E+00 0.  1.
          5    1    1    2  502    0 -0.70729313882E+02 -0.54591899091E+02  0.30823591289E+03  0.32095853203E+03  0.47000000000E+01 0. -1.
         -5    1    1    2    0  502  0.27843937909E+02  0.26009328188E+02  0.59129590125E+02  0.70499421696E+02  0.47000000000E+01 0. -1.
        -11    1    1    2    0    0  0.66545998094E+02 -0.13886636278E+00  0.22354204661E+03  0.23323686619E+03  0.00000000000E+00 0.  1.
         11    1    1    2    0    0 -0.23660622121E+02  0.28721437266E+02  0.17756026222E+03  0.18141772989E+03  0.00000000000E+00 0. -1.
<mgrwt>
<rscale>  0 0.12697108E+03</rscale>
<asrwt>0</asrwt>
<pdfrwt beam="1">  1        1 0.12112154E+00 0.13521064E+03</pdfrwt>
<pdfrwt beam="2">  1       -1 0.28957497E-02 0.13521064E+03</pdfrwt>
<totfact> 0.90275080E+03</totfact>
</mgrwt>
</event>
<event>
 6    1  0.7457796E-006  0.1287354E+03  0.7546771E-02  0.1241636E+00
         -2   -1    0    0    0  501 -0.00000000000E+00  0.00000000000E+00  0.57056776844E+02  0.57056776844E+02  0.00000000000E+00 0.  1.
          2   -1    0    0  501    0  0.00000000000E+00 -0.00000000000E+00 -0.42333871384E+03  0.42333871384E+03  0.00000000000E+00 0. -1.
          5    1    1    2  502    0 -0.53615155301E+02  0.21486558210E+02 -0.45417235856E+01  0.58128945584E+02  0.47000000000E+01 0. -1.
         -5    1    1    2    0  502  0.45952578464E+02 -0.51310105553E+02 -0.29157775608E+02  0.74944194423E+02  0.47000000000E+01 0. -1.
        -11    1    1    2    0    0 -0.37139607472E+02  0.19709928824E+02 -0.77813405025E+02  0.88446355148E+02  0.00000000000E+00 0.  1.
         11    1    1    2    0    0  0.44802184308E+02  0.10113618519E+02 -0.25476903278E+03  0.25887599553E+03  0.00000000000E+00 0. -1.
<mgrwt>
<rscale>  0 0.12089028E+03</rscale>
<asrwt>0</asrwt>
<pdfrwt beam="2">  1        2 0.65129035E-01 0.12873540E+03</pdfrwt>
<pdfrwt beam="1">  1       -2 0.87779653E-02 0.12873540E+03</pdfrwt>
<totfact> 0.58569844E+03</totfact>
</mgrwt>
</event>
<event>
 6    1  0.7457796E-006  0.1255139E+03  0.7546771E-02  0.1249466E+00
         -2   -1    0    0    0  501 -0.00000000000E+00  0.00000000000E+00  0.94701612622E+02  0.94701612622E+02  0.00000000000E+00 0.  1.
          2   -1    0    0  501    0  0.00000000000E+00 -0.00000000000E+00 -0.12634190465E+03  0.12634190465E+03  0.00000000000E+00 0. -1.
          5    1    1    2  502    0  0.57898154598E+02 -0.25911855836E+02 -0.28085839185E+02  0.69530748172E+02  0.47000000000E+01 0.  1.
         -5    1    1    2    0  502 -0.48646655511E+02  0.19078759951E+02  0.20226505797E+02  0.56228975720E+02  0.47000000000E+01 0.  1.
        -11    1    1    2    0    0  0.50291291290E+01  0.35977985995E+02 -0.43989725559E+02  0.57050885802E+02  0.00000000000E+00 0. -1.
         11    1    1    2    0    0 -0.14280628215E+02 -0.29144890110E+02  0.20208766917E+02  0.38232907581E+02  0.00000000000E+00 0.  1.
<mgrwt>
<rscale>  0 0.11622035E+03</rscale>
<asrwt>0</asrwt>
<pdfrwt beam="2">  1        2 0.19437216E-01 0.12551390E+03</pdfrwt>
<pdfrwt beam="1">  1       -2 0.14569479E-01 0.12551390E+03</pdfrwt>
<totfact> 0.96444678E+03</totfact>
</mgrwt>
</event>
<event>
 6    1  0.7457796E-006  0.3364231E+03  0.7546771E-02  0.1068330E+00
         -2   -1    0    0    0  501 -0.00000000000E+00  0.00000000000E+00  0.34579071251E+02  0.34579071251E+02  0.00000000000E+00 0.  1.
          2   -1    0    0  501    0  0.00000000000E+00 -0.00000000000E+00 -0.81827294972E+03  0.81827294972E+03  0.00000000000E+00 0. -1.
          5    1    1    2  502    0  0.92306661449E+01  0.88297502013E+01  0.99700294621E+00  0.13647479656E+02  0.47000000000E+01 0.  1.
         -5    1    1    2    0  502  0.81587461194E+02 -0.91149454357E+02 -0.51514950048E+03  0.52949583067E+03  0.47000000000E+01 0.  1.
        -11    1    1    2    0    0 -0.32692382969E+02  0.87933207528E+02 -0.15617021381E+03  0.18218171306E+03  0.00000000000E+00 0.  1.
         11    1    1    2    0    0 -0.58125744370E+02 -0.56135033723E+01 -0.11337116713E+03  0.12752699759E+03  0.00000000000E+00 0. -1.
<mgrwt>
<rscale>  0 0.33642306E+03</rscale>
<asrwt>0</asrwt>
<pdfrwt beam="2">  1        2 0.12588814E+00 0.33642306E+03</pdfrwt>
<pdfrwt beam="1">  1       -2 0.53198572E-02 0.33642306E+03</pdfrwt>
<totfact> 0.61577275E+03</totfact>
</mgrwt>
</event>
<event>
 6    1  0.7457796E-006  0.1366866E+03  0.7546771E-02  0.1226889E+00
         -2   -1    0    0    0  501 -0.00000000000E+00  0.00000000000E+00  0.15015369794E+02  0.15015369794E+02  0.00000000000E+00 0.  1.
          2   -1    0    0  501    0  0.00000000000E+00 -0.00000000000E+00 -0.11036924885E+04  0.11036924885E+04  0.00000000000E+00 0. -1.
          5    1    1    2  502    0 -0.43054551047E+02 -0.49011294695E+02 -0.43576777930E+03  0.44064889521E+03  0.47000000000E+01 0. -1.
         -5    1    1    2    0  502 -0.82848394874E+01  0.28464413386E+02 -0.22342837430E+02  0.37418628772E+02  0.47000000000E+01 0. -1.
        -11    1    1    2    0    0  0.65054271839E+02  0.48998798268E+02 -0.43996109052E+03  0.44743569559E+03  0.00000000000E+00 0.  1.
         11    1    1    2    0    0 -0.13714881304E+02 -0.28451916959E+02 -0.19060541150E+03  0.19320463876E+03  0.00000000000E+00 0. -1.
<mgrwt>
<rscale>  0 0.13038294E+03</rscale>
<asrwt>0</asrwt>
<pdfrwt beam="2">  1        2 0.16979886E+00 0.13668658E+03</pdfrwt>
<pdfrwt beam="1">  1       -2 0.23100567E-02 0.13668658E+03</pdfrwt>
<totfact> 0.13666172E+04</totfact>
</mgrwt>
</event>
<event>
 6    1  0.7457796E-006  0.5019433E+03  0.7546771E-02  0.1024563E+00
          4   -1    0    0  501    0  0.00000000000E+00  0.00000000000E+00  0.65179877113E+03  0.65179877113E+03  0.00000000000E+00 0. -1.
         -4   -1    0    0    0  501 -0.00000000000E+00 -0.00000000000E+00 -0.29330971905E+03  0.29330971905E+03  0.00000000000E+00 0.  1.
          5    1    1    2  502    0 -0.10320872971E+03  0.15906158762E+03  0.22929950907E+03  0.29757853653E+03  0.47000000000E+01 0. -1.
         -5    1    1    2    0  502  0.51150297399E+02  0.18154048129E+03 -0.10993813763E+03  0.21836158860E+03  0.47000000000E+01 0.  1.
        -11    1    1    2    0    0  0.19318423367E+02 -0.29295357785E+03  0.22435053328E+03  0.36949717460E+03  0.00000000000E+00 0.  1.
         11    1    1    2    0    0  0.32740008944E+02 -0.47648491055E+02  0.14777147353E+02  0.59671190447E+02  0.00000000000E+00 0. -1.
<mgrwt>
<rscale>  0 0.46075274E+03</rscale>
<asrwt>0</asrwt>
<pdfrwt beam="1">  1        4 0.10027673E+00 0.50194330E+03</pdfrwt>
<pdfrwt beam="2">  1       -4 0.45124572E-01 0.50194330E+03</pdfrwt>
<totfact> 0.76251628E+00</totfact>
</mgrwt>
</event>
<event>
 6    1  0.7457796E-006  0.1496057E+03  0.7546771E-02  0.1209745E+00
          2   -1    0    0  501    0  0.00000000000E+00  0.00000000000E+00  0.96651218040E+03  0.96651218040E+03  0.00000000000E+00 0. -1.
         -2   -1    0    0    0  501 -0.00000000000E+00 -0.00000000000E+00 -0.19413712731E+02  0.19413712731E+02  0.00000000000E+00 0.  1.
          5    1    1    2  502    0 -0.42954870048E+02  0.43711270369E+02  0.10627625990E+03  0.12277023025E+03  0.47000000000E+01 0. -1.
         -5    1    1    2    0  502  0.56066050483E+02  0.37436566716E+02  0.38128592815E+03  0.38722854692E+03  0.47000000000E+01 0. -1.
        -11    1    1    2    0    0  0.12434837498E+02  0.13592353619E+02  0.29045797422E+02  0.34395284682E+02  0.00000000000E+00 0.  1.
         11    1    1    2    0    0 -0.25546017933E+02 -0.94740190704E+02  0.43049048220E+03  0.44153183128E+03  0.00000000000E+00 0. -1.
<mgrwt>
<rscale>  0 0.14269692E+03</rscale>
<asrwt>0</asrwt>
<pdfrwt beam="1">  1        2 0.14869414E+00 0.14960570E+03</pdfrwt>
<pdfrwt beam="2">  1       -2 0.29867258E-02 0.14960570E+03</pdfrwt>
<totfact> 0.11359274E+04</totfact>
</mgrwt>
</event>
<event>
 6    1  0.7457796E-006  0.2722462E+03  0.7546771E-02  0.1101853E+00
          2   -1    0    0  501    0  0.00000000000E+00  0.00000000000E+00  0.35088771273E+03  0.35088771273E+03  0.00000000000E+00 0. -1.
         -2   -1    0    0    0  501 -0.00000000000E+00 -0.00000000000E+00 -0.34494893267E+03  0.34494893267E+03  0.00000000000E+00 0.  1.
          5    1    1    2  502    0 -0.70083867860E+02  0.14349256468E+03 -0.71069074675E+02  0.17485642118E+03  0.47000000000E+01 0. -1.
         -5    1    1    2    0  502 -0.78165511801E+02  0.47607100263E+02 -0.15028195526E+03  0.17601999689E+03  0.47000000000E+01 0. -1.
        -11    1    1    2    0    0  0.10042143894E+03 -0.15046059284E+03  0.10939499980E+03  0.21140038169E+03  0.00000000000E+00 0.  1.
         11    1    1    2    0    0  0.47827940725E+02 -0.40639072100E+02  0.11789481020E+03  0.13355984563E+03  0.00000000000E+00 0. -1.
<mgrwt>
<rscale>  0 0.26900044E+03</rscale>
<asrwt>0</asrwt>
<pdfrwt beam="1">  1        2 0.53982725E-01 0.27224618E+03</pdfrwt>
<pdfrwt beam="2">  1       -2 0.53069066E-01 0.27224618E+03</pdfrwt>
<totfact> 0.31585309E+02</totfact>
</mgrwt>
</event>
<event>
 6    1  0.7457796E-006  0.1801739E+03  0.7546771E-02  0.1174653E+00
         -1   -1    0    0    0  501 -0.00000000000E+00  0.00000000000E+00  0.44421305272E+03  0.44421305272E+03  0.00000000000E+00 0.  1.
          1   -1    0    0  501    0  0.00000000000E+00 -0.00000000000E+00 -0.11281205359E+03  0.11281205359E+03  0.00000000000E+00 0. -1.
          5    1    1    2  502    0  0.38784099140E+02 -0.12405635998E+02  0.14228865642E+03  0.14807517650E+03  0.47000000000E+01 0. -1.
         -5    1    1    2    0  502 -0.71460604647E+01  0.13139635662E+03  0.21613749553E+03  0.25308807891E+03  0.47000000000E+01 0.  1.
        -11    1    1    2    0    0 -0.23597960700E+02 -0.12686569500E+03 -0.27119224316E+01  0.12907022446E+03  0.00000000000E+00 0. -1.
         11    1    1    2    0    0 -0.80400779758E+01  0.78749743831E+01 -0.24313230387E+02  0.26791626439E+02  0.00000000000E+00 0.  1.
<mgrwt>
<rscale>  0 0.17309989E+03</rscale>
<asrwt>0</asrwt>
<pdfrwt beam="2">  1        1 0.17355701E-01 0.18017395E+03</pdfrwt>
<pdfrwt beam="1">  1       -1 0.68340469E-01 0.18017395E+03</pdfrwt>
<totfact> 0.69050647E+02</totfact>
</mgrwt>
</event>
<event>
 6    1  0.7457796E-006  0.1498203E+03  0.7546771E-02  0.1209790E+00
          1   -1    0    0  501    0  0.00000000000E+00  0.00000000000E+00  0.31033279147E+03  0.31033279147E+03  0.00000000000E+00 0. -1.
         -1   -1    0    0    0  501 -0.00000000000E+00 -0.00000000000E+00 -0.61116803134E+02  0.61116803134E+02  0.00000000000E+00 0.  1.
          5    1    1    2  502    0  0.35576919788E+02  0.12462168781E+02  0.10786869668E+03  0.11436244399E+03  0.47000000000E+01 0. -1.
         -5    1    1    2    0  502 -0.21788206115E+02  0.69068409256E+02  0.41301789983E+01  0.72693324738E+02  0.47000000000E+01 0. -1.
        -11    1    1    2    0    0  0.77394149749E+01 -0.41127477796E+02  0.22904458874E+01  0.41911980582E+02  0.00000000000E+00 0.  1.
         11    1    1    2    0    0 -0.21528128648E+02 -0.40403100242E+02  0.13492666677E+03  0.14248184529E+03  0.00000000000E+00 0. -1.
<mgrwt>
<rscale>  0 0.14266263E+03</rscale>
<asrwt>0</asrwt>
<pdfrwt beam="1">  1        1 0.47743505E-01 0.14982027E+03</pdfrwt>
<pdfrwt beam="2">  1       -1 0.94025853E-02 0.14982027E+03</pdfrwt>
<totfact> 0.54225212E+03</totfact>
</mgrwt>
</event>
<event>
 6    1  0.7457796E-006  0.1653431E+03  0.7546771E-02  0.1209578E+00
          2   -1    0    0  501    0  0.00000000000E+00  0.00000000000E+00  0.55443407858E+02  0.55443407858E+02  0.00000000000E+00 0. -1.
         -2   -1    0    0    0  501 -0.00000000000E+00 -0.00000000000E+00 -0.29891741958E+03  0.29891741958E+03  0.00000000000E+00 0.  1.
          5    1    1    2  502    0  0.70338281712E+02  0.54899430922E+02 -0.70574061958E+02  0.11386048310E+03  0.47000000000E+01 0. -1.
         -5    1    1    2    0  502 -0.54677168277E+02 -0.51142795476E+02 -0.81763208370E+02  0.11096166231E+03  0.47000000000E+01 0.  1.
        -11    1    1    2    0    0 -0.41144253736E+02 -0.27714696110E+02 -0.26987724903E+02  0.56473810669E+02  0.00000000000E+00 0.  1.
         11    1    1    2    0    0  0.25483140301E+02  0.23958060663E+02 -0.64149016492E+02  0.73064871363E+02  0.00000000000E+00 0. -1.
<mgrwt>
<rscale>  0 0.14282460E+03</rscale>
<asrwt>0</asrwt>
<pdfrwt beam="1">  1        2 0.85297549E-02 0.16534314E+03</pdfrwt>
<pdfrwt beam="2">  1       -2 0.45987296E-01 0.16534314E+03</pdfrwt>
<totfact> 0.34436783E+03</totfact>
</mgrwt>
</event>
<event>
 6    1  0.7457796E-006  0.1340171E+03  0.7546771E-02  0.1234082E+00
         -1   -1    0    0    0  501 -0.00000000000E+00  0.00000000000E+00  0.70479891647E+02  0.70479891647E+02  0.00000000000E+00 0.  1.
          1   -1    0    0  501    0  0.00000000000E+00 -0.00000000000E+00 -0.20342198474E+03  0.20342198474E+03  0.00000000000E+00 0. -1.
          5    1    1    2  502    0 -0.72056502403E+02 -0.36933785439E+02 -0.22720434228E+01  0.81138746766E+02  0.47000000000E+01 0. -1.
         -5    1    1    2    0  502  0.26897256976E+02  0.19671752104E+02 -0.55270043652E+02  0.64709411904E+02  0.47000000000E+01 0. -1.
        -11    1    1    2    0    0  0.73021946666E+02  0.18576139140E+02 -0.58974220091E+02  0.95682998885E+02  0.00000000000E+00 0.  1.
         11    1    1    2    0    0 -0.27862701240E+02 -0.13141058042E+01 -0.16425785927E+02  0.32370718833E+02  0.00000000000E+00 0. -1.
<mgrwt>
<rscale>  0 0.12563397E+03</rscale>
<asrwt>0</asrwt>
<pdfrwt beam="2">  1        1 0.31295690E-01 0.13401714E+03</pdfrwt>
<pdfrwt beam="1">  1       -1 0.10843060E-01 0.13401714E+03</pdfrwt>
<totfact> 0.73085949E+03</totfact>
</mgrwt>
</event>
<event>
 6    1  0.7457796E-006  0.1324062E+03  0.7546771E-02  0.1255470E+00
          2   -1    0    0  501    0  0.00000000000E+00  0.00000000000E+00  0.11436223589E+03  0.11436223589E+03  0.00000000000E+00 0. -1.
         -2   -1    0    0    0  501 -0.00000000000E+00 -0.00000000000E+00 -0.89508603933E+02  0.89508603933E+02  0.00000000000E+00 0.  1.
          5    1    1    2  502    0 -0.22260483710E+02  0.26562252794E+01  0.51551802669E+02  0.56411550468E+02  0.47000000000E+01 0. -1.
         -5    1    1    2    0  502  0.15288248168E+02 -0.63527609602E+02 -0.39573759031E+02  0.76535352077E+02  0.47000000000E+01 0.  1.
        -11    1    1    2    0    0  0.18037862343E+02  0.21040637412E+02  0.30556284939E+00  0.27715812622E+02  0.00000000000E+00 0.  1.
         11    1    1    2    0    0 -0.11065626802E+02  0.39830746910E+02  0.12570025467E+02  0.43208124654E+02  0.00000000000E+00 0. -1.
<mgrwt>
<rscale>  0 0.11280029E+03</rscale>
<asrwt>0</asrwt>
<pdfrwt beam="1">  1        2 0.17594190E-01 0.13240621E+03</pdfrwt>
<pdfrwt beam="2">  1       -2 0.13770554E-01 0.13240621E+03</pdfrwt>
<totfact> 0.11893249E+04</totfact>
</mgrwt>
</event>
<event>
 6    1  0.7457796E-006  0.1515944E+03  0.7546771E-02  0.1208354E+00
          1   -1    0    0  501    0  0.00000000000E+00  0.00000000000E+00  0.34604489153E+03  0.34604489153E+03  0.00000000000E+00 0. -1.
         -1   -1    0    0    0  501 -0.00000000000E+00 -0.00000000000E+00 -0.10440484649E+03  0.10440484649E+03  0.00000000000E+00 0.  1.
          5    1    1    2  502    0  0.20220978321E+02  0.31426357834E+02  0.10174062773E+02  0.39014170300E+02  0.47000000000E+01 0. -1.
         -5    1    1    2    0  502  0.21484199117E+02 -0.10637049080E+03 -0.38249989329E+02  0.11515816865E+03  0.47000000000E+01 0. -1.
        -11    1    1    2    0    0  0.24458469993E+02  0.36704366357E+01  0.67592122324E+02  0.71974883534E+02  0.00000000000E+00 0. -1.
         11    1    1    2    0    0 -0.66163647430E+02  0.71273696328E+02  0.20212384927E+03  0.22430251553E+03  0.00000000000E+00 0.  1.
<mgrwt>
<rscale>  0 0.14376234E+03</rscale>
<asrwt>0</asrwt>
<pdfrwt beam="1">  1        1 0.53237675E-01 0.15159437E+03</pdfrwt>
<pdfrwt beam="2">  1       -1 0.16062284E-01 0.15159437E+03</pdfrwt>
<totfact> 0.20648948E+03</totfact>
</mgrwt>
</event>
<event>
 6    1  0.7457796E-006  0.1456823E+03  0.7546771E-02  0.1228333E+00
          2   -1    0    0  501    0  0.00000000000E+00  0.00000000000E+00  0.29986214355E+02  0.29986214355E+02  0.00000000000E+00 0. -1.
         -2   -1    0    0    0  501 -0.00000000000E+00 -0.00000000000E+00 -0.47140418175E+03  0.47140418175E+03  0.00000000000E+00 0.  1.
          5    1    1    2  502    0  0.22297885461E+02  0.22430494438E+02 -0.30438165903E+00  0.31976638738E+02  0.47000000000E+01 0. -1.
         -5    1    1    2    0  502 -0.26523081363E+02 -0.22344155942E+02 -0.29749848451E+03  0.29954995149E+03  0.47000000000E+01 0.  1.
        -11    1    1    2    0    0  0.39813663851E+02 -0.36800531582E+01 -0.27923409251E+02  0.48768713380E+02  0.00000000000E+00 0.  1.
         11    1    1    2    0    0 -0.35588467949E+02  0.35937146627E+01 -0.11569169198E+03  0.12109509250E+03  0.00000000000E+00 0. -1.
<mgrwt>
<rscale>  0 0.12941053E+03</rscale>
<asrwt>0</asrwt>
<pdfrwt beam="1">  1        2 0.46132641E-02 0.14568230E+03</pdfrwt>
<pdfrwt beam="2">  1       -2 0.72523715E-01 0.14568230E+03</pdfrwt>
<totfact> 0.29687988E+03</totfact>
</mgrwt>
</event>
<event>
 6    1  0.7457796E-006  0.1501289E+03  0.7546771E-02  0.1209589E+00
          1   -1    0    0  501    0  0.00000000000E+00  0.00000000000E+00  0.32310328083E+03  0.32310328083E+03  0.00000000000E+00 0. -1.
         -1   -1    0    0    0  501 -0.00000000000E+00 -0.00000000000E+00 -0.80355104153E+02  0.80355104153E+02  0.00000000000E+00 0.  1.
          5    1    1    2  502    0 -0.10770155152E+03 -0.31739597141E+02  0.31832300961E+01  0.11242441541E+03  0.47000000000E+01 0. -1.
         -5    1    1    2    0  502  0.33233160132E+02 -0.53633720484E+01  0.20131250111E+02  0.39503998824E+02  0.47000000000E+01 0. -1.
        -11    1    1    2    0    0  0.11874831525E+02 -0.27749345625E+02  0.34765062849E+02  0.46039628596E+02  0.00000000000E+00 0.  1.
         11    1    1    2    0    0  0.62593559866E+02  0.64852314815E+02  0.18466863363E+03  0.20549034215E+03  0.00000000000E+00 0. -1.
<mgrwt>
<rscale>  0 0.14281651E+03</rscale>
<asrwt>0</asrwt>
<pdfrwt beam="1">  1        1 0.49708196E-01 0.15012887E+03</pdfrwt>
<pdfrwt beam="2">  1       -1 0.12362324E-01 0.15012887E+03</pdfrwt>
<totfact> 0.33867980E+03</totfact>
</mgrwt>
</event>
<event>
 6    1  0.7457796E-006  0.2623816E+03  0.7546771E-02  0.1105721E+00
          2   -1    0    0  501    0  0.00000000000E+00  0.00000000000E+00  0.46605469153E+03  0.46605469153E+03  0.00000000000E+00 0. -1.
         -2   -1    0    0    0  501 -0.00000000000E+00 -0.00000000000E+00 -0.36929192810E+02  0.36929192810E+02  0.00000000000E+00 0.  1.
          5    1    1    2  502    0 -0.13711872710E+02  0.42930862561E+01  0.14218005700E+03  0.14298148360E+03  0.47000000000E+01 0.  1.
         -5    1    1    2    0  502  0.70171535080E+02 -0.46294353947E+02  0.53910155161E+02  0.99978029448E+02  0.47000000000E+01 0.  1.
        -11    1    1    2    0    0 -0.69037769001E+01  0.61410049513E+02  0.11522249380E+03  0.13074815255E+03  0.00000000000E+00 0.  1.
         11    1    1    2    0    0 -0.49555885469E+02 -0.19408781822E+02  0.11781279276E+03  0.12927621875E+03  0.00000000000E+00 0. -1.
<mgrwt>
<rscale>  0 0.26238158E+03</rscale>
<asrwt>0</asrwt>
<pdfrwt beam="1">  1        2 0.71700718E-01 0.26238158E+03</pdfrwt>
<pdfrwt beam="2">  1       -2 0.56814146E-02 0.26238158E+03</pdfrwt>
<totfact> 0.10750890E+04</totfact>
</mgrwt>
</event>
<event>
 6    1  0.7457796E-006  0.1567506E+03  0.7546771E-02  0.1200219E+00
          2   -1    0    0  501    0  0.00000000000E+00  0.00000000000E+00  0.40905033869E+03  0.40905033869E+03  0.00000000000E+00 0. -1.
         -2   -1    0    0    0  501 -0.00000000000E+00 -0.00000000000E+00 -0.52895902455E+02  0.52895902455E+02  0.00000000000E+00 0.  1.
          5    1    1    2  502    0 -0.23377103441E+02 -0.46655086369E+02  0.22225819993E+02  0.56914524717E+02  0.47000000000E+01 0. -1.
         -5    1    1    2    0  502  0.63274973223E+02 -0.39096895225E+02  0.21383130242E+03  0.22644691508E+03  0.47000000000E+01 0. -1.
        -11    1    1    2    0    0 -0.47097857886E+02  0.33788238270E+02  0.13110551482E+02  0.59428442879E+02  0.00000000000E+00 0. -1.
         11    1    1    2    0    0  0.71999881042E+01  0.51963743324E+02  0.10698676233E+03  0.11915635847E+03  0.00000000000E+00 0.  1.
<mgrwt>
<rscale>  0 0.15020724E+03</rscale>
<asrwt>0</asrwt>
<pdfrwt beam="1">  1        2 0.62930819E-01 0.15675057E+03</pdfrwt>
<pdfrwt beam="2">  1       -2 0.81378314E-02 0.15675057E+03</pdfrwt>
<totfact> 0.69146399E+03</totfact>
</mgrwt>
</event>
<event>
 6    1  0.7457796E-006  0.2081685E+03  0.7546771E-02  0.1151577E+00
         -1   -1    0    0    0  501 -0.00000000000E+00  0.00000000000E+00  0.13190432766E+03  0.13190432766E+03  0.00000000000E+00 0.  1.
          1   -1    0    0  501    0  0.00000000000E+00 -0.00000000000E+00 -0.29638779558E+03  0.29638779558E+03  0.00000000000E+00 0. -1.
          5    1    1    2  502    0 -0.52058821519E+02 -0.54817872152E+02 -0.31412214718E+02  0.81999617308E+02  0.47000000000E+01 0. -1.
         -5    1    1    2    0  502  0.98821663984E+02 -0.81017162106E+02  0.41854834654E+01  0.12794182311E+03  0.47000000000E+01 0.  1.
        -11    1    1    2    0    0 -0.43068762379E+02  0.24475737299E+02 -0.77331416565E+02  0.91837508662E+02  0.00000000000E+00 0. -1.
         11    1    1    2    0    0 -0.36940800855E+01  0.11135929696E+03 -0.59925320103E+02  0.12651317416E+03  0.00000000000E+00 0.  1.
<mgrwt>
<rscale>  0 0.19783637E+03</rscale>
<asrwt>0</asrwt>
<pdfrwt beam="2">  1        1 0.45598122E-01 0.20816847E+03</pdfrwt>
<pdfrwt beam="1">  1       -1 0.20292974E-01 0.20816847E+03</pdfrwt>
<totfact> 0.17388750E+03</totfact>
</mgrwt>
</event>
<event>
 6    1  0.7457796E-006  0.2177279E+03  0.7546771E-02  0.1140560E+00
         -1   -1    0    0    0  501 -0.00000000000E+00  0.00000000000E+00  0.29814059545E+03  0.29814059545E+03  0.00000000000E+00 0.  1.
          1   -1    0    0  501    0  0.00000000000E+00 -0.00000000000E+00 -0.31389414107E+03  0.31389414107E+03  0.00000000000E+00 0. -1.
          5    1    1    2  502    0 -0.72379397982E+00  0.10456994805E+03  0.19755151850E+03  0.22357121992E+03  0.47000000000E+01 0. -1.
         -5    1    1    2    0  502  0.46459785787E+02  0.67735976580E+02  0.20967126429E+02  0.84902206151E+02  0.47000000000E+01 0. -1.
        -11    1    1    2    0    0  0.60247500232E-01 -0.13019001874E+03 -0.16976952116E+03  0.21394189613E+03  0.00000000000E+00 0.  1.
         11    1    1    2    0    0 -0.45796239308E+02 -0.42115905897E+02 -0.64502669388E+02  0.89619414317E+02  0.00000000000E+00 0. -1.
<mgrwt>
<rscale>  0 0.21127579E+03</rscale>
<asrwt>0</asrwt>
<pdfrwt beam="2">  1        1 0.48291406E-01 0.21772794E+03</pdfrwt>
<pdfrwt beam="1">  1       -1 0.45867784E-01 0.21772794E+03</pdfrwt>
<totfact> 0.40195044E+02</totfact>
</mgrwt>
</event>
<event>
 6    1  0.7457796E-006  0.1487048E+03  0.7546771E-02  0.1211992E+00
         -2   -1    0    0    0  501 -0.00000000000E+00  0.00000000000E+00  0.10607115550E+03  0.10607115550E+03  0.00000000000E+00 0.  1.
          2   -1    0    0  501    0  0.00000000000E+00 -0.00000000000E+00 -0.20049077954E+03  0.20049077954E+03  0.00000000000E+00 0. -1.
          5    1    1    2  502    0 -0.24453059653E+02  0.37421078267E+02  0.22290862978E+02  0.50172321028E+02  0.47000000000E+01 0.  1.
         -5    1    1    2    0  502 -0.36029822137E+02 -0.90617084275E+02 -0.14675984206E+02  0.98727293886E+02  0.47000000000E+01 0.  1.
        -11    1    1    2    0    0  0.12047929464E+02  0.64920627832E+02 -0.78421532822E+02  0.10251720506E+03  0.00000000000E+00 0. -1.
         11    1    1    2    0    0  0.48434952326E+02 -0.11724621824E+02 -0.23612969990E+02  0.55145115065E+02  0.00000000000E+00 0.  1.
<mgrwt>
<rscale>  0 0.14099818E+03</rscale>
<asrwt>0</asrwt>
<pdfrwt beam="2">  1        2 0.30844735E-01 0.14870477E+03</pdfrwt>
<pdfrwt beam="1">  1       -2 0.16318639E-01 0.14870477E+03</pdfrwt>
<totfact> 0.48626340E+03</totfact>
</mgrwt>
</event>
<event>
 6    1  0.7457796E-006  0.1277187E+03  0.7546771E-02  0.1245708E+00
         -1   -1    0    0    0  501 -0.00000000000E+00  0.00000000000E+00  0.40390613038E+02  0.40390613038E+02  0.00000000000E+00 0.  1.
          1   -1    0    0  501    0  0.00000000000E+00 -0.00000000000E+00 -0.31722269920E+03  0.31722269920E+03  0.00000000000E+00 0. -1.
          5    1    1    2  502    0 -0.42228109131E+02 -0.56640694185E+02 -0.36763183026E+02  0.79780969314E+02  0.47000000000E+01 0.  1.
         -5    1    1    2    0  502  0.29297016875E+02  0.33861189478E+02 -0.87554654606E+02  0.98452033467E+02  0.47000000000E+01 0.  1.
        -11    1    1    2    0    0  0.49153197413E+02  0.42318104453E+00 -0.60154440054E+02  0.77683798545E+02  0.00000000000E+00 0.  1.
         11    1    1    2    0    0 -0.36222105158E+02  0.22356323663E+02 -0.92359808477E+02  0.10169651091E+03  0.00000000000E+00 0. -1.
<mgrwt>
<rscale>  0 0.11843130E+03</rscale>
<asrwt>0</asrwt>
<pdfrwt beam="2">  1        1 0.48803494E-01 0.12771875E+03</pdfrwt>
<pdfrwt beam="1">  1       -1 0.62139403E-02 0.12771875E+03</pdfrwt>
<totfact> 0.97443160E+03</totfact>
</mgrwt>
</event>
<event>
 6    1  0.1035298E-005  0.1449479E+03  0.7546771E-02  0.1216185E+00
          3   -1    0    0  501    0  0.00000000000E+00  0.00000000000E+00  0.20904821700E+03  0.20904821700E+03  0.00000000000E+00 0. -1.
         -3   -1    0    0    0  501 -0.00000000000E+00 -0.00000000000E+00 -0.83228856288E+02  0.83228856288E+02  0.00000000000E+00 0.  1.
          5    1    1    2  502    0  0.12620208704E+02 -0.37669328066E+02 -0.29234810609E+02  0.49548078631E+02  0.47000000000E+01 0.  1.
         -5    1    1    2    0  502  0.54733730663E+02  0.85451245971E+01  0.94001431602E+02  0.10921153588E+03  0.47000000000E+01 0.  1.
        -11    1    1    2    0    0  0.10868813938E+02 -0.13531270028E+01 -0.16117720144E+02  0.19486994939E+02  0.00000000000E+00 0.  1.
         11    1    1    2    0    0 -0.78222753305E+02  0.30477330472E+02  0.77170459869E+02  0.11403046384E+03  0.00000000000E+00 0. -1.
<mgrwt>
<rscale>  0 0.13789844E+03</rscale>
<asrwt>0</asrwt>
<pdfrwt beam="1">  1        3 0.32161264E-01 0.14494792E+03</pdfrwt>
<pdfrwt beam="2">  1       -3 0.12804439E-01 0.14494792E+03</pdfrwt>
<totfact> 0.10682591E+03</totfact>
</mgrwt>
</event>
<event>
 6    1  0.7457796E-006  0.1489588E+03  0.7546771E-02  0.1211229E+00
          2   -1    0    0  501    0  0.00000000000E+00  0.00000000000E+00  0.61867709334E+03  0.61867709334E+03  0.00000000000E+00 0. -1.
         -2   -1    0    0    0  501 -0.00000000000E+00 -0.00000000000E+00 -0.30580721198E+02  0.30580721198E+02  0.00000000000E+00 0.  1.
          5    1    1    2  502    0 -0.81994791596E+02  0.65695951183E+02  0.17503117781E+03  0.20419869504E+03  0.47000000000E+01 0.  1.
         -5    1    1    2    0  502  0.42841624751E+01 -0.42781849885E+02  0.89008304836E+02  0.98960643982E+02  0.47000000000E+01 0.  1.
        -11    1    1    2    0    0  0.86931184905E+01  0.20488424900E+02  0.15935969019E+02  0.27373362463E+02  0.00000000000E+00 0.  1.
         11    1    1    2    0    0  0.69017510631E+02 -0.43402526198E+02  0.30812092048E+03  0.31872511305E+03  0.00000000000E+00 0. -1.
<mgrwt>
<rscale>  0 0.14157188E+03</rscale>
<asrwt>0</asrwt>
<pdfrwt beam="1">  1        2 0.95181082E-01 0.14895884E+03</pdfrwt>
<pdfrwt beam="2">  1       -2 0.47047268E-02 0.14895884E+03</pdfrwt>
<totfact> 0.10051140E+04</totfact>
</mgrwt>
</event>
<event>
 6    1  0.7457796E-006  0.2289207E+03  0.7546771E-02  0.1130498E+00
         -2   -1    0    0    0  501 -0.00000000000E+00  0.00000000000E+00  0.53047732430E+02  0.53047732430E+02  0.00000000000E+00 0.  1.
          2   -1    0    0  501    0  0.00000000000E+00 -0.00000000000E+00 -0.11411166051E+04  0.11411166051E+04  0.00000000000E+00 0. -1.
          5    1    1    2  502    0 -0.34489423648E+02 -0.28563171401E+02 -0.52832621625E+01  0.45336276458E+02  0.47000000000E+01 0.  1.
         -5    1    1    2    0  502 -0.38826546635E+02 -0.14865060205E+03 -0.29078511418E+03  0.32891119598E+03  0.47000000000E+01 0.  1.
        -11    1    1    2    0    0  0.69408621772E+02  0.83286163855E+02 -0.54395899747E+03  0.55465803230E+03  0.00000000000E+00 0. -1.
         11    1    1    2    0    0  0.39073485101E+01  0.93927609597E+02 -0.24804149883E+03  0.26525883276E+03  0.00000000000E+00 0.  1.
<mgrwt>
<rscale>  0 0.22460220E+03</rscale>
<asrwt>0</asrwt>
<pdfrwt beam="2">  1        2 0.17555638E+00 0.22892070E+03</pdfrwt>
<pdfrwt beam="1">  1       -2 0.81611904E-02 0.22892070E+03</pdfrwt>
<totfact> 0.19785799E+03</totfact>
</mgrwt>
</event>
<event>
 6    1  0.7457796E-006  0.1331073E+03  0.7546771E-02  0.1234873E+00
          2   -1    0    0  501    0  0.00000000000E+00  0.00000000000E+00  0.49557702579E+03  0.49557702579E+03  0.00000000000E+00 0. -1.
         -2   -1    0    0    0  501 -0.00000000000E+00 -0.00000000000E+00 -0.28784318635E+02  0.28784318635E+02  0.00000000000E+00 0.  1.
          5    1    1    2  502    0  0.43942569750E+02 -0.63284266835E+02  0.11603050811E+03  0.13935930782E+03  0.47000000000E+01 0. -1.
         -5    1    1    2    0  502 -0.40187115704E+00  0.54448088185E+02  0.11354061827E+03  0.12600919730E+03  0.47000000000E+01 0.  1.
        -11    1    1    2    0    0 -0.10088983043E+02  0.45033420261E+02  0.16659275764E+03  0.17286683724E+03  0.00000000000E+00 0.  1.
         11    1    1    2    0    0 -0.33451715550E+02 -0.36197241611E+02  0.70628823140E+02  0.86126002065E+02  0.00000000000E+00 0. -1.
<mgrwt>
<rscale>  0 0.12512538E+03</rscale>
<asrwt>0</asrwt>
<pdfrwt beam="1">  1        2 0.76242613E-01 0.13310726E+03</pdfrwt>
<pdfrwt beam="2">  1       -2 0.44283571E-02 0.13310726E+03</pdfrwt>
<totfact> 0.13999907E+04</totfact>
</mgrwt>
</event>
<event>
 6    1  0.7457796E-006  0.2332959E+03  0.7546771E-02  0.1124341E+00
          2   -1    0    0  501    0  0.00000000000E+00  0.00000000000E+00  0.82138145342E+03  0.82138145342E+03  0.00000000000E+00 0. -1.
         -2   -1    0    0    0  501 -0.00000000000E+00 -0.00000000000E+00 -0.16565684622E+02  0.16565684622E+02  0.00000000000E+00 0.  1.
          5    1    1    2  502    0 -0.23142392028E+02  0.64089289548E+00  0.90158379490E+01  0.25285497551E+02  0.47000000000E+01 0. -1.
         -5    1    1    2    0  502  0.37906057890E+02 -0.40850016186E+02  0.41749921023E+03  0.42122829154E+03  0.47000000000E+01 0. -1.
        -11    1    1    2    0    0  0.29952770791E+02  0.45676525932E+02  0.23258748604E+03  0.23891515683E+03  0.00000000000E+00 0.  1.
         11    1    1    2    0    0 -0.44716436653E+02 -0.54674026416E+01  0.14571323458E+03  0.15251819213E+03  0.00000000000E+00 0. -1.
<mgrwt>
<rscale>  0 0.23329592E+03</rscale>
<asrwt>0</asrwt>
<pdfrwt beam="1">  1        2 0.12636635E+00 0.23329592E+03</pdfrwt>
<pdfrwt beam="2">  1       -2 0.25485675E-02 0.23329592E+03</pdfrwt>
<totfact> 0.18274372E+04</totfact>
</mgrwt>
</event>
<event>
 6    1  0.7457796E-006  0.1938498E+03  0.7546771E-02  0.1159155E+00
         -2   -1    0    0    0  501 -0.00000000000E+00  0.00000000000E+00  0.49996976845E+03  0.49996976845E+03  0.00000000000E+00 0.  1.
          2   -1    0    0  501    0  0.00000000000E+00 -0.00000000000E+00 -0.75465556215E+02  0.75465556215E+02  0.00000000000E+00 0. -1.
          5    1    1    2  502    0 -0.12290094553E+02  0.11527260151E+03  0.21470415380E+03  0.24404668148E+03  0.47000000000E+01 0.  1.
         -5    1    1    2    0  502 -0.75155811344E+02  0.43373870808E+01  0.94696620803E+02  0.12106506059E+03  0.47000000000E+01 0.  1.
        -11    1    1    2    0    0  0.71044338178E+01 -0.30103775132E+02  0.78855844695E+02  0.84705103150E+02  0.00000000000E+00 0. -1.
         11    1    1    2    0    0  0.80341472078E+02 -0.89506213457E+02  0.36247592938E+02  0.12561847944E+03  0.00000000000E+00 0.  1.
<mgrwt>
<rscale>  0 0.18923298E+03</rscale>
<asrwt>0</asrwt>
<pdfrwt beam="2">  1        2 0.11610086E-01 0.19384980E+03</pdfrwt>
<pdfrwt beam="1">  1       -2 0.76918424E-01 0.19384980E+03</pdfrwt>
<totfact> 0.81963106E+02</totfact>
</mgrwt>
</event>
<event>
 6    1  0.7457796E-006  0.2573763E+03  0.7546771E-02  0.1108730E+00
          1   -1    0    0  501    0  0.00000000000E+00  0.00000000000E+00  0.21699052149E+02  0.21699052149E+02  0.00000000000E+00 0. -1.
         -1   -1    0    0    0  501 -0.00000000000E+00 -0.00000000000E+00 -0.76319661463E+03  0.76319661463E+03  0.00000000000E+00 0.  1.
          5    1    1    2  502    0  0.28595768370E+01  0.28638713511E+01  0.59550113918E+01  0.85983195730E+01  0.47000000000E+01 0. -1.
         -5    1    1    2    0  502  0.19061093696E+02 -0.68134547595E+02 -0.52277117427E+03  0.52755798972E+03  0.47000000000E+01 0. -1.
        -11    1    1    2    0    0 -0.23852843141E+02  0.81939544813E+02 -0.20908200642E+03  0.22582810396E+03  0.00000000000E+00 0.  1.
         11    1    1    2    0    0  0.19321726078E+01 -0.16668868570E+02 -0.15599393176E+02  0.22911253519E+02  0.00000000000E+00 0. -1.
<mgrwt>
<rscale>  0 0.25737632E+03</rscale>
<asrwt>0</asrwt>
<pdfrwt beam="1">  1        1 0.33383161E-02 0.25737632E+03</pdfrwt>
<pdfrwt beam="2">  1       -1 0.11741485E+00 0.25737632E+03</pdfrwt>
<totfact> 0.20358712E+03</totfact>
</mgrwt>
</event>
<event>
 6    1  0.7457796E-006  0.1605768E+03  0.7546771E-02  0.1196177E+00
          1   -1    0    0  501    0  0.00000000000E+00  0.00000000000E+00  0.97183568936E+03  0.97183568936E+03  0.00000000000E+00 0. -1.
         -1   -1    0    0    0  501 -0.00000000000E+00 -0.00000000000E+00 -0.22777878172E+02  0.22777878172E+02  0.00000000000E+00 0.  1.
          5    1    1    2  502    0 -0.89179204909E+02 -0.29459845586E+02  0.24981636814E+03  0.26692905590E+03  0.47000000000E+01 0. -1.
         -5    1    1    2    0  502 -0.47884664572E+01  0.65931693241E+02  0.19940223583E+03  0.21012676945E+03  0.47000000000E+01 0. -1.
        -11    1    1    2    0    0  0.10930701079E+03 -0.23572976288E+02  0.45326756094E+03  0.46685671208E+03  0.00000000000E+00 0. -1.
         11    1    1    2    0    0 -0.15339339425E+02 -0.12898871366E+02  0.46571646276E+02  0.50701030102E+02  0.00000000000E+00 0.  1.
<mgrwt>
<rscale>  0 0.15355072E+03</rscale>
<asrwt>0</asrwt>
<pdfrwt beam="1">  1        1 0.14951315E+00 0.16057679E+03</pdfrwt>
<pdfrwt beam="2">  1       -1 0.35042897E-02 0.16057679E+03</pdfrwt>
<totfact> 0.49410310E+03</totfact>
</mgrwt>
</event>
<event>
 6    1  0.7457796E-006  0.1332091E+03  0.7546771E-02  0.1236208E+00
         -2   -1    0    0    0  501 -0.00000000000E+00  0.00000000000E+00  0.96160840365E+02  0.96160840365E+02  0.00000000000E+00 0.  1.
          2   -1    0    0  501    0  0.00000000000E+00 -0.00000000000E+00 -0.15207026313E+03  0.15207026313E+03  0.00000000000E+00 0. -1.
          5    1    1    2  502    0 -0.35866179766E+02 -0.24714125650E+02 -0.36624686054E+02  0.57101913157E+02  0.47000000000E+01 0.  1.
         -5    1    1    2    0  502  0.66195713878E+02 -0.99246464452E+01  0.35918364615E+02  0.76109066868E+02  0.47000000000E+01 0.  1.
        -11    1    1    2    0    0 -0.44167174755E+02  0.20359732898E+02 -0.73410869954E+02  0.88059149876E+02  0.00000000000E+00 0. -1.
         11    1    1    2    0    0  0.13837640643E+02  0.14279039197E+02  0.18207768625E+02  0.26960973596E+02  0.00000000000E+00 0.  1.
<mgrwt>
<rscale>  0 0.12427418E+03</rscale>
<asrwt>0</asrwt>
<pdfrwt beam="2">  1        2 0.23395425E-01 0.13320911E+03</pdfrwt>
<pdfrwt beam="1">  1       -2 0.14793976E-01 0.13320911E+03</pdfrwt>
<totfact> 0.76787716E+03</totfact>
</mgrwt>
</event>
<event>
 6    1  0.7457796E-006  0.2292825E+03  0.7546771E-02  0.1127146E+00
         -3   -1    0    0    0  501 -0.00000000000E+00  0.00000000000E+00  0.54734970055E+02  0.54734970055E+02  0.00000000000E+00 0.  1.
          3   -1    0    0  501    0  0.00000000000E+00 -0.00000000000E+00 -0.24011377680E+03  0.24011377680E+03  0.00000000000E+00 0. -1.
          5    1    1    2  502    0 -0.40939519941E+02 -0.12156650330E+02  0.15524056319E+02  0.45682762229E+02  0.47000000000E+01 0.  1.
         -5    1    1    2    0  502  0.38167550562E+01  0.70924071713E+01 -0.12305044968E+03  0.12340329423E+03  0.47000000000E+01 0.  1.
        -11    1    1    2    0    0  0.35761583226E+01  0.22492065645E+02 -0.84380274724E+02  0.87399729334E+02  0.00000000000E+00 0. -1.
         11    1    1    2    0    0  0.33546606562E+02 -0.17427822486E+02  0.65278613385E+01  0.38362961070E+02  0.00000000000E+00 0.  1.
<mgrwt>
<rscale>  0 0.22928254E+03</rscale>
<asrwt>0</asrwt>
<pdfrwt beam="2">  1        3 0.36940582E-01 0.22928254E+03</pdfrwt>
<pdfrwt beam="1">  1       -3 0.84207645E-02 0.22928254E+03</pdfrwt>
<totfact> 0.17691407E+03</totfact>
</mgrwt>
</event>
<event>
 6    1  0.7457796E-006  0.1276679E+03  0.7546771E-02  0.1245917E+00
         -1   -1    0    0    0  501 -0.00000000000E+00  0.00000000000E+00  0.34440984137E+02  0.34440984137E+02  0.00000000000E+00 0.  1.
          1   -1    0    0  501    0  0.00000000000E+00 -0.00000000000E+00 -0.35962805462E+03  0.35962805462E+03  0.00000000000E+00 0. -1.
          5    1    1    2  502    0 -0.36518210495E+02  0.25342023267E+02 -0.11476037033E+03  0.12315774616E+03  0.47000000000E+01 0.  1.
         -5    1    1    2    0  502  0.59192811829E+02 -0.38052788040E+02 -0.56018965506E+02  0.90066742731E+02  0.47000000000E+01 0.  1.
        -11    1    1    2    0    0 -0.13145634253E+02 -0.39199401818E+02 -0.69730671006E+02  0.81066437455E+02  0.00000000000E+00 0. -1.
         11    1    1    2    0    0 -0.95289670815E+01  0.51910166591E+02 -0.84677063635E+02  0.99778112404E+02  0.00000000000E+00 0.  1.
<mgrwt>
<rscale>  0 0.11830660E+03</rscale>
<asrwt>0</asrwt>
<pdfrwt beam="2">  1        1 0.55327391E-01 0.12766793E+03</pdfrwt>
<pdfrwt beam="1">  1       -1 0.52986132E-02 0.12766793E+03</pdfrwt>
<totfact> 0.10563043E+04</totfact>
</mgrwt>
</event>
<event>
 6    1  0.7457796E-006  0.1267844E+03  0.7546771E-02  0.1248807E+00
         -2   -1    0    0    0  501 -0.00000000000E+00  0.00000000000E+00  0.25051033488E+02  0.25051033488E+02  0.00000000000E+00 0.  1.
          2   -1    0    0  501    0  0.00000000000E+00 -0.00000000000E+00 -0.48241725332E+03  0.48241725332E+03  0.00000000000E+00 0. -1.
          5    1    1    2  502    0 -0.87887654089E+01  0.22586196086E+02 -0.23826854933E+03  0.23954408833E+03  0.47000000000E+01 0.  1.
         -5    1    1    2    0  502 -0.11434137911E+02 -0.16224550019E+02  0.91172492113E+01  0.22342555052E+02  0.47000000000E+01 0.  1.
        -11    1    1    2    0    0  0.46337058039E+02 -0.28441332086E+02 -0.11301370796E+03  0.12541184356E+03  0.00000000000E+00 0.  1.
         11    1    1    2    0    0 -0.26114154719E+02  0.22079686019E+02 -0.11520121175E+03  0.12016979987E+03  0.00000000000E+00 0. -1.
<mgrwt>
<rscale>  0 0.11660394E+03</rscale>
<asrwt>0</asrwt>
<pdfrwt beam="2">  1        2 0.74218031E-01 0.12678445E+03</pdfrwt>
<pdfrwt beam="1">  1       -2 0.38540056E-02 0.12678445E+03</pdfrwt>
<totfact> 0.17653094E+04</totfact>
</mgrwt>
</event>
<event>
 6    1  0.7457796E-006  0.1265510E+03  0.7546771E-02  0.1247582E+00
         -1   -1    0    0    0  501 -0.00000000000E+00  0.00000000000E+00  0.21530271937E+03  0.21530271937E+03  0.00000000000E+00 0.  1.
          1   -1    0    0  501    0  0.00000000000E+00 -0.00000000000E+00 -0.56483473443E+02  0.56483473443E+02  0.00000000000E+00 0. -1.
          5    1    1    2  502    0 -0.60184309693E+02 -0.29802405084E+02  0.62606462904E+02  0.91934725101E+02  0.47000000000E+01 0.  1.
         -5    1    1    2    0  502  0.42930110124E+02  0.39409646464E+02  0.37940761409E+02  0.69697245038E+02  0.47000000000E+01 0.  1.
        -11    1    1    2    0    0 -0.18543306961E+02  0.23921975725E+02 -0.43846363106E+01  0.30583331918E+02  0.00000000000E+00 0. -1.
         11    1    1    2    0    0  0.35797506530E+02 -0.33529217105E+02  0.62656657922E+02  0.79570890754E+02  0.00000000000E+00 0.  1.
<mgrwt>
<rscale>  0 0.11732151E+03</rscale>
<asrwt>0</asrwt>
<pdfrwt beam="2">  1        1 0.86897653E-02 0.12655098E+03</pdfrwt>
<pdfrwt beam="1">  1       -1 0.33123495E-01 0.12655098E+03</pdfrwt>
<totfact> 0.63128596E+03</totfact>
</mgrwt>
</event>
<event>
 6    1  0.7457796E-006  0.1465192E+03  0.7546771E-02  0.1214543E+00
         -3   -1    0    0    0  501 -0.00000000000E+00  0.00000000000E+00  0.47008814443E+03  0.47008814443E+03  0.00000000000E+00 0.  1.
          3   -1    0    0  501    0  0.00000000000E+00 -0.00000000000E+00 -0.52623927253E+02  0.52623927253E+02  0.00000000000E+00 0. -1.
          5    1    1    2  502    0 -0.75758911259E+02  0.33435798374E+02  0.18985186483E+03  0.20717911532E+03  0.47000000000E+01 0. -1.
         -5    1    1    2    0  502  0.51266455585E+01 -0.62654999825E+02  0.17385398543E+03  0.18493033755E+03  0.47000000000E+01 0. -1.
        -11    1    1    2    0    0  0.83316689015E+02  0.82118962739E+01  0.62580978058E+02  0.10452504352E+03  0.00000000000E+00 0.  1.
         11    1    1    2    0    0 -0.12684423314E+02  0.21007305176E+02 -0.88226111341E+01  0.26077575286E+02  0.00000000000E+00 0. -1.
<mgrwt>
<rscale>  0 0.13910123E+03</rscale>
<asrwt>0</asrwt>
<pdfrwt beam="2">  1        3 0.80959891E-02 0.14651921E+03</pdfrwt>
<pdfrwt beam="1">  1       -3 0.72321250E-01 0.14651921E+03</pdfrwt>
<totfact> 0.45540113E+02</totfact>
</mgrwt>
</event>
<event>
 6    1  0.7457796E-006  0.1379660E+03  0.7546771E-02  0.1223695E+00
          2   -1    0    0  501    0  0.00000000000E+00  0.00000000000E+00  0.33162996130E+03  0.33162996130E+03  0.00000000000E+00 0. -1.
         -2   -1    0    0    0  501 -0.00000000000E+00 -0.00000000000E+00 -0.52180303965E+02  0.52180303965E+02  0.00000000000E+00 0.  1.
          5    1    1    2  502    0 -0.57792202715E+02 -0.26655341043E+02  0.11752842230E+03  0.13373655428E+03  0.47000000000E+01 0. -1.
         -5    1    1    2    0  502 -0.17932920295E+02  0.32505944695E+02 -0.12721049374E+02  0.39523931586E+02  0.47000000000E+01 0.  1.
        -11    1    1    2    0    0  0.39781070773E+02 -0.35434782539E+02  0.14712191328E+03  0.15647049170E+03  0.00000000000E+00 0. -1.
         11    1    1    2    0    0  0.35944052237E+02  0.29584178887E+02  0.27520371125E+02  0.54079287703E+02  0.00000000000E+00 0.  1.
<mgrwt>
<rscale>  0 0.13256742E+03</rscale>
<asrwt>0</asrwt>
<pdfrwt beam="1">  1        2 0.51019993E-01 0.13796598E+03</pdfrwt>
<pdfrwt beam="2">  1       -2 0.80277393E-02 0.13796598E+03</pdfrwt>
<totfact> 0.87626414E+03</totfact>
</mgrwt>
</event>
<event>
 6    1  0.7457796E-006  0.1483889E+03  0.7546771E-02  0.1212197E+00
          2   -1    0    0  501    0  0.00000000000E+00  0.00000000000E+00  0.16749362441E+03  0.16749362441E+03  0.00000000000E+00 0. -1.
         -2   -1    0    0    0  501 -0.00000000000E+00 -0.00000000000E+00 -0.10789081715E+03  0.10789081715E+03  0.00000000000E+00 0.  1.
          5    1    1    2  502    0 -0.72199574879E+02 -0.15695189576E+02  0.48973372346E+02  0.88767104197E+02  0.47000000000E+01 0.  1.
         -5    1    1    2    0  502  0.54114085810E+01  0.59670080308E+02 -0.18169032620E+02  0.62785392992E+02  0.47000000000E+01 0.  1.
        -11    1    1    2    0    0  0.81115534788E+02 -0.15341343587E+02  0.28220435496E+01  0.82601759889E+02  0.00000000000E+00 0.  1.
         11    1    1    2    0    0 -0.14327368490E+02 -0.28633547146E+02  0.25976423986E+02  0.41230184490E+02  0.00000000000E+00 0. -1.
<mgrwt>
<rscale>  0 0.14084475E+03</rscale>
<asrwt>0</asrwt>
<pdfrwt beam="1">  1        2 0.25768250E-01 0.14838885E+03</pdfrwt>
<pdfrwt beam="2">  1       -2 0.16598587E-01 0.14838885E+03</pdfrwt>
<totfact> 0.57532280E+03</totfact>
</mgrwt>
</event>
<event>
 6    1  0.7457796E-006  0.1615706E+03  0.7546771E-02  0.1194004E+00
         -1   -1    0    0    0  501 -0.00000000000E+00  0.00000000000E+00  0.85573201783E+03  0.85573201783E+03  0.00000000000E+00 0.  1.
          1   -1    0    0  501    0  0.00000000000E+00 -0.00000000000E+00 -0.27316210903E+02  0.27316210903E+02  0.00000000000E+00 0. -1.
          5    1    1    2  502    0 -0.17418071993E+02  0.23299594182E+02  0.12533711288E+03  0.12875458123E+03  0.47000000000E+01 0.  1.
         -5    1    1    2    0  502  0.59206340960E+02 -0.11675044528E+03  0.40655680139E+03  0.42713765936E+03  0.47000000000E+01 0.  1.
        -11    1    1    2    0    0 -0.35901535263E+02 -0.71364920557E+01  0.63734276372E+02  0.73497671649E+02  0.00000000000E+00 0. -1.
         11    1    1    2    0    0 -0.58867337028E+01  0.10058734315E+03  0.23278761628E+03  0.25365831650E+03  0.00000000000E+00 0.  1.
<mgrwt>
<rscale>  0 0.15538796E+03</rscale>
<asrwt>0</asrwt>
<pdfrwt beam="2">  1        1 0.42024946E-02 0.16157056E+03</pdfrwt>
<pdfrwt beam="1">  1       -1 0.13165106E+00 0.16157056E+03</pdfrwt>
<totfact> 0.11043056E+03</totfact>
</mgrwt>
</event>
<event>
 6    1  0.7457796E-006  0.2611421E+03  0.7546771E-02  0.1106459E+00
          2   -1    0    0  501    0  0.00000000000E+00  0.00000000000E+00  0.88690616013E+02  0.88690616013E+02  0.00000000000E+00 0. -1.
         -2   -1    0    0    0  501 -0.00000000000E+00 -0.00000000000E+00 -0.19222779910E+03  0.19222779910E+03  0.00000000000E+00 0.  1.
          5    1    1    2  502    0  0.56580403806E+02  0.24763091583E+02  0.10573725089E+02  0.62836664949E+02  0.47000000000E+01 0.  1.
         -5    1    1    2    0  502 -0.55390986360E+01  0.11762430526E+02 -0.10504702508E+03  0.10595283792E+03  0.47000000000E+01 0.  1.
        -11    1    1    2    0    0  0.96806539735E+01 -0.39281308678E+02  0.19565890345E+02  0.44939518665E+02  0.00000000000E+00 0.  1.
         11    1    1    2    0    0 -0.60721959144E+02  0.27557865690E+01 -0.28629773441E+02  0.67189393576E+02  0.00000000000E+00 0. -1.
<mgrwt>
<rscale>  0 0.26114212E+03</rscale>
<asrwt>0</asrwt>
<pdfrwt beam="1">  1        2 0.13644710E-01 0.26114212E+03</pdfrwt>
<pdfrwt beam="2">  1       -2 0.29573508E-01 0.26114212E+03</pdfrwt>
<totfact> 0.45455364E+03</totfact>
</mgrwt>
</event>
<event>
 6    1  0.7457796E-006  0.1400639E+03  0.7546771E-02  0.1226315E+00
         -1   -1    0    0    0  501 -0.00000000000E+00  0.00000000000E+00  0.27042423275E+02  0.27042423275E+02  0.00000000000E+00 0.  1.
          1   -1    0    0  501    0  0.00000000000E+00 -0.00000000000E+00 -0.56398322725E+03  0.56398322725E+03  0.00000000000E+00 0. -1.
          5    1    1    2  502    0 -0.14893958983E+02 -0.88809350501E+02 -0.18099894813E+03  0.20221681427E+03  0.47000000000E+01 0. -1.
         -5    1    1    2    0  502  0.39156169897E+02  0.30502657045E+02 -0.10539907083E+03  0.11659619144E+03  0.47000000000E+01 0. -1.
        -11    1    1    2    0    0 -0.29686786146E+02 -0.14011057126E+02 -0.61039736288E+02  0.69307029944E+02  0.00000000000E+00 0.  1.
         11    1    1    2    0    0  0.54245752314E+01  0.72317750582E+02 -0.18950304873E+03  0.20290561486E+03  0.00000000000E+00 0. -1.
<mgrwt>
<rscale>  0 0.13077180E+03</rscale>
<asrwt>0</asrwt>
<pdfrwt beam="2">  1        1 0.86766651E-01 0.14006394E+03</pdfrwt>
<pdfrwt beam="1">  1       -1 0.41603728E-02 0.14006394E+03</pdfrwt>
<totfact> 0.85231504E+03</totfact>
</mgrwt>
</event>
<event>
 6    1  0.7457796E-006  0.2474921E+03  0.7546771E-02  0.1114900E+00
          2   -1    0    0  501    0  0.00000000000E+00  0.00000000000E+00  0.86424054421E+03  0.86424054421E+03  0.00000000000E+00 0. -1.
         -2   -1    0    0    0  501 -0.00000000000E+00 -0.00000000000E+00 -0.17718549894E+02  0.17718549894E+02  0.00000000000E+00 0.  1.
          5    1    1    2  502    0  0.75776599321E+02  0.60655069944E+02  0.37430398473E+03  0.38671267564E+03  0.47000000000E+01 0.  1.
         -5    1    1    2    0  502 -0.34897909996E+02 -0.19905691545E+02  0.16666940738E+03  0.17150767340E+03  0.47000000000E+01 0.  1.
        -11    1    1    2    0    0  0.12051439016E+02 -0.49405788683E+02  0.18368974108E+03  0.19059929202E+03  0.00000000000E+00 0. -1.
         11    1    1    2    0    0 -0.52930128341E+02  0.86564102836E+01  0.12185886113E+03  0.13313945306E+03  0.00000000000E+00 0.  1.
<mgrwt>
<rscale>  0 0.24749213E+03</rscale>
<asrwt>0</asrwt>
<pdfrwt beam="1">  1        2 0.13296005E+00 0.24749213E+03</pdfrwt>
<pdfrwt beam="2">  1       -2 0.27259314E-02 0.24749213E+03</pdfrwt>
<totfact> 0.15533190E+04</totfact>
</mgrwt>
</event>
<event>
 6    1  0.7457796E-006  0.1251574E+03  0.7546771E-02  0.1249575E+00
          3   -1    0    0  501    0  0.00000000000E+00  0.00000000000E+00  0.93859858208E+02  0.93859858208E+02  0.00000000000E+00 0. -1.
         -3   -1    0    0    0  501 -0.00000000000E+00 -0.00000000000E+00 -0.12796007863E+03  0.12796007863E+03  0.00000000000E+00 0.  1.
          5    1    1    2  502    0 -0.30787291506E+02 -0.45056215791E+02 -0.36121921111E+02  0.65610998197E+02  0.47000000000E+01 0.  1.
         -5    1    1    2    0  502  0.24477255948E+02  0.46679293198E+02  0.27890212567E+02  0.59816773811E+02  0.47000000000E+01 0.  1.
        -11    1    1    2    0    0 -0.14186256363E+02  0.41562974018E+02 -0.48910228926E+01  0.44188830984E+02  0.00000000000E+00 0. -1.
         11    1    1    2    0    0  0.20496291922E+02 -0.43186051424E+02 -0.20977488982E+02  0.52203333841E+02  0.00000000000E+00 0.  1.
<mgrwt>
<rscale>  0 0.11615690E+03</rscale>
<asrwt>0</asrwt>
<pdfrwt beam="1">  1        3 0.14439978E-01 0.12515736E+03</pdfrwt>
<pdfrwt beam="2">  1       -3 0.19686166E-01 0.12515736E+03</pdfrwt>
<totfact> 0.20660641E+03</totfact>
</mgrwt>
</event>
<event>
 6    1  0.7457796E-006  0.1453044E+03  0.7546771E-02  0.1215751E+00
         -4   -1    0    0    0  501 -0.00000000000E+00  0.00000000000E+00  0.95008626980E+02  0.95008626980E+02  0.00000000000E+00 0.  1.
          4   -1    0    0  501    0  0.00000000000E+00 -0.00000000000E+00 -0.19665624172E+03  0.19665624172E+03  0.00000000000E+00 0. -1.
          5    1    1    2  502    0  0.12425202227E+02 -0.67639610919E+01 -0.10750728156E+03  0.10853590378E+03  0.47000000000E+01 0. -1.
         -5    1    1    2    0  502  0.61646168748E+02  0.58960451775E+01  0.14773404978E+02  0.63838522576E+02  0.47000000000E+01 0. -1.
        -11    1    1    2    0    0 -0.80404871696E+02  0.19595924213E+02 -0.32148232420E+02  0.88783176819E+02  0.00000000000E+00 0. -1.
         11    1    1    2    0    0  0.63335007214E+01 -0.18728008299E+02  0.23234494264E+02  0.30507265527E+02  0.00000000000E+00 0.  1.
<mgrwt>
<rscale>  0 0.13821543E+03</rscale>
<asrwt>0</asrwt>
<pdfrwt beam="2">  1        4 0.30254806E-01 0.14530441E+03</pdfrwt>
<pdfrwt beam="1">  1       -4 0.14616712E-01 0.14530441E+03</pdfrwt>
<totfact> 0.69235559E+02</totfact>
</mgrwt>
</event>
<event>
 6    1  0.7457796E-006  0.1261973E+03  0.7546771E-02  0.1247513E+00
         -2   -1    0    0    0  501 -0.00000000000E+00  0.00000000000E+00  0.34593656225E+02  0.34593656225E+02  0.00000000000E+00 0.  1.
          2   -1    0    0  501    0  0.00000000000E+00 -0.00000000000E+00 -0.35386878314E+03  0.35386878314E+03  0.00000000000E+00 0. -1.
          5    1    1    2  502    0  0.17587814171E+02  0.58498934397E+02 -0.68100998056E+02  0.91603998107E+02  0.47000000000E+01 0.  1.
         -5    1    1    2    0  502 -0.34223624603E+02 -0.53656548885E+02 -0.99260297159E+02  0.11800414531E+03  0.47000000000E+01 0.  1.
        -11    1    1    2    0    0  0.57372259674E+01 -0.36719065474E+02 -0.19004155633E+02  0.41741627453E+02  0.00000000000E+00 0.  1.
         11    1    1    2    0    0  0.10898584465E+02  0.31876679962E+02 -0.13290967607E+03  0.13711266849E+03  0.00000000000E+00 0. -1.
<mgrwt>
<rscale>  0 0.11736234E+03</rscale>
<asrwt>0</asrwt>
<pdfrwt beam="2">  1        2 0.54441349E-01 0.12619735E+03</pdfrwt>
<pdfrwt beam="1">  1       -2 0.53221012E-02 0.12619735E+03</pdfrwt>
<totfact> 0.15193543E+04</totfact>
</mgrwt>
</event>
<event>
 6    1  0.7457796E-006  0.2912521E+03  0.7546771E-02  0.1089697E+00
          2   -1    0    0  501    0  0.00000000000E+00  0.00000000000E+00  0.16523424940E+03  0.16523424940E+03  0.00000000000E+00 0.  1.
         -2   -1    0    0    0  501 -0.00000000000E+00 -0.00000000000E+00 -0.12834471854E+03  0.12834471854E+03  0.00000000000E+00 0. -1.
          5    1    1    2  502    0 -0.82965190684E+02  0.19010245422E+02 -0.57843702581E+02  0.10301745592E+03  0.47000000000E+01 0. -1.
         -5    1    1    2    0  502  0.61476962590E+01  0.27368203701E+02  0.43011161273E+02  0.51564161364E+02  0.47000000000E+01 0. -1.
        -11    1    1    2    0    0  0.48104609456E+02  0.22243239031E+02  0.32491448853E+02  0.62165178212E+02  0.00000000000E+00 0.  1.
         11    1    1    2    0    0  0.28712884969E+02 -0.68621688154E+02  0.19230623318E+02  0.76832172438E+02  0.00000000000E+00 0. -1.
<mgrwt>
<rscale>  0 0.29125208E+03</rscale>
<asrwt>0</asrwt>
<pdfrwt beam="1">  1        2 0.25420654E-01 0.29125208E+03</pdfrwt>
<pdfrwt beam="2">  1       -2 0.19745341E-01 0.29125208E+03</pdfrwt>
<totfact> 0.45194686E+03</totfact>
</mgrwt>
</event>
<event>
 6    1  0.7457796E-006  0.1856401E+03  0.7546771E-02  0.1180588E+00
         -1   -1    0    0    0  501 -0.00000000000E+00  0.00000000000E+00  0.13113118516E+03  0.13113118516E+03  0.00000000000E+00 0.  1.
          1   -1    0    0  501    0  0.00000000000E+00 -0.00000000000E+00 -0.23590116483E+03  0.23590116483E+03  0.00000000000E+00 0. -1.
          5    1    1    2  502    0  0.28841685398E+02 -0.41719105647E+02  0.20762563197E+02  0.55004550930E+02  0.47000000000E+01 0. -1.
         -5    1    1    2    0  502 -0.36164462275E+02  0.12724718130E+03  0.55016221806E+01  0.13248423049E+03  0.47000000000E+01 0.  1.
        -11    1    1    2    0    0 -0.17620929246E+02  0.46385551125E+01  0.38639801899E+00  0.18225329748E+02  0.00000000000E+00 0.  1.
         11    1    1    2    0    0  0.24943706123E+02 -0.90166630770E+02 -0.13142056307E+03  0.16131823882E+03  0.00000000000E+00 0. -1.
<mgrwt>
<rscale>  0 0.16739918E+03</rscale>
<asrwt>0</asrwt>
<pdfrwt beam="2">  1        1 0.36292487E-01 0.18564007E+03</pdfrwt>
<pdfrwt beam="1">  1       -1 0.20174029E-01 0.18564007E+03</pdfrwt>
<totfact> 0.23277508E+03</totfact>
</mgrwt>
</event>
<event>
 6    1  0.7457796E-006  0.1150721E+03  0.7546771E-02  0.1262031E+00
          2   -1    0    0  501    0  0.00000000000E+00  0.00000000000E+00  0.37109265096E+03  0.37109265096E+03  0.00000000000E+00 0. -1.
         -2   -1    0    0    0  501 -0.00000000000E+00 -0.00000000000E+00 -0.29356754475E+02  0.29356754475E+02  0.00000000000E+00 0.  1.
          5    1    1    2  502    0  0.16237245820E+02 -0.51102916461E+02  0.16447169760E+03  0.17305544064E+03  0.47000000000E+01 0. -1.
         -5    1    1    2    0  502 -0.19261957708E+02  0.40667592533E+02  0.34893719639E+02  0.57136133641E+02  0.47000000000E+01 0.  1.
        -11    1    1    2    0    0 -0.26927103891E+02 -0.14412580684E+02  0.97727808109E+01  0.32067096075E+02  0.00000000000E+00 0.  1.
         11    1    1    2    0    0  0.29951815779E+02  0.24847904612E+02  0.13259769843E+03  0.13819073508E+03  0.00000000000E+00 0. -1.
<mgrwt>
<rscale>  0 0.10921493E+03</rscale>
<asrwt>0</asrwt>
<pdfrwt beam="1">  1        2 0.57091174E-01 0.11507211E+03</pdfrwt>
<pdfrwt beam="2">  1       -2 0.45164240E-02 0.11507211E+03</pdfrwt>
<totfact> 0.18315862E+04</totfact>
</mgrwt>
</event>
<event>
 6    1  0.7457796E-006  0.1705933E+03  0.7546771E-02  0.1183539E+00
         -2   -1    0    0    0  501 -0.00000000000E+00  0.00000000000E+00  0.86978217903E+02  0.86978217903E+02  0.00000000000E+00 0.  1.
          2   -1    0    0  501    0  0.00000000000E+00 -0.00000000000E+00 -0.29318853636E+03  0.29318853636E+03  0.00000000000E+00 0. -1.
          5    1    1    2  502    0  0.58896694978E+02  0.61874414577E+01 -0.85457884361E+02  0.10407807219E+03  0.47000000000E+01 0. -1.
         -5    1    1    2    0  502  0.22878920056E+02 -0.88600778771E+02 -0.12052114339E+02  0.92416916427E+02  0.47000000000E+01 0. -1.
        -11    1    1    2    0    0 -0.52198689093E+02 -0.28300932628E+01 -0.65012842014E+02  0.83422911707E+02  0.00000000000E+00 0. -1.
         11    1    1    2    0    0 -0.29576925941E+02  0.85243430576E+02 -0.43687477740E+02  0.10024885394E+03  0.00000000000E+00 0.  1.
<mgrwt>
<rscale>  0 0.16465521E+03</rscale>
<asrwt>0</asrwt>
<pdfrwt beam="2">  1        2 0.45105929E-01 0.17059332E+03</pdfrwt>
<pdfrwt beam="1">  1       -2 0.13381264E-01 0.17059332E+03</pdfrwt>
<totfact> 0.45092993E+03</totfact>
</mgrwt>
</event>
<event>
 6    1  0.7457796E-006  0.1530268E+03  0.7546771E-02  0.1210653E+00
         -2   -1    0    0    0  501 -0.00000000000E+00  0.00000000000E+00  0.23522319834E+02  0.23522319834E+02  0.00000000000E+00 0.  1.
          2   -1    0    0  501    0  0.00000000000E+00 -0.00000000000E+00 -0.78822456618E+03  0.78822456618E+03  0.00000000000E+00 0. -1.
          5    1    1    2  502    0 -0.22597301556E+02 -0.92368248244E+02 -0.43323039606E+03  0.44356870651E+03  0.47000000000E+01 0. -1.
         -5    1    1    2    0  502 -0.61634892009E+01  0.45797610427E+02 -0.85998546664E+02  0.97740727173E+02  0.47000000000E+01 0.  1.
        -11    1    1    2    0    0 -0.24917117925E+02  0.31340097350E+02 -0.18006860394E+03  0.18446616652E+03  0.00000000000E+00 0.  1.
         11    1    1    2    0    0  0.53677908682E+02  0.15230540467E+02 -0.65404699688E+02  0.85971285815E+02  0.00000000000E+00 0. -1.
<mgrwt>
<rscale>  0 0.14200776E+03</rscale>
<asrwt>0</asrwt>
<pdfrwt beam="2">  1        2 0.12126532E+00 0.15302682E+03</pdfrwt>
<pdfrwt beam="1">  1       -2 0.36188182E-02 0.15302682E+03</pdfrwt>
<totfact> 0.11155505E+04</totfact>
</mgrwt>
</event>
<event>
 6    1  0.7457796E-006  0.3885249E+03  0.7546771E-02  0.1047827E+00
          2   -1    0    0  501    0  0.00000000000E+00  0.00000000000E+00  0.64384825444E+03  0.64384825444E+03  0.00000000000E+00 0. -1.
         -2   -1    0    0    0  501 -0.00000000000E+00 -0.00000000000E+00 -0.58613023396E+02  0.58613023396E+02  0.00000000000E+00 0.  1.
          5    1    1    2  502    0  0.13968066960E+03  0.55387734429E+01  0.13513977154E+03  0.19448962781E+03  0.47000000000E+01 0.  1.
         -5    1    1    2    0  502  0.11980194956E+02 -0.50531058559E+02  0.11893949292E+03  0.12986764773E+03  0.47000000000E+01 0.  1.
        -11    1    1    2    0    0 -0.85685664217E+02  0.53054520278E+01  0.87538243198E+02  0.12260964438E+03  0.00000000000E+00 0.  1.
         11    1    1    2    0    0 -0.65975200342E+02  0.39686833088E+02  0.24361772338E+03  0.25549435792E+03  0.00000000000E+00 0. -1.
<mgrwt>
<rscale>  0 0.38852487E+03</rscale>
<asrwt>0</asrwt>
<pdfrwt beam="1">  1        2 0.99053573E-01 0.38852487E+03</pdfrwt>
<pdfrwt beam="2">  1       -2 0.90173886E-02 0.38852487E+03</pdfrwt>
<totfact> 0.36517594E+03</totfact>
</mgrwt>
</event>
<event>
 6    1  0.7457796E-006  0.3540425E+03  0.7546771E-02  0.1060968E+00
          2   -1    0    0  501    0  0.00000000000E+00  0.00000000000E+00  0.23745796805E+03  0.23745796805E+03  0.00000000000E+00 0.  1.
         -2   -1    0    0    0  501 -0.00000000000E+00 -0.00000000000E+00 -0.13196660353E+03  0.13196660353E+03  0.00000000000E+00 0. -1.
          5    1    1    2  502    0 -0.58524896016E+02  0.11360584407E+03  0.47402242846E+02  0.13638370096E+03  0.47000000000E+01 0. -1.
         -5    1    1    2    0  502 -0.16822849065E+02 -0.57550261350E+01 -0.41255586574E+02  0.45169038068E+02  0.47000000000E+01 0. -1.
        -11    1    1    2    0    0  0.68093759915E+02 -0.55119845756E+02  0.16114030586E+02  0.89076481280E+02  0.00000000000E+00 0. -1.
         11    1    1    2    0    0  0.72539851653E+01 -0.52730972182E+02  0.83230677665E+02  0.98795351270E+02  0.00000000000E+00 0.  1.
<mgrwt>
<rscale>  0 0.35404249E+03</rscale>
<asrwt>0</asrwt>
<pdfrwt beam="1">  1        2 0.36531995E-01 0.35404249E+03</pdfrwt>
<pdfrwt beam="2">  1       -2 0.20302554E-01 0.35404249E+03</pdfrwt>
<totfact> 0.29020484E+03</totfact>
</mgrwt>
</event>
<event>
 6    1  0.7457796E-006  0.1851933E+03  0.7546771E-02  0.1167861E+00
         -1   -1    0    0    0  501 -0.00000000000E+00  0.00000000000E+00  0.96773754960E+02  0.96773754960E+02  0.00000000000E+00 0.  1.
          1   -1    0    0  501    0  0.00000000000E+00 -0.00000000000E+00 -0.38376467045E+03  0.38376467045E+03  0.00000000000E+00 0. -1.
          5    1    1    2  502    0  0.11252038622E+02 -0.85096909423E+02 -0.27963839763E+02  0.90399992814E+02  0.47000000000E+01 0.  1.
         -5    1    1    2    0  502  0.98809998161E+02  0.41517626542E+01 -0.22201084099E+02  0.10146738887E+03  0.47000000000E+01 0.  1.
        -11    1    1    2    0    0 -0.37176723134E+01  0.40153937379E+02 -0.11513378863E+03  0.12199159422E+03  0.00000000000E+00 0.  1.
         11    1    1    2    0    0 -0.10634436447E+03  0.40791209391E+02 -0.12169220300E+03  0.16667944951E+03  0.00000000000E+00 0. -1.
<mgrwt>
<rscale>  0 0.17994042E+03</rscale>
<asrwt>0</asrwt>
<pdfrwt beam="2">  1        1 0.59040717E-01 0.18519334E+03</pdfrwt>
<pdfrwt beam="1">  1       -1 0.14888270E-01 0.18519334E+03</pdfrwt>
<totfact> 0.20554003E+03</totfact>
</mgrwt>
</event>
<event>
 6    1  0.7457796E-006  0.1388230E+03  0.7546771E-02  0.1226226E+00
         -3   -1    0    0    0  501 -0.00000000000E+00  0.00000000000E+00  0.84858073260E+03  0.84858073260E+03  0.00000000000E+00 0.  1.
          3   -1    0    0  501    0  0.00000000000E+00 -0.00000000000E+00 -0.18354969186E+02  0.18354969186E+02  0.00000000000E+00 0. -1.
          5    1    1    2  502    0 -0.60522866966E+02 -0.10482955771E+02  0.22895921604E+03  0.23710192407E+03  0.47000000000E+01 0. -1.
         -5    1    1    2    0  502  0.38531994956E+02  0.66734989197E+02  0.27797310836E+03  0.28849508209E+03  0.47000000000E+01 0. -1.
        -11    1    1    2    0    0 -0.35506494820E+02 -0.29154339705E+02  0.13340860601E+03  0.14109763590E+03  0.00000000000E+00 0.  1.
         11    1    1    2    0    0  0.57497366830E+02 -0.27097693721E+02  0.18988483300E+03  0.20024105973E+03  0.00000000000E+00 0. -1.
<mgrwt>
<rscale>  0 0.13083206E+03</rscale>
<asrwt>0</asrwt>
<pdfrwt beam="2">  1        3 0.28238421E-02 0.13882302E+03</pdfrwt>
<pdfrwt beam="1">  1       -3 0.13055085E+00 0.13882302E+03</pdfrwt>
<totfact> 0.62892959E+02</totfact>
</mgrwt>
</event>
<event>
 6    1  0.7457796E-006  0.1750758E+03  0.7546771E-02  0.1180272E+00
          3   -1    0    0  501    0  0.00000000000E+00  0.00000000000E+00  0.11833890889E+03  0.11833890889E+03  0.00000000000E+00 0. -1.
         -3   -1    0    0    0  501 -0.00000000000E+00 -0.00000000000E+00 -0.24792730542E+03  0.24792730542E+03  0.00000000000E+00 0.  1.
          5    1    1    2  502    0 -0.43051807891E+02 -0.18719205106E+02 -0.10162650189E+03  0.11204419971E+03  0.47000000000E+01 0.  1.
         -5    1    1    2    0  502  0.17107496868E+02 -0.10107007067E+03 -0.29745471602E+02  0.10683964018E+03  0.47000000000E+01 0.  1.
        -11    1    1    2    0    0  0.55699992125E+02  0.84284345464E+02  0.89752079355E-01  0.10102647212E+03  0.00000000000E+00 0. -1.
         11    1    1    2    0    0 -0.29755681102E+02  0.35504930311E+02  0.16938248896E+01  0.46355902288E+02  0.00000000000E+00 0.  1.
<mgrwt>
<rscale>  0 0.16769613E+03</rscale>
<asrwt>0</asrwt>
<pdfrwt beam="1">  1        3 0.18205986E-01 0.17507581E+03</pdfrwt>
<pdfrwt beam="2">  1       -3 0.38142662E-01 0.17507581E+03</pdfrwt>
<totfact> 0.43334319E+02</totfact>
</mgrwt>
</event>
<event>
 6    1  0.7457796E-006  0.1291139E+03  0.7546771E-02  0.1242252E+00
          2   -1    0    0  501    0  0.00000000000E+00  0.00000000000E+00  0.57154799221E+03  0.57154799221E+03  0.00000000000E+00 0. -1.
         -2   -1    0    0    0  501 -0.00000000000E+00 -0.00000000000E+00 -0.23725098753E+02  0.23725098753E+02  0.00000000000E+00 0.  1.
          5    1    1    2  502    0  0.26161649748E+01 -0.61369375050E+02  0.94173881315E+02  0.11253379241E+03  0.47000000000E+01 0.  1.
         -5    1    1    2    0  502 -0.34377312957E+02  0.55537984627E+02  0.15010759032E+03  0.16377010122E+03  0.47000000000E+01 0.  1.
        -11    1    1    2    0    0  0.58122295194E+02  0.26014793664E+02  0.22128766565E+03  0.23026767393E+03  0.00000000000E+00 0.  1.
         11    1    1    2    0    0 -0.26361147212E+02 -0.20183403241E+02  0.82253756175E+02  0.88701523401E+02  0.00000000000E+00 0. -1.
<mgrwt>
<rscale>  0 0.12051360E+03</rscale>
<asrwt>0</asrwt>
<pdfrwt beam="1">  1        2 0.87930450E-01 0.12911392E+03</pdfrwt>
<pdfrwt beam="2">  1       -2 0.36500156E-02 0.12911392E+03</pdfrwt>
<totfact> 0.15887979E+04</totfact>
</mgrwt>
</event>
<event>
 6    1  0.7457796E-006  0.2709430E+03  0.7546771E-02  0.1100741E+00
          2   -1    0    0  501    0  0.00000000000E+00  0.00000000000E+00  0.19121694291E+03  0.19121694291E+03  0.00000000000E+00 0. -1.
         -2   -1    0    0    0  501 -0.00000000000E+00 -0.00000000000E+00 -0.95977488638E+02  0.95977488638E+02  0.00000000000E+00 0.  1.
          5    1    1    2  502    0  0.23039860264E+02  0.82151479295E+02 -0.43721645341E+02  0.95986316643E+02  0.47000000000E+01 0.  1.
         -5    1    1    2    0  502 -0.13625598847E+02 -0.13029421298E+02  0.42989625106E+02  0.47176483867E+02  0.47000000000E+01 0.  1.
        -11    1    1    2    0    0 -0.10720519084E+02 -0.39485346549E+02  0.10527116557E+03  0.11294264218E+03  0.00000000000E+00 0. -1.
         11    1    1    2    0    0  0.13062576664E+01 -0.29636711449E+02 -0.92996910631E+01  0.31088988862E+02  0.00000000000E+00 0.  1.
<mgrwt>
<rscale>  0 0.27094296E+03</rscale>
<asrwt>0</asrwt>
<pdfrwt beam="1">  1        2 0.29417991E-01 0.27094296E+03</pdfrwt>
<pdfrwt beam="2">  1       -2 0.14765768E-01 0.27094296E+03</pdfrwt>
<totfact> 0.62452609E+03</totfact>
</mgrwt>
</event>
<event>
 6    1  0.7457796E-006  0.2916062E+03  0.7546771E-02  0.1089514E+00
          1   -1    0    0  501    0  0.00000000000E+00  0.00000000000E+00  0.36592319439E+03  0.36592319439E+03  0.00000000000E+00 0. -1.
         -1   -1    0    0    0  501 -0.00000000000E+00 -0.00000000000E+00 -0.58095626709E+02  0.58095626709E+02  0.00000000000E+00 0.  1.
          5    1    1    2  502    0 -0.33674363876E+02 -0.43204457570E+01  0.32502245567E+02  0.47234680065E+02  0.47000000000E+01 0.  1.
         -5    1    1    2    0  502  0.10479428310E+03  0.35230818216E+02  0.50075171420E+02  0.12146054963E+03  0.47000000000E+01 0.  1.
        -11    1    1    2    0    0 -0.23019942351E+02 -0.27238440807E+02  0.13475247242E+02  0.38123912334E+02  0.00000000000E+00 0.  1.
         11    1    1    2    0    0 -0.48099976875E+02 -0.36719316524E+01  0.21177490345E+03  0.21719967907E+03  0.00000000000E+00 0. -1.
<mgrwt>
<rscale>  0 0.29160615E+03</rscale>
<asrwt>0</asrwt>
<pdfrwt beam="1">  1        1 0.56295875E-01 0.29160615E+03</pdfrwt>
<pdfrwt beam="2">  1       -1 0.89377890E-02 0.29160615E+03</pdfrwt>
<totfact> 0.49164487E+03</totfact>
</mgrwt>
</event>
<event>
 6    1  0.7457796E-006  0.1346044E+03  0.7546771E-02  0.1235656E+00
         -2   -1    0    0    0  501 -0.00000000000E+00  0.00000000000E+00  0.31698383727E+02  0.31698383727E+02  0.00000000000E+00 0.  1.
          2   -1    0    0  501    0  0.00000000000E+00 -0.00000000000E+00 -0.43356992544E+03  0.43356992544E+03  0.00000000000E+00 0. -1.
          5    1    1    2  502    0  0.73798438525E+02 -0.20522363883E+02 -0.83572310894E+02  0.11346276084E+03  0.47000000000E+01 0.  1.
         -5    1    1    2    0  502 -0.45244186263E+02 -0.20444352674E+02 -0.12716420525E+03  0.13659367863E+03  0.47000000000E+01 0.  1.
        -11    1    1    2    0    0  0.94145671323E+01 -0.20180187446E+02 -0.78046788745E+02  0.81161414928E+02  0.00000000000E+00 0. -1.
         11    1    1    2    0    0 -0.37968819395E+02  0.61146904003E+02 -0.11308823683E+03  0.13405045477E+03  0.00000000000E+00 0.  1.
<mgrwt>
<rscale>  0 0.12462538E+03</rscale>
<asrwt>0</asrwt>
<pdfrwt beam="2">  1        2 0.66703061E-01 0.13460440E+03</pdfrwt>
<pdfrwt beam="1">  1       -2 0.48766747E-02 0.13460440E+03</pdfrwt>
<totfact> 0.14024343E+04</totfact>
</mgrwt>
</event>
<event>
 6    1  0.7457796E-006  0.1690596E+03  0.7546771E-02  0.1185589E+00
         -2   -1    0    0    0  501 -0.00000000000E+00  0.00000000000E+00  0.23232154105E+03  0.23232154105E+03  0.00000000000E+00 0.  1.
          2   -1    0    0  501    0  0.00000000000E+00 -0.00000000000E+00 -0.10664758360E+03  0.10664758360E+03  0.00000000000E+00 0. -1.
          5    1    1    2  502    0 -0.11967265163E+03 -0.20491231223E+02  0.18076247240E+02  0.12284247970E+03  0.47000000000E+01 0.  1.
         -5    1    1    2    0  502  0.58560320728E+01  0.21659952326E+02  0.58345702647E+02  0.62687779221E+02  0.47000000000E+01 0.  1.
        -11    1    1    2    0    0  0.34509015712E+01 -0.30745568688E+02  0.79575530972E+01  0.31945600117E+02  0.00000000000E+00 0. -1.
         11    1    1    2    0    0  0.11036571799E+03  0.29576847585E+02  0.41294454460E+02  0.12149326561E+03  0.00000000000E+00 0.  1.
<mgrwt>
<rscale>  0 0.16278368E+03</rscale>
<asrwt>0</asrwt>
<pdfrwt beam="2">  1        2 0.16407321E-01 0.16905964E+03</pdfrwt>
<pdfrwt beam="1">  1       -2 0.35741775E-01 0.16905964E+03</pdfrwt>
<totfact> 0.25243786E+03</totfact>
</mgrwt>
</event>
<event>
 6    1  0.7457796E-006  0.1320722E+03  0.7546771E-02  0.1236778E+00
         -1   -1    0    0    0  501 -0.00000000000E+00  0.00000000000E+00  0.46852401142E+02  0.46852401142E+02  0.00000000000E+00 0.  1.
          1   -1    0    0  501    0  0.00000000000E+00 -0.00000000000E+00 -0.33441722958E+03  0.33441722958E+03  0.00000000000E+00 0. -1.
          5    1    1    2  502    0  0.73836090140E+01 -0.75132660026E+02 -0.89702625456E+02  0.11733748463E+03  0.47000000000E+01 0. -1.
         -5    1    1    2    0  502 -0.24693238732E+02  0.36390257447E+02 -0.36136354633E+01  0.44375164646E+02  0.47000000000E+01 0. -1.
        -11    1    1    2    0    0  0.46072365546E+02  0.13797492423E+02 -0.16407145724E+03  0.17097507638E+03  0.00000000000E+00 0. -1.
         11    1    1    2    0    0 -0.28762735828E+02  0.24944910155E+02 -0.30177110283E+02  0.48581905067E+02  0.00000000000E+00 0.  1.
<mgrwt>
<rscale>  0 0.12391279E+03</rscale>
<asrwt>0</asrwt>
<pdfrwt beam="2">  1        1 0.51448804E-01 0.13207216E+03</pdfrwt>
<pdfrwt beam="1">  1       -1 0.72080618E-02 0.13207216E+03</pdfrwt>
<totfact> 0.73289461E+03</totfact>
</mgrwt>
</event>
<event>
 6    1  0.7457796E-006  0.1439792E+03  0.7546771E-02  0.1218074E+00
         -4   -1    0    0    0  501 -0.00000000000E+00  0.00000000000E+00  0.57067914225E+02  0.57067914225E+02  0.00000000000E+00 0.  1.
          4   -1    0    0  501    0  0.00000000000E+00 -0.00000000000E+00 -0.29712637542E+03  0.29712637542E+03  0.00000000000E+00 0. -1.
          5    1    1    2  502    0 -0.54345202376E+02  0.26266582575E+02 -0.85502204674E+02  0.10476665207E+03  0.47000000000E+01 0. -1.
         -5    1    1    2    0  502  0.51471160174E+01 -0.78054895551E+02 -0.50070282193E+02  0.92995605712E+02  0.47000000000E+01 0. -1.
        -11    1    1    2    0    0  0.31711683157E+02  0.40186053971E+02 -0.11991531164E+03  0.13038493681E+03  0.00000000000E+00 0. -1.
         11    1    1    2    0    0  0.17486403202E+02  0.11602259005E+02  0.15429337309E+02  0.26047095054E+02  0.00000000000E+00 0.  1.
<mgrwt>
<rscale>  0 0.13653120E+03</rscale>
<asrwt>0</asrwt>
<pdfrwt beam="2">  1        4 0.45711751E-01 0.14397920E+03</pdfrwt>
<pdfrwt beam="1">  1       -4 0.87796790E-02 0.14397920E+03</pdfrwt>
<totfact> 0.73700225E+02</totfact>
</mgrwt>
</event>
<event>
 6    1  0.7457796E-006  0.2087519E+03  0.7546771E-02  0.1176754E+00
          3   -1    0    0  501    0  0.00000000000E+00  0.00000000000E+00  0.85876618005E+02  0.85876618005E+02  0.00000000000E+00 0. -1.
         -3   -1    0    0    0  501 -0.00000000000E+00 -0.00000000000E+00 -0.26777146882E+03  0.26777146882E+03  0.00000000000E+00 0.  1.
          5    1    1    2  502    0  0.16564971916E+02  0.11018634235E+03 -0.54035695662E+02  0.12392487539E+03  0.47000000000E+01 0. -1.
         -5    1    1    2    0  502  0.20052603374E+01 -0.94822036076E+02 -0.79875558261E+02  0.12408639894E+03  0.47000000000E+01 0.  1.
        -11    1    1    2    0    0  0.33776821420E+02  0.80260331587E+01 -0.76893156438E+01  0.35558633953E+02  0.00000000000E+00 0. -1.
         11    1    1    2    0    0 -0.52347053674E+02 -0.23390339428E+02 -0.40294281251E+02  0.70078178547E+02  0.00000000000E+00 0.  1.
<mgrwt>
<rscale>  0 0.17105349E+03</rscale>
<asrwt>0</asrwt>
<pdfrwt beam="1">  1        3 0.13211788E-01 0.20875193E+03</pdfrwt>
<pdfrwt beam="2">  1       -3 0.41195610E-01 0.20875193E+03</pdfrwt>
<totfact> 0.66429242E+02</totfact>
</mgrwt>
</event>
<event>
 6    1  0.7457796E-006  0.2798161E+03  0.7546771E-02  0.1097014E+00
         -2   -1    0    0    0  501 -0.00000000000E+00  0.00000000000E+00  0.53638372745E+02  0.53638372745E+02  0.00000000000E+00 0.  1.
          2   -1    0    0  501    0  0.00000000000E+00 -0.00000000000E+00 -0.14281743362E+04  0.14281743362E+04  0.00000000000E+00 0. -1.
          5    1    1    2  502    0  0.17462266253E+02  0.13983944546E+02 -0.25595978175E+02  0.34318006155E+02  0.47000000000E+01 0. -1.
         -5    1    1    2    0  502  0.12788309083E+03 -0.21781175118E+03 -0.59905168810E+03  0.65013926115E+03  0.47000000000E+01 0. -1.
        -11    1    1    2    0    0 -0.46874186223E+02  0.82982409195E+02 -0.15140904055E+03  0.17890770562E+03  0.00000000000E+00 0.  1.
         11    1    1    2    0    0 -0.98471170856E+02  0.12084539744E+03 -0.59847925667E+03  0.61844773606E+03  0.00000000000E+00 0. -1.
<mgrwt>
<rscale>  0 0.27758660E+03</rscale>
<asrwt>0</asrwt>
<pdfrwt beam="2">  1        2 0.21971913E+00 0.27981609E+03</pdfrwt>
<pdfrwt beam="1">  1       -2 0.82520572E-02 0.27981609E+03</pdfrwt>
<totfact> 0.13440406E+03</totfact>
</mgrwt>
</event>
<event>
 6    1  0.7457796E-006  0.1336755E+03  0.7546771E-02  0.1234880E+00
          1   -1    0    0  501    0  0.00000000000E+00  0.00000000000E+00  0.80016938184E+02  0.80016938184E+02  0.00000000000E+00 0. -1.
         -1   -1    0    0    0  501 -0.00000000000E+00 -0.00000000000E+00 -0.18451928090E+03  0.18451928090E+03  0.00000000000E+00 0.  1.
          5    1    1    2  502    0  0.20478978430E+02  0.40268714246E+02  0.19354906319E+02  0.49372667572E+02  0.47000000000E+01 0.  1.
         -5    1    1    2    0  502  0.19098916898E+02 -0.14221839994E+02 -0.10878339058E+03  0.11145826764E+03  0.47000000000E+01 0.  1.
        -11    1    1    2    0    0  0.28303666525E+02  0.23750546354E+01 -0.93029023029E+01  0.29887830543E+02  0.00000000000E+00 0. -1.
         11    1    1    2    0    0 -0.67881561853E+02 -0.28421928887E+02 -0.57709561548E+01  0.73817453330E+02  0.00000000000E+00 0.  1.
<mgrwt>
<rscale>  0 0.12512089E+03</rscale>
<asrwt>0</asrwt>
<pdfrwt beam="1">  1        1 0.12310298E-01 0.13367549E+03</pdfrwt>
<pdfrwt beam="2">  1       -1 0.28387582E-01 0.13367549E+03</pdfrwt>
<totfact> 0.51855987E+03</totfact>
</mgrwt>
</event>
<event>
 6    1  0.7457796E-006  0.1303428E+03  0.7546771E-02  0.1235687E+00
         -1   -1    0    0    0  501 -0.00000000000E+00  0.00000000000E+00  0.26369550835E+03  0.26369550835E+03  0.00000000000E+00 0.  1.
          1   -1    0    0  501    0  0.00000000000E+00 -0.00000000000E+00 -0.60722660434E+02  0.60722660434E+02  0.00000000000E+00 0. -1.
          5    1    1    2  502    0  0.30305456523E+02 -0.30805311141E+02  0.11373215087E+03  0.12175582134E+03  0.47000000000E+01 0. -1.
         -5    1    1    2    0  502  0.17521449536E+02  0.69148984069E+02  0.48670137649E+02  0.86483845257E+02  0.47000000000E+01 0.  1.
        -11    1    1    2    0    0 -0.15203917471E+02 -0.52748703195E+02 -0.84665252450E+01  0.55545178413E+02  0.00000000000E+00 0. -1.
         11    1    1    2    0    0 -0.32622988587E+02  0.14405030267E+02  0.49037084639E+02  0.60633323769E+02  0.00000000000E+00 0.  1.
<mgrwt>
<rscale>  0 0.12460542E+03</rscale>
<asrwt>0</asrwt>
<pdfrwt beam="2">  1        1 0.93419479E-02 0.13034284E+03</pdfrwt>
<pdfrwt beam="1">  1       -1 0.40568539E-01 0.13034284E+03</pdfrwt>
<totfact> 0.40485300E+03</totfact>
</mgrwt>
</event>
<event>
 6    1  0.7457796E-006  0.1876886E+03  0.7546771E-02  0.1165624E+00
         -2   -1    0    0    0  501 -0.00000000000E+00  0.00000000000E+00  0.90722508609E+02  0.90722508609E+02  0.00000000000E+00 0.  1.
          2   -1    0    0  501    0  0.00000000000E+00 -0.00000000000E+00 -0.34935604322E+03  0.34935604322E+03  0.00000000000E+00 0. -1.
          5    1    1    2  502    0  0.26999654236E+02 -0.75085181893E+02  0.95187367748E+01  0.80495106799E+02  0.47000000000E+01 0.  1.
         -5    1    1    2    0  502  0.63322666680E+01 -0.60892501780E+02 -0.12663632455E+03  0.14073678648E+03  0.47000000000E+01 0.  1.
        -11    1    1    2    0    0 -0.51662960656E+02  0.30762329097E+02 -0.50078663009E+02  0.78251229282E+02  0.00000000000E+00 0. -1.
         11    1    1    2    0    0  0.18331039753E+02  0.10521535458E+03 -0.91437283830E+02  0.14059542927E+03  0.00000000000E+00 0.  1.
<mgrwt>
<rscale>  0 0.18226989E+03</rscale>
<asrwt>0</asrwt>
<pdfrwt beam="2">  1        2 0.53747084E-01 0.18768863E+03</pdfrwt>
<pdfrwt beam="1">  1       -2 0.13957309E-01 0.18768863E+03</pdfrwt>
<totfact> 0.35056987E+03</totfact>
</mgrwt>
</event>
<event>
 6    1  0.7457796E-006  0.1429264E+03  0.7546771E-02  0.1219899E+00
         -1   -1    0    0    0  501 -0.00000000000E+00  0.00000000000E+00  0.92878185057E+02  0.92878185057E+02  0.00000000000E+00 0.  1.
          1   -1    0    0  501    0  0.00000000000E+00 -0.00000000000E+00 -0.20315589492E+03  0.20315589492E+03  0.00000000000E+00 0. -1.
          5    1    1    2  502    0 -0.68606744438E+02 -0.77151349814E+01  0.44787064667E+02  0.82428028314E+02  0.47000000000E+01 0. -1.
         -5    1    1    2    0  502  0.24036811673E+01  0.27625048306E+02 -0.53890372079E+02  0.60788018390E+02  0.47000000000E+01 0. -1.
        -11    1    1    2    0    0  0.78838915156E+02 -0.27552825131E+02 -0.10802120242E+03  0.13654051739E+03  0.00000000000E+00 0. -1.
         11    1    1    2    0    0 -0.12635851885E+02  0.76429118069E+01  0.68467999663E+01  0.16277515889E+02  0.00000000000E+00 0.  1.
<mgrwt>
<rscale>  0 0.13522722E+03</rscale>
<asrwt>0</asrwt>
<pdfrwt beam="2">  1        1 0.31254753E-01 0.14292644E+03</pdfrwt>
<pdfrwt beam="1">  1       -1 0.14288952E-01 0.14292644E+03</pdfrwt>
<totfact> 0.47954014E+03</totfact>
</mgrwt>
</event>
<event>
 6    1  0.7457796E-006  0.1256425E+03  0.7546771E-02  0.1249158E+00
         -2   -1    0    0    0  501 -0.00000000000E+00  0.00000000000E+00  0.76501556401E+02  0.76501556401E+02  0.00000000000E+00 0.  1.
          2   -1    0    0  501    0  0.00000000000E+00 -0.00000000000E+00 -0.16124300978E+03  0.16124300978E+03  0.00000000000E+00 0. -1.
          5    1    1    2  502    0  0.14939404002E+02  0.44836057717E+02 -0.45487502095E+02  0.65762152568E+02  0.47000000000E+01 0. -1.
         -5    1    1    2    0  502 -0.21427751640E+02 -0.55548430585E+02  0.18939753523E+02  0.62654456699E+02  0.47000000000E+01 0. -1.
        -11    1    1    2    0    0  0.25584099559E+01 -0.40420031536E+02 -0.18750811741E+02  0.44630901311E+02  0.00000000000E+00 0. -1.
         11    1    1    2    0    0  0.39299376816E+01  0.51132404404E+02 -0.39442893066E+02  0.64697055604E+02  0.00000000000E+00 0.  1.
<mgrwt>
<rscale>  0 0.11639929E+03</rscale>
<asrwt>0</asrwt>
<pdfrwt beam="2">  1        2 0.24806617E-01 0.12564252E+03</pdfrwt>
<pdfrwt beam="1">  1       -2 0.11769470E-01 0.12564252E+03</pdfrwt>
<totfact> 0.10353720E+04</totfact>
</mgrwt>
</event>
<event>
 6    1  0.7457796E-006  0.1299239E+03  0.7546771E-02  0.1242239E+00
          1   -1    0    0  501    0  0.00000000000E+00  0.00000000000E+00  0.37445218911E+03  0.37445218911E+03  0.00000000000E+00 0. -1.
         -1   -1    0    0    0  501 -0.00000000000E+00 -0.00000000000E+00 -0.34422996205E+02  0.34422996205E+02  0.00000000000E+00 0.  1.
          5    1    1    2  502    0  0.11405852639E+02  0.79048614026E+02  0.13096101341E+03  0.15346548109E+03  0.47000000000E+01 0.  1.
         -5    1    1    2    0  502 -0.16840696639E+02 -0.44057393049E+02  0.45837161784E+02  0.65937836983E+02  0.47000000000E+01 0.  1.
        -11    1    1    2    0    0 -0.30550656989E+02  0.11756968577E+01  0.17859736066E+02  0.35407556791E+02  0.00000000000E+00 0. -1.
         11    1    1    2    0    0  0.35985500988E+02 -0.36166917835E+02  0.14537128164E+03  0.15406431044E+03  0.00000000000E+00 0.  1.
<mgrwt>
<rscale>  0 0.12052168E+03</rscale>
<asrwt>0</asrwt>
<pdfrwt beam="1">  1        1 0.57608026E-01 0.12992391E+03</pdfrwt>
<pdfrwt beam="2">  1       -1 0.52958458E-02 0.12992391E+03</pdfrwt>
<totfact> 0.10064478E+04</totfact>
</mgrwt>
</event>
<event>
 6    1  0.7457796E-006  0.1980978E+03  0.7546771E-02  0.1156254E+00
          1   -1    0    0  501    0  0.00000000000E+00  0.00000000000E+00  0.51877910818E+03  0.51877910818E+03  0.00000000000E+00 0. -1.
         -1   -1    0    0    0  501 -0.00000000000E+00 -0.00000000000E+00 -0.67773992625E+02  0.67773992625E+02  0.00000000000E+00 0.  1.
          5    1    1    2  502    0 -0.53656990348E+02  0.11981016802E+03  0.26241533853E+03  0.29345774631E+03  0.47000000000E+01 0. -1.
         -5    1    1    2    0  502  0.92257017322E+00  0.24541212190E+02 -0.10412659040E+02  0.27085710250E+02  0.47000000000E+01 0. -1.
        -11    1    1    2    0    0  0.29357330929E+02 -0.28509114646E-01  0.23620070736E+02  0.37679721782E+02  0.00000000000E+00 0.  1.
         11    1    1    2    0    0  0.23377089246E+02 -0.14432287109E+03  0.17538236533E+03  0.22832992246E+03  0.00000000000E+00 0. -1.
<mgrwt>
<rscale>  0 0.19246778E+03</rscale>
<asrwt>0</asrwt>
<pdfrwt beam="1">  1        1 0.79812168E-01 0.19809785E+03</pdfrwt>
<pdfrwt beam="2">  1       -1 0.10426768E-01 0.19809785E+03</pdfrwt>
<totfact> 0.24290034E+03</totfact>
</mgrwt>
</event>
<event>
 6    1  0.7457796E-006  0.3053721E+03  0.7546771E-02  0.1082586E+00
          1   -1    0    0  501    0  0.00000000000E+00  0.00000000000E+00  0.68101475475E+03  0.68101475475E+03  0.00000000000E+00 0. -1.
         -1   -1    0    0    0  501 -0.00000000000E+00 -0.00000000000E+00 -0.34232791679E+02  0.34232791679E+02  0.00000000000E+00 0.  1.
          5    1    1    2  502    0  0.15255925242E+02  0.44068877146E+01  0.16474005867E+03  0.16557035014E+03  0.47000000000E+01 0. -1.
         -5    1    1    2    0  502 -0.42041767235E+00 -0.10529412161E+03  0.10530279406E+03  0.14898925208E+03  0.47000000000E+01 0. -1.
        -11    1    1    2    0    0  0.13774838439E+02  0.95607526791E+02  0.20643366694E+03  0.22791534437E+03  0.00000000000E+00 0.  1.
         11    1    1    2    0    0 -0.28610346009E+02  0.52797071049E+01  0.17030544340E+03  0.17277259985E+03  0.00000000000E+00 0. -1.
<mgrwt>
<rscale>  0 0.30537214E+03</rscale>
<asrwt>0</asrwt>
<pdfrwt beam="1">  1        1 0.10477149E+00 0.30537214E+03</pdfrwt>
<pdfrwt beam="2">  1       -1 0.52665838E-02 0.30537214E+03</pdfrwt>
<totfact> 0.47786874E+03</totfact>
</mgrwt>
</event>
<event>
 6    1  0.7457796E-006  0.1422807E+03  0.7546771E-02  0.1220613E+00
          2   -1    0    0  501    0  0.00000000000E+00  0.00000000000E+00  0.15781188543E+03  0.15781188543E+03  0.00000000000E+00 0. -1.
         -2   -1    0    0    0  501 -0.00000000000E+00 -0.00000000000E+00 -0.10464312558E+03  0.10464312558E+03  0.00000000000E+00 0.  1.
          5    1    1    2  502    0 -0.17088985607E+02 -0.60129274118E+02  0.64335926345E+02  0.89826301570E+02  0.47000000000E+01 0. -1.
         -5    1    1    2    0  502  0.33540974402E+02  0.69248706220E+01 -0.41784169876E+02  0.54230596984E+02  0.47000000000E+01 0.  1.
        -11    1    1    2    0    0 -0.71997244778E+00 -0.27338125781E+02  0.23443363868E+02  0.36020588433E+02  0.00000000000E+00 0.  1.
         11    1    1    2    0    0 -0.15732016348E+02  0.80542529277E+02  0.71736395130E+01  0.82377524026E+02  0.00000000000E+00 0. -1.
<mgrwt>
<rscale>  0 0.13472199E+03</rscale>
<asrwt>0</asrwt>
<pdfrwt beam="1">  1        2 0.24278751E-01 0.14228074E+03</pdfrwt>
<pdfrwt beam="2">  1       -2 0.16098942E-01 0.14228074E+03</pdfrwt>
<totfact> 0.64451274E+03</totfact>
</mgrwt>
</event>
<event>
 6    1  0.7457796E-006  0.1273834E+03  0.7546771E-02  0.1248044E+00
          1   -1    0    0  501    0  0.00000000000E+00  0.00000000000E+00  0.26470801198E+03  0.26470801198E+03  0.00000000000E+00 0. -1.
         -1   -1    0    0    0  501 -0.00000000000E+00 -0.00000000000E+00 -0.45716932013E+02  0.45716932013E+02  0.00000000000E+00 0.  1.
          5    1    1    2  502    0  0.77611818468E+01  0.44873286578E+02  0.94565958357E+02  0.10506501926E+03  0.47000000000E+01 0.  1.
         -5    1    1    2    0  502  0.12606415381E+02 -0.58909706497E+02  0.13346294369E+02  0.61882863554E+02  0.47000000000E+01 0.  1.
        -11    1    1    2    0    0 -0.53337604040E+02  0.68804481362E+01  0.48670173850E+02  0.72532933167E+02  0.00000000000E+00 0.  1.
         11    1    1    2    0    0  0.32970006812E+02  0.71559717832E+01  0.62408653389E+02  0.70944128010E+02  0.00000000000E+00 0. -1.
<mgrwt>
<rscale>  0 0.11705037E+03</rscale>
<asrwt>0</asrwt>
<pdfrwt beam="1">  1        1 0.40724309E-01 0.12738344E+03</pdfrwt>
<pdfrwt beam="2">  1       -1 0.70333743E-02 0.12738344E+03</pdfrwt>
<totfact> 0.10124247E+04</totfact>
</mgrwt>
</event>
<event>
 6    1  0.7457796E-006  0.1877925E+03  0.7546771E-02  0.1169445E+00
         -1   -1    0    0    0  501 -0.00000000000E+00  0.00000000000E+00  0.75602297032E+02  0.75602297032E+02  0.00000000000E+00 0.  1.
          1   -1    0    0  501    0  0.00000000000E+00 -0.00000000000E+00 -0.38573132757E+03  0.38573132757E+03  0.00000000000E+00 0. -1.
          5    1    1    2  502    0 -0.27787477707E+02 -0.11101142696E+02  0.17541981917E+02  0.35002720123E+02  0.47000000000E+01 0. -1.
         -5    1    1    2    0  502 -0.10722384592E+03  0.48676293230E+02 -0.17016162581E+03  0.20698648157E+03  0.47000000000E+01 0. -1.
        -11    1    1    2    0    0  0.39460557609E+02 -0.39226102466E+02 -0.43810487038E+02  0.70817946144E+02  0.00000000000E+00 0.  1.
         11    1    1    2    0    0  0.95550766014E+02  0.16509519328E+01 -0.11369889961E+03  0.14852647677E+03  0.00000000000E+00 0. -1.
<mgrwt>
<rscale>  0 0.17831365E+03</rscale>
<asrwt>0</asrwt>
<pdfrwt beam="2">  1        1 0.59343281E-01 0.18779249E+03</pdfrwt>
<pdfrwt beam="1">  1       -1 0.11631123E-01 0.18779249E+03</pdfrwt>
<totfact> 0.30065346E+03</totfact>
</mgrwt>
</event>
<event>
 6    1  0.7457796E-006  0.2577849E+03  0.7546771E-02  0.1108481E+00
         -1   -1    0    0    0  501 -0.00000000000E+00  0.00000000000E+00  0.27977193220E+02  0.27977193220E+02  0.00000000000E+00 0.  1.
          1   -1    0    0  501    0  0.00000000000E+00 -0.00000000000E+00 -0.59381457190E+03  0.59381457190E+03  0.00000000000E+00 0. -1.
          5    1    1    2  502    0  0.31025500060E+02  0.50360225832E+01 -0.16040373373E+03  0.16352183638E+03  0.47000000000E+01 0. -1.
         -5    1    1    2    0  502 -0.83409638531E+02  0.37831246182E+02 -0.12152980088E+03  0.15224964200E+03  0.47000000000E+01 0. -1.
        -11    1    1    2    0    0 -0.15627714407E+02 -0.43090186124E+02 -0.10233401743E+03  0.11213046295E+03  0.00000000000E+00 0.  1.
         11    1    1    2    0    0  0.68011852878E+02  0.22291735928E+00 -0.18156982663E+03  0.19388982378E+03  0.00000000000E+00 0. -1.
<mgrwt>
<rscale>  0 0.25778491E+03</rscale>
<asrwt>0</asrwt>
<pdfrwt beam="2">  1        1 0.91356083E-01 0.25778491E+03</pdfrwt>
<pdfrwt beam="1">  1       -1 0.43041838E-02 0.25778491E+03</pdfrwt>
<totfact> 0.78114430E+03</totfact>
</mgrwt>
</event>
<event>
 6    1  0.7457796E-006  0.1322310E+03  0.7546771E-02  0.1233949E+00
          2   -1    0    0  501    0  0.00000000000E+00  0.00000000000E+00  0.34149297451E+03  0.34149297451E+03  0.00000000000E+00 0. -1.
         -2   -1    0    0    0  501 -0.00000000000E+00 -0.00000000000E+00 -0.51090035358E+02  0.51090035358E+02  0.00000000000E+00 0.  1.
          5    1    1    2  502    0  0.21579938902E+02 -0.30603561596E+02  0.85387383509E+02  0.93356129996E+02  0.47000000000E+01 0.  1.
         -5    1    1    2    0  502 -0.57808247887E+02  0.72176015173E+01 -0.93327008982E+01  0.59186794147E+02  0.47000000000E+01 0.  1.
        -11    1    1    2    0    0  0.67799369319E+02  0.48633427512E+01  0.16616244553E+03  0.17952817296E+03  0.00000000000E+00 0.  1.
         11    1    1    2    0    0 -0.31571060335E+02  0.18522617328E+02  0.48185811020E+02  0.60511912770E+02  0.00000000000E+00 0. -1.
<mgrwt>
<rscale>  0 0.12571950E+03</rscale>
<asrwt>0</asrwt>
<pdfrwt beam="1">  1        2 0.52537379E-01 0.13223097E+03</pdfrwt>
<pdfrwt beam="2">  1       -2 0.78600057E-02 0.13223097E+03</pdfrwt>
<totfact> 0.87500576E+03</totfact>
</mgrwt>
</event>
<event>
 6    1  0.7457796E-006  0.1467093E+03  0.7546771E-02  0.1214057E+00
         -1   -1    0    0    0  501 -0.00000000000E+00  0.00000000000E+00  0.27881470575E+03  0.27881470575E+03  0.00000000000E+00 0. -1.
          1   -1    0    0  501    0  0.00000000000E+00 -0.00000000000E+00 -0.63724742940E+02  0.63724742940E+02  0.00000000000E+00 0.  1.
          5    1    1    2  502    0 -0.94884255311E+02  0.32220854843E+02  0.44989064851E+02  0.10994230919E+03  0.47000000000E+01 0.  1.
         -5    1    1    2    0  502  0.22211349517E+02 -0.73627576490E+01  0.77775524973E+02  0.81355248954E+02  0.47000000000E+01 0.  1.
        -11    1    1    2    0    0  0.92640194544E+02 -0.21526462260E+02  0.89867046548E+02  0.13084983866E+03  0.00000000000E+00 0. -1.
         11    1    1    2    0    0 -0.19967288750E+02 -0.33316349349E+01  0.24583264378E+01  0.20392051889E+02  0.00000000000E+00 0.  1.
<mgrwt>
<rscale>  0 0.13946017E+03</rscale>
<asrwt>0</asrwt>
<pdfrwt beam="2">  1        1 0.98038068E-02 0.14670927E+03</pdfrwt>
<pdfrwt beam="1">  1       -1 0.42894569E-01 0.14670927E+03</pdfrwt>
<totfact> 0.34644039E+03</totfact>
</mgrwt>
</event>
<event>
 6    1  0.7457796E-006  0.1289196E+03  0.7546771E-02  0.1242993E+00
         -4   -1    0    0    0  501 -0.00000000000E+00  0.00000000000E+00  0.80576014242E+03  0.80576014242E+03  0.00000000000E+00 0.  1.
          4   -1    0    0  501    0  0.00000000000E+00 -0.00000000000E+00 -0.15850360223E+02  0.15850360223E+02  0.00000000000E+00 0. -1.
          5    1    1    2  502    0  0.45361149951E+02 -0.21230847540E+02  0.10751844651E+03  0.11870420865E+03  0.47000000000E+01 0. -1.
         -5    1    1    2    0  502 -0.42439997648E+02  0.52644252286E+02  0.35668579568E+03  0.36306943901E+03  0.47000000000E+01 0. -1.
        -11    1    1    2    0    0  0.14688957387E+02 -0.60823604291E+02  0.20196061045E+03  0.21143170170E+03  0.00000000000E+00 0. -1.
         11    1    1    2    0    0 -0.17610109690E+02  0.29410199545E+02  0.12374492956E+03  0.12840515329E+03  0.00000000000E+00 0.  1.
<mgrwt>
<rscale>  0 0.12006296E+03</rscale>
<asrwt>0</asrwt>
<pdfrwt beam="2">  1        4 0.24385176E-02 0.12891962E+03</pdfrwt>
<pdfrwt beam="1">  1       -4 0.12396307E+00 0.12891962E+03</pdfrwt>
<totfact> 0.62970472E+02</totfact>
</mgrwt>
</event>
<event>
 6    1  0.7457796E-006  0.1711387E+03  0.7546771E-02  0.1182931E+00
         -2   -1    0    0    0  501 -0.00000000000E+00  0.00000000000E+00  0.54458112847E+02  0.54458112847E+02  0.00000000000E+00 0.  1.
          2   -1    0    0  501    0  0.00000000000E+00 -0.00000000000E+00 -0.48706556495E+03  0.48706556495E+03  0.00000000000E+00 0. -1.
          5    1    1    2  502    0  0.21897995901E+02  0.74358121747E+02 -0.97568057587E+02  0.12470071514E+03  0.47000000000E+01 0.  1.
         -5    1    1    2    0  502 -0.86754767217E+02  0.22890795834E+02 -0.18474845552E+03  0.20543724099E+03  0.47000000000E+01 0.  1.
        -11    1    1    2    0    0  0.67792894207E+02 -0.27897049299E+02 -0.47498803575E+02  0.87351349192E+02  0.00000000000E+00 0.  1.
         11    1    1    2    0    0 -0.29361228905E+01 -0.69351868282E+02 -0.10279213542E+03  0.12403437248E+03  0.00000000000E+00 0. -1.
<mgrwt>
<rscale>  0 0.16521587E+03</rscale>
<asrwt>0</asrwt>
<pdfrwt beam="2">  1        2 0.74933165E-01 0.17113871E+03</pdfrwt>
<pdfrwt beam="1">  1       -2 0.83781711E-02 0.17113871E+03</pdfrwt>
<totfact> 0.54908130E+03</totfact>
</mgrwt>
</event>
<event>
 6    1  0.7457796E-006  0.6222192E+03  0.7546771E-02  0.1033888E+00
         -2   -1    0    0    0  501 -0.00000000000E+00  0.00000000000E+00  0.31651829712E+03  0.31651829712E+03  0.00000000000E+00 0. -1.
          2   -1    0    0  501    0  0.00000000000E+00 -0.00000000000E+00 -0.49243344955E+03  0.49243344955E+03  0.00000000000E+00 0.  1.
          5    1    1    2  502    0  0.27623441862E+03  0.13930791179E+03  0.16837856142E+01  0.30941408089E+03  0.47000000000E+01 0.  1.
         -5    1    1    2    0  502 -0.21099821799E+03 -0.22670192102E+03 -0.60396041714E+02  0.31556897953E+03  0.47000000000E+01 0. -1.
        -11    1    1    2    0    0 -0.82508283091E+02  0.92344348379E+02 -0.10242186070E+03  0.16070262290E+03  0.00000000000E+00 0.  1.
         11    1    1    2    0    0  0.17272082457E+02 -0.49503391466E+01 -0.14781035623E+02  0.23266063358E+02  0.00000000000E+00 0. -1.
<mgrwt>
<rscale>  0 0.42991098E+03</rscale>
<asrwt>0</asrwt>
<pdfrwt beam="2">  1        2 0.75758992E-01 0.62221917E+03</pdfrwt>
<pdfrwt beam="1">  1       -2 0.48695123E-01 0.62221917E+03</pdfrwt>
<totfact> 0.25372271E+02</totfact>
</mgrwt>
</event>
<event>
 6    1  0.7457796E-006  0.1564586E+03  0.7546771E-02  0.1198558E+00
          2   -1    0    0  501    0  0.00000000000E+00  0.00000000000E+00  0.61052278186E+02  0.61052278186E+02  0.00000000000E+00 0. -1.
         -2   -1    0    0    0  501 -0.00000000000E+00 -0.00000000000E+00 -0.72564219241E+03  0.72564219241E+03  0.00000000000E+00 0.  1.
          5    1    1    2  502    0 -0.26922730115E+02  0.59716981080E+01 -0.84948477404E+02  0.89436169352E+02  0.47000000000E+01 0. -1.
         -5    1    1    2    0  502  0.10651126931E+03 -0.69576432091E+02 -0.53865079562E+03  0.55349101168E+03  0.47000000000E+01 0.  1.
        -11    1    1    2    0    0  0.11267134631E+02 -0.88043232516E+01  0.94187129979E+01  0.17122400102E+02  0.00000000000E+00 0. -1.
         11    1    1    2    0    0 -0.90855673823E+02  0.72409057235E+02 -0.50409354200E+02  0.12664488946E+03  0.00000000000E+00 0.  1.
<mgrwt>
<rscale>  0 0.15156951E+03</rscale>
<asrwt>0</asrwt>
<pdfrwt beam="1">  1        2 0.93926587E-02 0.15645864E+03</pdfrwt>
<pdfrwt beam="2">  1       -2 0.11163725E+00 0.15645864E+03</pdfrwt>
<totfact> 0.45367487E+02</totfact>
</mgrwt>
</event>
<event>
 6    1  0.7457796E-006  0.1818017E+03  0.7546771E-02  0.1183719E+00
         -1   -1    0    0    0  501 -0.00000000000E+00  0.00000000000E+00  0.33388470939E+02  0.33388470939E+02  0.00000000000E+00 0.  1.
          1   -1    0    0  501    0  0.00000000000E+00 -0.00000000000E+00 -0.77766103056E+03  0.77766103056E+03  0.00000000000E+00 0. -1.
          5    1    1    2  502    0  0.88113442677E+02 -0.24692800056E+02 -0.10478194311E+03  0.13919432013E+03  0.47000000000E+01 0. -1.
         -5    1    1    2    0  502 -0.57430630532E+02  0.56833377407E+02 -0.19906181808E+03  0.21488603382E+03  0.47000000000E+01 0.  1.
        -11    1    1    2    0    0  0.37015092717E+02 -0.10031508035E+02 -0.70579697836E+02  0.80325848822E+02  0.00000000000E+00 0. -1.
         11    1    1    2    0    0 -0.67697904862E+02 -0.22109069316E+02 -0.36984910059E+03  0.37664329873E+03  0.00000000000E+00 0.  1.
<mgrwt>
<rscale>  0 0.16449008E+03</rscale>
<asrwt>0</asrwt>
<pdfrwt beam="2">  1        1 0.11964015E+00 0.18180172E+03</pdfrwt>
<pdfrwt beam="1">  1       -1 0.51366881E-02 0.18180172E+03</pdfrwt>
<totfact> 0.40092219E+03</totfact>
</mgrwt>
</event>
<event>
 6    1  0.7457796E-006  0.3694442E+03  0.7546771E-02  0.1087046E+00
         -3   -1    0    0    0  501 -0.00000000000E+00  0.00000000000E+00  0.19274820610E+03  0.19274820610E+03  0.00000000000E+00 0.  1.
          3   -1    0    0  501    0  0.00000000000E+00 -0.00000000000E+00 -0.46077665552E+03  0.46077665552E+03  0.00000000000E+00 0. -1.
          5    1    1    2  502    0 -0.18732566009E+03  0.13671525616E+03 -0.61346356004E+01  0.23203811745E+03  0.47000000000E+01 0. -1.
         -5    1    1    2    0  502  0.13225523544E+03 -0.33586499550E+02 -0.24059810980E+02  0.13863789077E+03  0.47000000000E+01 0.  1.
        -11    1    1    2    0    0  0.10516381845E+02 -0.10118757680E+03 -0.12275730780E+03  0.15943298467E+03  0.00000000000E+00 0. -1.
         11    1    1    2    0    0  0.44554042800E+02 -0.19411798125E+01 -0.11507669505E+03  0.12341586872E+03  0.00000000000E+00 0.  1.
<mgrwt>
<rscale>  0 0.29641676E+03</rscale>
<asrwt>0</asrwt>
<pdfrwt beam="2">  1        3 0.70888716E-01 0.36944418E+03</pdfrwt>
<pdfrwt beam="1">  1       -3 0.29653570E-01 0.36944418E+03</pdfrwt>
<totfact> 0.54061476E+01</totfact>
</mgrwt>
</event>
<event>
 6    1  0.7457796E-006  0.1350661E+03  0.7546771E-02  0.1232234E+00
         -2   -1    0    0    0  501 -0.00000000000E+00  0.00000000000E+00  0.12827880984E+03  0.12827880984E+03  0.00000000000E+00 0.  1.
          2   -1    0    0  501    0  0.00000000000E+00 -0.00000000000E+00 -0.11360174294E+03  0.11360174294E+03  0.00000000000E+00 0. -1.
          5    1    1    2  502    0  0.77454917545E+02 -0.21006051941E+02  0.18989194309E+02  0.82602651111E+02  0.47000000000E+01 0. -1.
         -5    1    1    2    0  502 -0.38271521687E+02  0.37859101491E+02  0.19185795454E+01  0.54072098955E+02  0.47000000000E+01 0.  1.
        -11    1    1    2    0    0 -0.52192064391E+02  0.27283622987E+02 -0.10637754075E+01  0.58902795237E+02  0.00000000000E+00 0. -1.
         11    1    1    2    0    0  0.13008668533E+02 -0.44136672537E+02 -0.51669315421E+01  0.46303007475E+02  0.00000000000E+00 0.  1.
<mgrwt>
<rscale>  0 0.12683203E+03</rscale>
<asrwt>0</asrwt>
<pdfrwt beam="2">  1        2 0.17477191E-01 0.13506610E+03</pdfrwt>
<pdfrwt beam="1">  1       -2 0.19735201E-01 0.13506610E+03</pdfrwt>
<totfact> 0.66244685E+03</totfact>
</mgrwt>
</event>
<event>
 6    1  0.7457796E-006  0.2978341E+03  0.7546771E-02  0.1096780E+00
          2   -1    0    0  501    0  0.00000000000E+00  0.00000000000E+00  0.33521541126E+03  0.33521541126E+03  0.00000000000E+00 0. -1.
         -2   -1    0    0    0  501 -0.00000000000E+00 -0.00000000000E+00 -0.20761571777E+03  0.20761571777E+03  0.00000000000E+00 0.  1.
          5    1    1    2  502    0  0.12558197774E+03  0.37594880719E+02  0.11568274879E+03  0.17489653101E+03  0.47000000000E+01 0. -1.
         -5    1    1    2    0  502  0.79312283091E+02 -0.62235225768E+02 -0.74948626066E+02  0.12571017510E+03  0.47000000000E+01 0.  1.
        -11    1    1    2    0    0 -0.10078794906E+03 -0.32483264405E+02  0.54749974077E+02  0.11920961708E+03  0.00000000000E+00 0. -1.
         11    1    1    2    0    0 -0.10410631177E+03  0.57123609454E+02  0.32115596684E+02  0.12301480585E+03  0.00000000000E+00 0.  1.
<mgrwt>
<rscale>  0 0.27801108E+03</rscale>
<asrwt>0</asrwt>
<pdfrwt beam="1">  1        2 0.51571602E-01 0.29783405E+03</pdfrwt>
<pdfrwt beam="2">  1       -2 0.31940880E-01 0.29783405E+03</pdfrwt>
<totfact> 0.88495945E+02</totfact>
</mgrwt>
</event>
<event>
 6    1  0.7457796E-006  0.1483091E+03  0.7546771E-02  0.1212533E+00
          2   -1    0    0  501    0  0.00000000000E+00  0.00000000000E+00  0.11253095038E+03  0.11253095038E+03  0.00000000000E+00 0. -1.
         -2   -1    0    0    0  501 -0.00000000000E+00 -0.00000000000E+00 -0.24564709636E+03  0.24564709636E+03  0.00000000000E+00 0.  1.
          5    1    1    2  502    0 -0.68384067853E+02 -0.67165276387E+02 -0.10069482380E+03  0.13910101592E+03  0.47000000000E+01 0.  1.
         -5    1    1    2    0  502  0.49804135951E+02 -0.10445934413E+02 -0.76034027917E+02  0.91612405846E+02  0.47000000000E+01 0.  1.
        -11    1    1    2    0    0 -0.18024073353E+02  0.31352933216E+02  0.56501424133E+02  0.67084160355E+02  0.00000000000E+00 0. -1.
         11    1    1    2    0    0  0.36604005254E+02  0.46258277584E+02 -0.12888718388E+02  0.60380464617E+02  0.00000000000E+00 0.  1.
<mgrwt>
<rscale>  0 0.14059312E+03</rscale>
<asrwt>0</asrwt>
<pdfrwt beam="1">  1        2 0.17312454E-01 0.14830912E+03</pdfrwt>
<pdfrwt beam="2">  1       -2 0.37791860E-01 0.14830912E+03</pdfrwt>
<totfact> 0.21244049E+03</totfact>
</mgrwt>
</event>
<event>
 6    1  0.7457796E-006  0.1898999E+03  0.7546771E-02  0.1163368E+00
         -1   -1    0    0    0  501 -0.00000000000E+00  0.00000000000E+00  0.10269377211E+03  0.10269377211E+03  0.00000000000E+00 0.  1.
          1   -1    0    0  501    0  0.00000000000E+00 -0.00000000000E+00 -0.35205821004E+03  0.35205821004E+03  0.00000000000E+00 0. -1.
          5    1    1    2  502    0 -0.45471432430E+01  0.56491314688E+02  0.34428649687E+02  0.66478320272E+02  0.47000000000E+01 0.  1.
         -5    1    1    2    0  502 -0.63466558889E+02  0.70262495937E+02 -0.91642676660E+02  0.13185329961E+03  0.47000000000E+01 0.  1.
        -11    1    1    2    0    0  0.13952413079E+02 -0.10914551002E+03 -0.10323289035E+03  0.15087889793E+03  0.00000000000E+00 0. -1.
         11    1    1    2    0    0  0.54061289053E+02 -0.17608300603E+02 -0.88917520602E+02  0.10554146434E+03  0.00000000000E+00 0.  1.
<mgrwt>
<rscale>  0 0.18466028E+03</rscale>
<asrwt>0</asrwt>
<pdfrwt beam="2">  1        1 0.54162801E-01 0.18989994E+03</pdfrwt>
<pdfrwt beam="1">  1       -1 0.15799042E-01 0.18989994E+03</pdfrwt>
<totfact> 0.20882060E+03</totfact>
</mgrwt>
</event>
<event>
 6    1  0.7457796E-006  0.1849168E+03  0.7546771E-02  0.1168778E+00
         -1   -1    0    0    0  501 -0.00000000000E+00  0.00000000000E+00  0.90169939300E+03  0.90169939300E+03  0.00000000000E+00 0.  1.
          1   -1    0    0  501    0  0.00000000000E+00 -0.00000000000E+00 -0.38956667211E+02  0.38956667211E+02  0.00000000000E+00 0. -1.
          5    1    1    2  502    0  0.83189180139E+02  0.88703814191E+02  0.35806609139E+03  0.37818278934E+03  0.47000000000E+01 0.  1.
         -5    1    1    2    0  502  0.43972143135E+02 -0.39733201292E+02  0.27412417435E+03  0.28049675510E+03  0.47000000000E+01 0.  1.
        -11    1    1    2    0    0 -0.12802654052E+03 -0.19718378816E+02  0.16187478368E+03  0.20732355180E+03  0.00000000000E+00 0. -1.
         11    1    1    2    0    0  0.86521724343E+00 -0.29252234084E+02  0.68677676364E+02  0.74652963977E+02  0.00000000000E+00 0.  1.
<mgrwt>
<rscale>  0 0.17899579E+03</rscale>
<asrwt>0</asrwt>
<pdfrwt beam="2">  1        1 0.59933341E-02 0.18491677E+03</pdfrwt>
<pdfrwt beam="1">  1       -1 0.13872297E+00 0.18491677E+03</pdfrwt>
<totfact> 0.59680944E+02</totfact>
</mgrwt>
</event>
<event>
 6    1  0.7457796E-006  0.1854670E+03  0.7546771E-02  0.1167764E+00
         -2   -1    0    0    0  501 -0.00000000000E+00  0.00000000000E+00  0.21826042997E+03  0.21826042997E+03  0.00000000000E+00 0.  1.
          2   -1    0    0  501    0  0.00000000000E+00 -0.00000000000E+00 -0.18551481457E+03  0.18551481457E+03  0.00000000000E+00 0. -1.
          5    1    1    2  502    0  0.70639181842E+02  0.60597637422E+02  0.13658336862E+03  0.16534531822E+03  0.47000000000E+01 0. -1.
         -5    1    1    2    0  502  0.49195880004E+02  0.58354752928E+01 -0.20097502882E+02  0.53668305390E+02  0.47000000000E+01 0. -1.
        -11    1    1    2    0    0 -0.10709621331E+03 -0.11707151614E+02 -0.46429180600E+02  0.11731293669E+03  0.00000000000E+00 0.  1.
         11    1    1    2    0    0 -0.12738848540E+02 -0.54725961101E+02 -0.37311069745E+02  0.67448684243E+02  0.00000000000E+00 0. -1.
<mgrwt>
<rscale>  0 0.18004044E+03</rscale>
<asrwt>0</asrwt>
<pdfrwt beam="2">  1        2 0.28540741E-01 0.18546701E+03</pdfrwt>
<pdfrwt beam="1">  1       -2 0.33578528E-01 0.18546701E+03</pdfrwt>
<totfact> 0.15213964E+03</totfact>
</mgrwt>
</event>
<event>
 6    1  0.7457796E-006  0.1474164E+03  0.7546771E-02  0.1214537E+00
          4   -1    0    0  501    0  0.00000000000E+00  0.00000000000E+00  0.87098060046E+02  0.87098060046E+02  0.00000000000E+00 0. -1.
         -4   -1    0    0    0  501 -0.00000000000E+00 -0.00000000000E+00 -0.23415826178E+03  0.23415826178E+03  0.00000000000E+00 0.  1.
          5    1    1    2  502    0  0.43240715807E+02 -0.32169827856E+02 -0.53086958802E+02  0.75795596987E+02  0.47000000000E+01 0.  1.
         -5    1    1    2    0  502  0.58172437719E+01  0.93005759976E+02 -0.88265471792E+02  0.12843985061E+03  0.47000000000E+01 0.  1.
        -11    1    1    2    0    0  0.13205744890E+00 -0.33938651342E+02 -0.39093046913E+02  0.51769834953E+02  0.00000000000E+00 0.  1.
         11    1    1    2    0    0 -0.49190017028E+02 -0.26897280777E+02  0.33385275772E+02  0.65251039277E+02  0.00000000000E+00 0. -1.
<mgrwt>
<rscale>  0 0.13910604E+03</rscale>
<asrwt>0</asrwt>
<pdfrwt beam="1">  1        4 0.13399702E-01 0.14741645E+03</pdfrwt>
<pdfrwt beam="2">  1       -4 0.36024348E-01 0.14741645E+03</pdfrwt>
<totfact> 0.57780775E+02</totfact>
</mgrwt>
</event>
<event>
 6    1  0.7457796E-006  0.1732816E+03  0.7546771E-02  0.1180575E+00
          1   -1    0    0  501    0  0.00000000000E+00  0.00000000000E+00  0.13620282012E+04  0.13620282012E+04  0.00000000000E+00 0. -1.
         -1   -1    0    0    0  501 -0.00000000000E+00 -0.00000000000E+00 -0.19579284336E+02  0.19579284336E+02  0.00000000000E+00 0.  1.
          5    1    1    2  502    0  0.57978232754E+02  0.93531768965E+02  0.62712761322E+03  0.63672662936E+03  0.47000000000E+01 0.  1.
         -5    1    1    2    0  502 -0.95205774355E+01  0.16260271810E+02  0.69882369563E+01  0.20638878114E+02  0.47000000000E+01 0.  1.
        -11    1    1    2    0    0  0.19485764149E+02 -0.18655454631E+02  0.56972004452E+02  0.63035944375E+02  0.00000000000E+00 0.  1.
         11    1    1    2    0    0 -0.67943419468E+02 -0.91136586143E+02  0.65136106223E+03  0.66120603368E+03  0.00000000000E+00 0. -1.
<mgrwt>
<rscale>  0 0.16741100E+03</rscale>
<asrwt>0</asrwt>
<pdfrwt beam="1">  1        1 0.20954273E+00 0.17328156E+03</pdfrwt>
<pdfrwt beam="2">  1       -1 0.30121987E-02 0.17328156E+03</pdfrwt>
<totfact> 0.32985694E+03</totfact>
</mgrwt>
</event>
<event>
 6    1  0.7457796E-006  0.3172491E+03  0.7546771E-02  0.1076922E+00
         -1   -1    0    0    0  501 -0.00000000000E+00  0.00000000000E+00  0.17753294003E+02  0.17753294003E+02  0.00000000000E+00 0.  1.
          1   -1    0    0  501    0  0.00000000000E+00 -0.00000000000E+00 -0.14173002822E+04  0.14173002822E+04  0.00000000000E+00 0. -1.
          5    1    1    2  502    0  0.30584991378E+02 -0.13189822224E+03 -0.51678084727E+03  0.53424443547E+03  0.47000000000E+01 0.  1.
         -5    1    1    2    0  502 -0.70629446462E+01  0.19549836921E+02 -0.25915841263E+03  0.26003317894E+03  0.47000000000E+01 0.  1.
        -11    1    1    2    0    0 -0.54596449350E+02  0.89893829432E+02 -0.51418583483E+03  0.52483211181E+03  0.00000000000E+00 0. -1.
         11    1    1    2    0    0  0.31074402619E+02  0.22454555889E+02 -0.10942189347E+03  0.11594384998E+03  0.00000000000E+00 0.  1.
<mgrwt>
<rscale>  0 0.31724910E+03</rscale>
<asrwt>0</asrwt>
<pdfrwt beam="2">  1        1 0.21804626E+00 0.31724910E+03</pdfrwt>
<pdfrwt beam="1">  1       -1 0.27312753E-02 0.31724910E+03</pdfrwt>
<totfact> 0.35268320E+03</totfact>
</mgrwt>
</event>
<event>
 6    1  0.7457796E-006  0.1802728E+03  0.7546771E-02  0.1172373E+00
          1   -1    0    0  501    0  0.00000000000E+00  0.00000000000E+00  0.35849538590E+02  0.35849538590E+02  0.00000000000E+00 0. -1.
         -1   -1    0    0    0  501 -0.00000000000E+00 -0.00000000000E+00 -0.10042769196E+04  0.10042769196E+04  0.00000000000E+00 0.  1.
          5    1    1    2  502    0 -0.66420094477E+02 -0.50187701737E+02 -0.24838709141E+03  0.26200891499E+03  0.47000000000E+01 0.  1.
         -5    1    1    2    0  502  0.44381974899E+02 -0.77823458396E+02 -0.48353396866E+03  0.49178596891E+03  0.47000000000E+01 0.  1.
        -11    1    1    2    0    0 -0.32564888352E+01  0.91901402363E+02 -0.74251711387E+02  0.11819386245E+03  0.00000000000E+00 0. -1.
         11    1    1    2    0    0  0.25294608413E+02  0.36109757770E+02 -0.16225460950E+03  0.16813771179E+03  0.00000000000E+00 0.  1.
<mgrwt>
<rscale>  0 0.17535767E+03</rscale>
<asrwt>0</asrwt>
<pdfrwt beam="1">  1        1 0.55153132E-02 0.18027282E+03</pdfrwt>
<pdfrwt beam="2">  1       -1 0.15450415E+00 0.18027282E+03</pdfrwt>
<totfact> 0.50651141E+02</totfact>
</mgrwt>
</event>
<event>
 6    1  0.7457796E-006  0.1453300E+03  0.7546771E-02  0.1215642E+00
         -2   -1    0    0    0  501 -0.00000000000E+00  0.00000000000E+00  0.99220809653E+02  0.99220809653E+02  0.00000000000E+00 0.  1.
          2   -1    0    0  501    0  0.00000000000E+00 -0.00000000000E+00 -0.17649613544E+03  0.17649613544E+03  0.00000000000E+00 0. -1.
          5    1    1    2  502    0  0.10453907522E+03 -0.20343138644E+02 -0.53381504284E+02  0.11922221495E+03  0.47000000000E+01 0.  1.
         -5    1    1    2    0  502 -0.32674653973E+02  0.22948787580E+01  0.60131176191E+01  0.33632529852E+02  0.47000000000E+01 0.  1.
        -11    1    1    2    0    0 -0.57163852632E+02  0.64524998421E+01 -0.62705300210E+02  0.85095801755E+02  0.00000000000E+00 0. -1.
         11    1    1    2    0    0 -0.14700568619E+02  0.11595760044E+02  0.32798361084E+02  0.37766398538E+02  0.00000000000E+00 0.  1.
<mgrwt>
<rscale>  0 0.13829458E+03</rscale>
<asrwt>0</asrwt>
<pdfrwt beam="2">  1        2 0.27153251E-01 0.14533000E+03</pdfrwt>
<pdfrwt beam="1">  1       -2 0.15264740E-01 0.14533000E+03</pdfrwt>
<totfact> 0.62269744E+03</totfact>
</mgrwt>
</event>
<event>
 6    1  0.7457796E-006  0.1615135E+03  0.7546771E-02  0.1197618E+00
         -2   -1    0    0    0  501 -0.00000000000E+00  0.00000000000E+00  0.52957654373E+02  0.52957654373E+02  0.00000000000E+00 0.  1.
          2   -1    0    0  501    0  0.00000000000E+00 -0.00000000000E+00 -0.39610516704E+03  0.39610516704E+03  0.00000000000E+00 0. -1.
          5    1    1    2  502    0  0.48215664740E+02  0.68471361638E+02 -0.30288228657E+02  0.89177040129E+02  0.47000000000E+01 0. -1.
         -5    1    1    2    0  502  0.27806130027E+02 -0.30314882560E-01 -0.15105334948E+03  0.15366322323E+03  0.47000000000E+01 0. -1.
        -11    1    1    2    0    0 -0.82192475906E+02 -0.28902392712E+02 -0.10045574849E+03  0.13297484275E+03  0.00000000000E+00 0.  1.
         11    1    1    2    0    0  0.61706811385E+01 -0.39538654043E+02 -0.61350186045E+02  0.73247715303E+02  0.00000000000E+00 0. -1.
<mgrwt>
<rscale>  0 0.15234741E+03</rscale>
<asrwt>0</asrwt>
<pdfrwt beam="2">  1        2 0.60939256E-01 0.16151355E+03</pdfrwt>
<pdfrwt beam="1">  1       -2 0.81473316E-02 0.16151355E+03</pdfrwt>
<totfact> 0.71577540E+03</totfact>
</mgrwt>
</event>
<event>
 6    1  0.7457796E-006  0.3582550E+03  0.7546771E-02  0.1059277E+00
          2   -1    0    0  501    0  0.00000000000E+00  0.00000000000E+00  0.75262541993E+03  0.75262541993E+03  0.00000000000E+00 0. -1.
         -2   -1    0    0    0  501 -0.00000000000E+00 -0.00000000000E+00 -0.42632966840E+02  0.42632966840E+02  0.00000000000E+00 0.  1.
          5    1    1    2  502    0 -0.15298791429E+03  0.69418398763E+01  0.33617036510E+03  0.36944024609E+03  0.47000000000E+01 0.  1.
         -5    1    1    2    0  502  0.13586581770E+02  0.16458166341E+02  0.83844822861E+01  0.23406323647E+02  0.47000000000E+01 0.  1.
        -11    1    1    2    0    0  0.39586503900E+02 -0.37428730258E+02  0.61318284274E+02  0.82023978970E+02  0.00000000000E+00 0.  1.
         11    1    1    2    0    0  0.99814828623E+02  0.14028724041E+02  0.30411932143E+03  0.32038783806E+03  0.00000000000E+00 0. -1.
<mgrwt>
<rscale>  0 0.35825496E+03</rscale>
<asrwt>0</asrwt>
<pdfrwt beam="1">  1        2 0.11578852E+00 0.35825496E+03</pdfrwt>
<pdfrwt beam="2">  1       -2 0.65589185E-02 0.35825496E+03</pdfrwt>
<totfact> 0.49655864E+03</totfact>
</mgrwt>
</event>
<event>
 6    1  0.7457796E-006  0.1264852E+03  0.7546771E-02  0.1244365E+00
          1   -1    0    0  501    0  0.00000000000E+00  0.00000000000E+00  0.35616537304E+03  0.35616537304E+03  0.00000000000E+00 0. -1.
         -1   -1    0    0    0  501 -0.00000000000E+00 -0.00000000000E+00 -0.37462788528E+02  0.37462788528E+02  0.00000000000E+00 0.  1.
          5    1    1    2  502    0  0.41228653857E+02  0.23935666325E+02  0.98998892824E+02  0.10997994727E+03  0.47000000000E+01 0.  1.
         -5    1    1    2    0  502 -0.54930167010E+02 -0.37577180038E+02  0.39285134278E+02  0.77425961296E+02  0.47000000000E+01 0.  1.
        -11    1    1    2    0    0  0.51947496157E+02 -0.58308799606E+01  0.12935723560E+03  0.13952001978E+03  0.00000000000E+00 0.  1.
         11    1    1    2    0    0 -0.38245983004E+02  0.19472393673E+02  0.51061321813E+02  0.66702233221E+02  0.00000000000E+00 0. -1.
<mgrwt>
<rscale>  0 0.11923492E+03</rscale>
<asrwt>0</asrwt>
<pdfrwt beam="1">  1        1 0.54794671E-01 0.12648519E+03</pdfrwt>
<pdfrwt beam="2">  1       -1 0.57635062E-02 0.12648519E+03</pdfrwt>
<totfact> 0.94315288E+03</totfact>
</mgrwt>
</event>
<event>
 6    1  0.7457796E-006  0.1473564E+03  0.7546771E-02  0.1245480E+00
         -2   -1    0    0    0  501 -0.00000000000E+00  0.00000000000E+00  0.15062351093E+02  0.15062351093E+02  0.00000000000E+00 0.  1.
          2   -1    0    0  501    0  0.00000000000E+00 -0.00000000000E+00 -0.72629255312E+03  0.72629255312E+03  0.00000000000E+00 0. -1.
          5    1    1    2  502    0  0.70577663695E+02  0.91699640333E+01 -0.43787838387E+03  0.44364948316E+03  0.47000000000E+01 0. -1.
         -5    1    1    2    0  502 -0.30345155032E+02  0.32226609547E+02 -0.54841439663E+02  0.70633252092E+02  0.47000000000E+01 0.  1.
        -11    1    1    2    0    0 -0.15578414229E+02 -0.29120310638E+02 -0.96596076597E+02  0.10208565764E+03  0.00000000000E+00 0. -1.
         11    1    1    2    0    0 -0.24654094434E+02 -0.12276262942E+02 -0.12191430190E+03  0.12498651132E+03  0.00000000000E+00 0.  1.
<mgrwt>
<rscale>  0 0.11856687E+03</rscale>
<asrwt>0</asrwt>
<pdfrwt beam="2">  1        2 0.11173729E+00 0.14735640E+03</pdfrwt>
<pdfrwt beam="1">  1       -2 0.23172853E-02 0.14735640E+03</pdfrwt>
<totfact> 0.23700497E+04</totfact>
</mgrwt>
</event>
<event>
 6    1  0.7457796E-006  0.3131616E+03  0.7546771E-02  0.1080241E+00
          2   -1    0    0  501    0  0.00000000000E+00  0.00000000000E+00  0.11502281399E+04  0.11502281399E+04  0.00000000000E+00 0. -1.
         -2   -1    0    0    0  501 -0.00000000000E+00 -0.00000000000E+00 -0.99248684421E+02  0.99248684421E+02  0.00000000000E+00 0.  1.
          5    1    1    2  502    0  0.18622674831E+03 -0.21181760564E+03  0.25690657414E+03  0.38153660071E+03  0.47000000000E+01 0.  1.
         -5    1    1    2    0  502 -0.19811563305E+02 -0.22171670592E+02  0.17374748507E+02  0.34757055444E+02  0.47000000000E+01 0.  1.
        -11    1    1    2    0    0 -0.16796488402E+03  0.17807520964E+03  0.60687974025E+03  0.65438979338E+03  0.00000000000E+00 0. -1.
         11    1    1    2    0    0  0.15496990187E+01  0.55914066589E+02  0.16981839256E+03  0.17879337477E+03  0.00000000000E+00 0.  1.
<mgrwt>
<rscale>  0 0.31021818E+03</rscale>
<asrwt>0</asrwt>
<pdfrwt beam="1">  1        2 0.17695817E+00 0.31316156E+03</pdfrwt>
<pdfrwt beam="2">  1       -2 0.15269029E-01 0.31316156E+03</pdfrwt>
<totfact> 0.70959978E+02</totfact>
</mgrwt>
</event>
<event>
 6    1  0.7457796E-006  0.1399823E+03  0.7546771E-02  0.1221973E+00
         -2   -1    0    0    0  501 -0.00000000000E+00  0.00000000000E+00  0.79430404326E+02  0.79430404326E+02  0.00000000000E+00 0.  1.
          2   -1    0    0  501    0  0.00000000000E+00 -0.00000000000E+00 -0.20821070086E+03  0.20821070086E+03  0.00000000000E+00 0. -1.
          5    1    1    2  502    0 -0.48883071934E+01  0.33251360879E+02  0.35984408500E+02  0.49462270497E+02  0.47000000000E+01 0. -1.
         -5    1    1    2    0  502  0.20550944203E+02  0.27784125594E+02 -0.97296549084E+02  0.10335863489E+03  0.47000000000E+01 0. -1.
        -11    1    1    2    0    0 -0.29668176632E+02 -0.28670144603E+02 -0.85704756634E+02  0.95118259057E+02  0.00000000000E+00 0. -1.
         11    1    1    2    0    0  0.14005539622E+02 -0.32365341871E+02  0.18236600681E+02  0.39701940745E+02  0.00000000000E+00 0.  1.
<mgrwt>
<rscale>  0 0.13376580E+03</rscale>
<asrwt>0</asrwt>
<pdfrwt beam="2">  1        2 0.32032415E-01 0.13998232E+03</pdfrwt>
<pdfrwt beam="1">  1       -2 0.12220062E-01 0.13998232E+03</pdfrwt>
<totfact> 0.74423360E+03</totfact>
</mgrwt>
</event>
<event>
 6    1  0.7457796E-006  0.2256275E+03  0.7546771E-02  0.1129756E+00
         -2   -1    0    0    0  501 -0.00000000000E+00  0.00000000000E+00  0.10776766641E+03  0.10776766641E+03  0.00000000000E+00 0.  1.
          2   -1    0    0  501    0  0.00000000000E+00 -0.00000000000E+00 -0.11809609089E+03  0.11809609089E+03  0.00000000000E+00 0. -1.
          5    1    1    2  502    0 -0.37655895148E+02 -0.84333907677E+01 -0.55111529504E+02  0.67442265705E+02  0.47000000000E+01 0. -1.
         -5    1    1    2    0  502 -0.70297108645E+01 -0.19053623414E+00  0.55921219689E+02  0.56557280260E+02  0.47000000000E+01 0.  1.
        -11    1    1    2    0    0  0.58585525397E+02  0.32801394538E+02  0.86086192765E+01  0.67692714494E+02  0.00000000000E+00 0.  1.
         11    1    1    2    0    0 -0.13899919385E+02 -0.24177467536E+02 -0.19746733945E+02  0.34171496848E+02  0.00000000000E+00 0. -1.
<mgrwt>
<rscale>  0 0.22562748E+03</rscale>
<asrwt>0</asrwt>
<pdfrwt beam="2">  1        2 0.18168629E-01 0.22562748E+03</pdfrwt>
<pdfrwt beam="1">  1       -2 0.16579641E-01 0.22562748E+03</pdfrwt>
<totfact> 0.87914507E+03</totfact>
</mgrwt>
</event>
<event>
 6    1  0.7457796E-006  0.1264363E+03  0.7546771E-02  0.1243444E+00
          1   -1    0    0  501    0  0.00000000000E+00  0.00000000000E+00  0.59345297212E+02  0.59345297212E+02  0.00000000000E+00 0. -1.
         -1   -1    0    0    0  501 -0.00000000000E+00 -0.00000000000E+00 -0.24186947865E+03  0.24186947865E+03  0.00000000000E+00 0.  1.
          5    1    1    2  502    0  0.32963799469E+02  0.22506782814E+02 -0.13932820343E+03  0.14500898461E+03  0.47000000000E+01 0.  1.
         -5    1    1    2    0  502 -0.25248495430E+02 -0.39889197272E+02 -0.63169460974E+01  0.47860509697E+02  0.47000000000E+01 0.  1.
        -11    1    1    2    0    0  0.55732940383E+01 -0.29678526340E+02  0.17749014982E+02  0.35027190367E+02  0.00000000000E+00 0. -1.
         11    1    1    2    0    0 -0.13288598077E+02  0.47060940797E+02 -0.54628046893E+02  0.73318091185E+02  0.00000000000E+00 0.  1.
<mgrwt>
<rscale>  0 0.11979021E+03</rscale>
<asrwt>0</asrwt>
<pdfrwt beam="1">  1        1 0.91300457E-02 0.12643628E+03</pdfrwt>
<pdfrwt beam="2">  1       -1 0.37210689E-01 0.12643628E+03</pdfrwt>
<totfact> 0.48420131E+03</totfact>
</mgrwt>
</event>
<event>
 6    1  0.7457796E-006  0.1627930E+03  0.7546771E-02  0.1225190E+00
         -4   -1    0    0    0  501 -0.00000000000E+00  0.00000000000E+00  0.11263175814E+03  0.11263175814E+03  0.00000000000E+00 0. -1.
          4   -1    0    0  501    0  0.00000000000E+00 -0.00000000000E+00 -0.14135073274E+03  0.14135073274E+03  0.00000000000E+00 0.  1.
          5    1    1    2  502    0 -0.96731801870E+01 -0.76906467210E+02  0.95667547584E+01  0.78241855232E+02  0.47000000000E+01 0.  1.
         -5    1    1    2    0  502  0.26215490108E+02  0.80727079374E+02  0.17397974089E+02  0.86769192507E+02  0.47000000000E+01 0. -1.
        -11    1    1    2    0    0 -0.31141027977E+02  0.11202515708E+02 -0.59111072890E+02  0.67744954940E+02  0.00000000000E+00 0.  1.
         11    1    1    2    0    0  0.14598718056E+02 -0.15023127873E+02  0.34273694521E+01  0.21226488201E+02  0.00000000000E+00 0. -1.
<mgrwt>
<rscale>  0 0.13153884E+03</rscale>
<asrwt>0</asrwt>
<pdfrwt beam="2">  1        4 0.21746267E-01 0.16279296E+03</pdfrwt>
<pdfrwt beam="1">  1       -4 0.17327963E-01 0.16279296E+03</pdfrwt>
<totfact> 0.96895618E+02</totfact>
</mgrwt>
</event>
<event>
 6    1  0.7457796E-006  0.1261343E+03  0.7546771E-02  0.1248697E+00
         -4   -1    0    0    0  501 -0.00000000000E+00  0.00000000000E+00  0.27573449850E+02  0.27573449850E+02  0.00000000000E+00 0.  1.
          4   -1    0    0  501    0  0.00000000000E+00 -0.00000000000E+00 -0.43336983254E+03  0.43336983254E+03  0.00000000000E+00 0. -1.
          5    1    1    2  502    0  0.52208857281E+02 -0.41831954435E+02 -0.17939226026E+03  0.19151853757E+03  0.47000000000E+01 0. -1.
         -5    1    1    2    0  502 -0.44583690354E+02  0.26768591581E+02 -0.63838603208E+02  0.82472542100E+02  0.47000000000E+01 0. -1.
        -11    1    1    2    0    0 -0.24207482908E+02  0.28342585461E+02 -0.16143059956E+03  0.16567782849E+03  0.00000000000E+00 0. -1.
         11    1    1    2    0    0  0.16582315981E+02 -0.13279222607E+02 -0.11349196618E+01  0.21274374232E+02  0.00000000000E+00 0.  1.
<mgrwt>
<rscale>  0 0.11666823E+03</rscale>
<asrwt>0</asrwt>
<pdfrwt beam="2">  1        4 0.66672283E-01 0.12613429E+03</pdfrwt>
<pdfrwt beam="1">  1       -4 0.42420691E-02 0.12613429E+03</pdfrwt>
<totfact> 0.10723342E+03</totfact>
</mgrwt>
</event>
<event>
 6    1  0.7457796E-006  0.1419073E+03  0.7546771E-02  0.1227475E+00
         -1   -1    0    0    0  501 -0.00000000000E+00  0.00000000000E+00  0.28829703195E+03  0.28829703195E+03  0.00000000000E+00 0.  1.
          1   -1    0    0  501    0  0.00000000000E+00 -0.00000000000E+00 -0.85167595957E+02  0.85167595957E+02  0.00000000000E+00 0. -1.
          5    1    1    2  502    0  0.11904809055E+02 -0.48521171656E+02  0.96940523237E+02  0.10915852520E+03  0.47000000000E+01 0. -1.
         -5    1    1    2    0  502 -0.19411891941E+02  0.88580537124E+02  0.13283931885E+03  0.16090900453E+03  0.47000000000E+01 0.  1.
        -11    1    1    2    0    0  0.42413455600E+02 -0.18089586155E+02 -0.38948151880E+02  0.60358039051E+02  0.00000000000E+00 0. -1.
         11    1    1    2    0    0 -0.34906372714E+02 -0.21969779313E+02  0.12297745781E+02  0.43039059126E+02  0.00000000000E+00 0.  1.
<mgrwt>
<rscale>  0 0.12998669E+03</rscale>
<asrwt>0</asrwt>
<pdfrwt beam="2">  1        1 0.13102707E-01 0.14190735E+03</pdfrwt>
<pdfrwt beam="1">  1       -1 0.44353389E-01 0.14190735E+03</pdfrwt>
<totfact> 0.22229296E+03</totfact>
</mgrwt>
</event>
<event>
 6    1  0.7457796E-006  0.2678353E+03  0.7546771E-02  0.1102525E+00
         -2   -1    0    0    0  501 -0.00000000000E+00  0.00000000000E+00  0.66322440697E+02  0.66322440697E+02  0.00000000000E+00 0. -1.
          2   -1    0    0  501    0  0.00000000000E+00 -0.00000000000E+00 -0.27040535515E+03  0.27040535515E+03  0.00000000000E+00 0.  1.
          5    1    1    2  502    0 -0.34374159742E+02  0.16356106630E+02 -0.11480374331E+02  0.40037408468E+02  0.47000000000E+01 0.  1.
         -5    1    1    2    0  502  0.52826525903E+02 -0.91609786644E+02 -0.86250755237E+02  0.13654405013E+03  0.47000000000E+01 0.  1.
        -11    1    1    2    0    0  0.30667275830E+02  0.49492195973E+02 -0.79453597476E+02  0.98502961483E+02  0.00000000000E+00 0.  1.
         11    1    1    2    0    0 -0.49119641990E+02  0.25761484041E+02 -0.26898187405E+02  0.61643375759E+02  0.00000000000E+00 0. -1.
<mgrwt>
<rscale>  0 0.26783535E+03</rscale>
<asrwt>0</asrwt>
<pdfrwt beam="2">  1        2 0.41600824E-01 0.26783535E+03</pdfrwt>
<pdfrwt beam="1">  1       -2 0.10203452E-01 0.26783535E+03</pdfrwt>
<totfact> 0.77930441E+03</totfact>
</mgrwt>
</event>
<event>
 6    1  0.7457796E-006  0.1587415E+03  0.7546771E-02  0.1198018E+00
         -3   -1    0    0    0  501 -0.00000000000E+00  0.00000000000E+00  0.29363997696E+03  0.29363997696E+03  0.00000000000E+00 0.  1.
          3   -1    0    0  501    0  0.00000000000E+00 -0.00000000000E+00 -0.73665138479E+02  0.73665138479E+02  0.00000000000E+00 0. -1.
          5    1    1    2  502    0  0.85306015233E+02  0.80634705588E+02  0.50185768170E+02  0.12774886812E+03  0.47000000000E+01 0.  1.
         -5    1    1    2    0  502  0.50220377681E+00 -0.33630136361E+02  0.48361349175E+02  0.59094402225E+02  0.47000000000E+01 0.  1.
        -11    1    1    2    0    0 -0.78243559208E+01  0.13321776301E+02  0.65108115962E+02  0.66916044664E+02  0.00000000000E+00 0.  1.
         11    1    1    2    0    0 -0.77983863089E+02 -0.60326345528E+02  0.56319605169E+02  0.11354580042E+03  0.00000000000E+00 0. -1.
<mgrwt>
<rscale>  0 0.15201513E+03</rscale>
<asrwt>0</asrwt>
<pdfrwt beam="2">  1        3 0.11333098E-01 0.15874153E+03</pdfrwt>
<pdfrwt beam="1">  1       -3 0.45175380E-01 0.15874153E+03</pdfrwt>
<totfact> 0.69280218E+02</totfact>
</mgrwt>
</event>
<event>
 6    1  0.7457796E-006  0.1277904E+03  0.7546771E-02  0.1236686E+00
          1   -1    0    0  501    0  0.00000000000E+00  0.00000000000E+00  0.42050539802E+02  0.42050539802E+02  0.00000000000E+00 0. -1.
         -1   -1    0    0    0  501 -0.00000000000E+00 -0.00000000000E+00 -0.38586633635E+03  0.38586633635E+03  0.00000000000E+00 0.  1.
          5    1    1    2  502    0  0.67077038873E+02 -0.39789334379E+01 -0.17383557860E+03  0.18642977081E+03  0.47000000000E+01 0. -1.
         -5    1    1    2    0  502 -0.52480076145E+02 -0.18187892305E+02 -0.76707070122E+02  0.94821002027E+02  0.47000000000E+01 0. -1.
        -11    1    1    2    0    0 -0.19058425509E+02 -0.26104234502E+02  0.89444557093E+01  0.33535919993E+02  0.00000000000E+00 0. -1.
         11    1    1    2    0    0  0.44614627811E+01  0.48271060245E+02 -0.10221760353E+03  0.11313018332E+03  0.00000000000E+00 0.  1.
<mgrwt>
<rscale>  0 0.12397147E+03</rscale>
<asrwt>0</asrwt>
<pdfrwt beam="1">  1        1 0.64693139E-02 0.12779037E+03</pdfrwt>
<pdfrwt beam="2">  1       -1 0.59364051E-01 0.12779037E+03</pdfrwt>
<totfact> 0.33114029E+03</totfact>
</mgrwt>
</event>
<event>
 6    1  0.7457796E-006  0.2586662E+03  0.7546771E-02  0.1107947E+00
          2   -1    0    0  501    0  0.00000000000E+00  0.00000000000E+00  0.11341507338E+04  0.11341507338E+04  0.00000000000E+00 0. -1.
         -2   -1    0    0    0  501 -0.00000000000E+00 -0.00000000000E+00 -0.14748529402E+02  0.14748529402E+02  0.00000000000E+00 0.  1.
          5    1    1    2  502    0  0.23397482160E+01  0.14753543932E+02  0.25815258783E+01  0.15871224154E+02  0.47000000000E+01 0.  1.
         -5    1    1    2    0  502  0.10925689928E+02 -0.79455286016E+02  0.49216933990E+03  0.49868352922E+03  0.47000000000E+01 0.  1.
        -11    1    1    2    0    0  0.38085103095E+02  0.27970958256E+02  0.27955922302E+03  0.28352461756E+03  0.00000000000E+00 0. -1.
         11    1    1    2    0    0 -0.51350541239E+02  0.36730783828E+02  0.34509211555E+03  0.35081989222E+03  0.00000000000E+00 0.  1.
<mgrwt>
<rscale>  0 0.25866624E+03</rscale>
<asrwt>0</asrwt>
<pdfrwt beam="1">  1        2 0.17448466E+00 0.25866624E+03</pdfrwt>
<pdfrwt beam="2">  1       -2 0.22690054E-02 0.25866624E+03</pdfrwt>
<totfact> 0.13935031E+04</totfact>
</mgrwt>
</event>
<event>
 6    1  0.7457796E-006  0.2219518E+03  0.7546771E-02  0.1135486E+00
          3   -1    0    0  501    0  0.00000000000E+00  0.00000000000E+00  0.34471152165E+03  0.34471152165E+03  0.00000000000E+00 0. -1.
         -3   -1    0    0    0  501 -0.00000000000E+00 -0.00000000000E+00 -0.13672244589E+03  0.13672244589E+03  0.00000000000E+00 0.  1.
          5    1    1    2  502    0 -0.15650792922E+02  0.38746440403E+02  0.77933607075E+02  0.88554904295E+02  0.47000000000E+01 0. -1.
         -5    1    1    2    0  502 -0.14698619842E+02  0.14213265043E+03 -0.10669536626E+02  0.14336550755E+03  0.47000000000E+01 0. -1.
        -11    1    1    2    0    0  0.26412145538E+02 -0.11975070547E+03  0.35340218388E+02  0.12761960636E+03  0.00000000000E+00 0.  1.
         11    1    1    2    0    0  0.39372672258E+01 -0.61128385370E+02  0.10538478692E+03  0.12189394934E+03  0.00000000000E+00 0. -1.
<mgrwt>
<rscale>  0 0.21786288E+03</rscale>
<asrwt>0</asrwt>
<pdfrwt beam="1">  1        3 0.53032541E-01 0.22195185E+03</pdfrwt>
<pdfrwt beam="2">  1       -3 0.21034223E-01 0.22195185E+03</pdfrwt>
<totfact> 0.17961788E+02</totfact>
</mgrwt>
</event>
<event>
 6    1  0.7457796E-006  0.1269890E+03  0.7546771E-02  0.1246411E+00
         -1   -1    0    0    0  501 -0.00000000000E+00  0.00000000000E+00  0.69914148268E+02  0.69914148268E+02  0.00000000000E+00 0.  1.
          1   -1    0    0  501    0  0.00000000000E+00 -0.00000000000E+00 -0.17581070563E+03  0.17581070563E+03  0.00000000000E+00 0. -1.
          5    1    1    2  502    0 -0.39319693768E+02  0.26818101879E+02 -0.66373307775E+02  0.81809259204E+02  0.47000000000E+01 0.  1.
         -5    1    1    2    0  502  0.56092502502E+02 -0.11980187493E+02  0.77298675885E+01  0.58066639151E+02  0.47000000000E+01 0.  1.
        -11    1    1    2    0    0 -0.23672773835E+02 -0.45564215601E+02 -0.28678886582E+01  0.51426867975E+02  0.00000000000E+00 0.  1.
         11    1    1    2    0    0  0.68999651008E+01  0.30726301215E+02 -0.44385228512E+02  0.54422087564E+02  0.00000000000E+00 0. -1.
<mgrwt>
<rscale>  0 0.11801321E+03</rscale>
<asrwt>0</asrwt>
<pdfrwt beam="2">  1        1 0.27047801E-01 0.12698903E+03</pdfrwt>
<pdfrwt beam="1">  1       -1 0.10756023E-01 0.12698903E+03</pdfrwt>
<totfact> 0.88359124E+03</totfact>
</mgrwt>
</event>
<event>
 6    1  0.7457796E-006  0.3316593E+03  0.7546771E-02  0.1071674E+00
         -1   -1    0    0    0  501 -0.00000000000E+00  0.00000000000E+00  0.17905221775E+03  0.17905221775E+03  0.00000000000E+00 0. -1.
          1   -1    0    0  501    0  0.00000000000E+00 -0.00000000000E+00 -0.61506786697E+03  0.61506786697E+03  0.00000000000E+00 0.  1.
          5    1    1    2  502    0  0.19742641967E+03  0.40194326687E+02 -0.11649382092E+03  0.23277816778E+03  0.47000000000E+01 0. -1.
         -5    1    1    2    0  502  0.90868995954E+02  0.65905636444E+02 -0.17946543546E+03  0.21173251962E+03  0.47000000000E+01 0. -1.
        -11    1    1    2    0    0 -0.67275379015E+02 -0.54615200604E+02 -0.79407193217E+01  0.87016388008E+02  0.00000000000E+00 0.  1.
         11    1    1    2    0    0 -0.22102003661E+03 -0.51484762527E+02 -0.13211567351E+03  0.26259300932E+03  0.00000000000E+00 0. -1.
<mgrwt>
<rscale>  0 0.32878978E+03</rscale>
<asrwt>0</asrwt>
<pdfrwt beam="2">  1        1 0.94625825E-01 0.33165927E+03</pdfrwt>
<pdfrwt beam="1">  1       -1 0.27546495E-01 0.33165927E+03</pdfrwt>
<totfact> 0.40241439E+02</totfact>
</mgrwt>
</event>
<event>
 6    1  0.7457796E-006  0.2643904E+03  0.7546771E-02  0.1104534E+00
          1   -1    0    0  501    0  0.00000000000E+00  0.00000000000E+00  0.31696651338E+03  0.31696651338E+03  0.00000000000E+00 0. -1.
         -1   -1    0    0    0  501 -0.00000000000E+00 -0.00000000000E+00 -0.55133789611E+02  0.55133789611E+02  0.00000000000E+00 0.  1.
          5    1    1    2  502    0  0.35320972467E+02 -0.97681599590E+02  0.79286705959E+02  0.13075831804E+03  0.47000000000E+01 0. -1.
         -5    1    1    2    0  502 -0.14669272845E+01  0.37982951673E+02  0.22177890240E+02  0.44258392525E+02  0.47000000000E+01 0. -1.
        -11    1    1    2    0    0  0.12042858182E+02  0.52279022419E+02  0.36795326203E+02  0.65053997946E+02  0.00000000000E+00 0.  1.
         11    1    1    2    0    0 -0.45896903365E+02  0.74196254979E+01  0.12357280136E+03  0.13202959448E+03  0.00000000000E+00 0. -1.
<mgrwt>
<rscale>  0 0.26439036E+03</rscale>
<asrwt>0</asrwt>
<pdfrwt beam="1">  1        1 0.48764078E-01 0.26439036E+03</pdfrwt>
<pdfrwt beam="2">  1       -1 0.84821217E-02 0.26439036E+03</pdfrwt>
<totfact> 0.63708917E+03</totfact>
</mgrwt>
</event>
<event>
 6    1  0.7457796E-006  0.1305744E+03  0.7546771E-02  0.1240461E+00
          1   -1    0    0  501    0  0.00000000000E+00  0.00000000000E+00  0.94447879457E+02  0.94447879457E+02  0.00000000000E+00 0. -1.
         -1   -1    0    0    0  501 -0.00000000000E+00 -0.00000000000E+00 -0.14444966151E+03  0.14444966151E+03  0.00000000000E+00 0.  1.
          5    1    1    2  502    0 -0.30615210419E+02  0.35778549242E+02 -0.13032873745E+02  0.49085043475E+02  0.47000000000E+01 0.  1.
         -5    1    1    2    0  502  0.65344576798E+02 -0.50526204813E+02 -0.39169428648E+02  0.91537671099E+02  0.47000000000E+01 0.  1.
        -11    1    1    2    0    0 -0.10909758268E+01  0.38096137135E+02 -0.28086970019E+02  0.47343254828E+02  0.00000000000E+00 0.  1.
         11    1    1    2    0    0 -0.33638390552E+02 -0.23348481564E+02  0.30287490357E+02  0.50931571568E+02  0.00000000000E+00 0. -1.
<mgrwt>
<rscale>  0 0.12161211E+03</rscale>
<asrwt>0</asrwt>
<pdfrwt beam="1">  1        1 0.14530443E-01 0.13057438E+03</pdfrwt>
<pdfrwt beam="2">  1       -1 0.22223025E-01 0.13057438E+03</pdfrwt>
<totfact> 0.62371731E+03</totfact>
</mgrwt>
</event>
<event>
 6    1  0.7457796E-006  0.1504636E+03  0.7546771E-02  0.1210910E+00
          1   -1    0    0  501    0  0.00000000000E+00  0.00000000000E+00  0.63733503655E+03  0.63733503655E+03  0.00000000000E+00 0. -1.
         -1   -1    0    0    0  501 -0.00000000000E+00 -0.00000000000E+00 -0.66518240897E+02  0.66518240897E+02  0.00000000000E+00 0.  1.
          5    1    1    2  502    0  0.41974338771E+02 -0.10768589444E+02  0.67290934036E+02  0.80174605938E+02  0.47000000000E+01 0. -1.
         -5    1    1    2    0  502  0.20598825554E+02  0.62920934013E+02 -0.33033643800E+02  0.74139511558E+02  0.47000000000E+01 0.  1.
        -11    1    1    2    0    0 -0.61311921546E+02  0.96830223227E+00  0.35901096737E+03  0.36421005481E+03  0.00000000000E+00 0.  1.
         11    1    1    2    0    0 -0.12612427793E+01 -0.53120646801E+02  0.17754853806E+03  0.18532910515E+03  0.00000000000E+00 0. -1.
<mgrwt>
<rscale>  0 0.14181268E+03</rscale>
<asrwt>0</asrwt>
<pdfrwt beam="1">  1        1 0.98051540E-01 0.15046357E+03</pdfrwt>
<pdfrwt beam="2">  1       -1 0.10233576E-01 0.15046357E+03</pdfrwt>
<totfact> 0.18775016E+03</totfact>
</mgrwt>
</event>
<event>
 6    1  0.7457796E-006  0.1496845E+03  0.7546771E-02  0.1227807E+00
         -2   -1    0    0    0  501 -0.00000000000E+00  0.00000000000E+00  0.79601193754E+02  0.79601193754E+02  0.00000000000E+00 0. -1.
          2   -1    0    0  501    0  0.00000000000E+00 -0.00000000000E+00 -0.21080527743E+03  0.21080527743E+03  0.00000000000E+00 0.  1.
          5    1    1    2  502    0  0.48658379121E+02 -0.26265163948E+02  0.48152051560E+02  0.73472489854E+02  0.47000000000E+01 0. -1.
         -5    1    1    2    0  502  0.59954781534E+01 -0.35458776721E+02 -0.68606755052E+02  0.77603140682E+02  0.47000000000E+01 0.  1.
        -11    1    1    2    0    0 -0.13341900676E+02  0.11016626317E+02 -0.12678370469E+02  0.21450255169E+02  0.00000000000E+00 0. -1.
         11    1    1    2    0    0 -0.41311956598E+02  0.50707314352E+02 -0.98071009713E+02  0.11788058548E+03  0.00000000000E+00 0.  1.
<mgrwt>
<rscale>  0 0.12976367E+03</rscale>
<asrwt>0</asrwt>
<pdfrwt beam="2">  1        2 0.32431581E-01 0.14968451E+03</pdfrwt>
<pdfrwt beam="1">  1       -2 0.12246337E-01 0.14968451E+03</pdfrwt>
<totfact> 0.73518731E+03</totfact>
</mgrwt>
</event>
<event>
 6    1  0.7457796E-006  0.4081845E+03  0.7546771E-02  0.1040982E+00
          2   -1    0    0  501    0  0.00000000000E+00  0.00000000000E+00  0.24814463842E+03  0.24814463842E+03  0.00000000000E+00 0.  1.
         -2   -1    0    0    0  501 -0.00000000000E+00 -0.00000000000E+00 -0.16786032905E+03  0.16786032905E+03  0.00000000000E+00 0. -1.
          5    1    1    2  502    0 -0.13845162774E+03  0.30491860805E+02 -0.22102979859E+02  0.14355918124E+03  0.47000000000E+01 0. -1.
         -5    1    1    2    0  502  0.14726220074E+02  0.18687894213E+02 -0.44874984345E+02  0.51009343926E+02  0.47000000000E+01 0. -1.
        -11    1    1    2    0    0  0.17091635418E+01 -0.34506335043E+02  0.75491512980E+01  0.35363796224E+02  0.00000000000E+00 0. -1.
         11    1    1    2    0    0  0.12201624413E+03 -0.14673419975E+02  0.13971312228E+03  0.18607264608E+03  0.00000000000E+00 0.  1.
<mgrwt>
<rscale>  0 0.40818447E+03</rscale>
<asrwt>0</asrwt>
<pdfrwt beam="1">  1        2 0.38176098E-01 0.40818447E+03</pdfrwt>
<pdfrwt beam="2">  1       -2 0.25824666E-01 0.40818447E+03</pdfrwt>
<totfact> 0.18164161E+03</totfact>
</mgrwt>
</event>
<event>
 6    1  0.7457796E-006  0.1258143E+03  0.7546771E-02  0.1247340E+00
          4   -1    0    0  501    0  0.00000000000E+00  0.00000000000E+00  0.56213495978E+03  0.56213495978E+03  0.00000000000E+00 0. -1.
         -4   -1    0    0    0  501 -0.00000000000E+00 -0.00000000000E+00 -0.27720062962E+02  0.27720062962E+02  0.00000000000E+00 0.  1.
          5    1    1    2  502    0 -0.54629409822E+02 -0.10200123632E+02  0.30754846876E+02  0.63689603123E+02  0.47000000000E+01 0.  1.
         -5    1    1    2    0  502  0.52852273911E+02 -0.38702279202E+01  0.12986205164E+03  0.14033739337E+03  0.47000000000E+01 0.  1.
        -11    1    1    2    0    0 -0.19975844739E+02  0.48706040873E+02  0.24881283452E+03  0.25432093781E+03  0.00000000000E+00 0. -1.
         11    1    1    2    0    0  0.21752980650E+02 -0.34635689321E+02  0.12498516379E+03  0.13150708844E+03  0.00000000000E+00 0.  1.
<mgrwt>
<rscale>  0 0.11746425E+03</rscale>
<asrwt>0</asrwt>
<pdfrwt beam="1">  1        4 0.86482293E-01 0.12581426E+03</pdfrwt>
<pdfrwt beam="2">  1       -4 0.42646255E-02 0.12581426E+03</pdfrwt>
<totfact> 0.60174617E+02</totfact>
</mgrwt>
</event>
<event>
 6    1  0.7457796E-006  0.2871522E+03  0.7546771E-02  0.1130819E+00
          1   -1    0    0  501    0  0.00000000000E+00  0.00000000000E+00  0.42389984421E+03  0.42389984421E+03  0.00000000000E+00 0. -1.
         -1   -1    0    0    0  501 -0.00000000000E+00 -0.00000000000E+00 -0.97780314502E+02  0.97780314502E+02  0.00000000000E+00 0.  1.
          5    1    1    2  502    0 -0.17725134567E+02 -0.80309888572E+02  0.22773916627E+03  0.24217984320E+03  0.47000000000E+01 0. -1.
         -5    1    1    2    0  502  0.32990263417E+02  0.68228742143E+02 -0.54242637921E+02  0.93315982036E+02  0.47000000000E+01 0.  1.
        -11    1    1    2    0    0  0.41040463866E+02  0.24294735767E+02  0.83874567040E+02  0.96485733953E+02  0.00000000000E+00 0.  1.
         11    1    1    2    0    0 -0.56305592716E+02 -0.12213589338E+02  0.68748434316E+02  0.89698599523E+02  0.00000000000E+00 0. -1.
<mgrwt>
<rscale>  0 0.22416001E+03</rscale>
<asrwt>0</asrwt>
<pdfrwt beam="1">  1        1 0.65215359E-01 0.28715223E+03</pdfrwt>
<pdfrwt beam="2">  1       -1 0.15043126E-01 0.28715223E+03</pdfrwt>
<totfact> 0.17964425E+03</totfact>
</mgrwt>
</event>
<event>
 6    1  0.7457796E-006  0.1329132E+03  0.7546771E-02  0.1238806E+00
          2   -1    0    0  501    0  0.00000000000E+00  0.00000000000E+00  0.11466738533E+03  0.11466738533E+03  0.00000000000E+00 0. -1.
         -2   -1    0    0    0  501 -0.00000000000E+00 -0.00000000000E+00 -0.11613429748E+03  0.11613429748E+03  0.00000000000E+00 0.  1.
          5    1    1    2  502    0  0.15045988718E+02  0.49113568366E+02  0.29203092310E+02  0.59274235335E+02  0.47000000000E+01 0.  1.
         -5    1    1    2    0  502 -0.54228203563E+02 -0.26493558411E+02 -0.43207650691E+02  0.74374711947E+02  0.47000000000E+01 0.  1.
        -11    1    1    2    0    0 -0.13999388698E+02 -0.10889107822E+02 -0.25257602580E+02  0.30862631792E+02  0.00000000000E+00 0.  1.
         11    1    1    2    0    0  0.53181603542E+02 -0.11730902133E+02  0.37795248814E+02  0.66290103734E+02  0.00000000000E+00 0. -1.
<mgrwt>
<rscale>  0 0.12263885E+03</rscale>
<asrwt>0</asrwt>
<pdfrwt beam="1">  1        2 0.17641136E-01 0.13291318E+03</pdfrwt>
<pdfrwt beam="2">  1       -2 0.17866815E-01 0.13291318E+03</pdfrwt>
<totfact> 0.77349575E+03</totfact>
</mgrwt>
</event>
<event>
 6    1  0.7457796E-006  0.1252979E+03  0.7546771E-02  0.1247868E+00
          2   -1    0    0  501    0  0.00000000000E+00  0.00000000000E+00  0.80672161411E+02  0.80672161411E+02  0.00000000000E+00 0. -1.
         -2   -1    0    0    0  501 -0.00000000000E+00 -0.00000000000E+00 -0.15227221832E+03  0.15227221832E+03  0.00000000000E+00 0.  1.
          5    1    1    2  502    0 -0.42701553899E+02 -0.49956497877E+02 -0.61716232876E+01  0.66175927039E+02  0.47000000000E+01 0.  1.
         -5    1    1    2    0  502  0.38914798785E+02  0.42228728521E+02 -0.25843355583E+02  0.63147415662E+02  0.47000000000E+01 0.  1.
        -11    1    1    2    0    0  0.32673972332E+02  0.39977741320E+02 -0.28299708405E+02  0.58878533990E+02  0.00000000000E+00 0.  1.
         11    1    1    2    0    0 -0.28887217219E+02 -0.32249971964E+02 -0.11285369632E+02  0.44742503038E+02  0.00000000000E+00 0. -1.
<mgrwt>
<rscale>  0 0.11715372E+03</rscale>
<asrwt>0</asrwt>
<pdfrwt beam="1">  1        2 0.12411102E-01 0.12529792E+03</pdfrwt>
<pdfrwt beam="2">  1       -2 0.23426495E-01 0.12529792E+03</pdfrwt>
<totfact> 0.73406063E+03</totfact>
</mgrwt>
</event>
<event>
 6    1  0.7457796E-006  0.1327230E+03  0.7546771E-02  0.1236094E+00
         -2   -1    0    0    0  501 -0.00000000000E+00  0.00000000000E+00  0.18480195448E+03  0.18480195448E+03  0.00000000000E+00 0.  1.
          2   -1    0    0  501    0  0.00000000000E+00 -0.00000000000E+00 -0.75290194764E+02  0.75290194764E+02  0.00000000000E+00 0. -1.
          5    1    1    2  502    0  0.33464785216E+02  0.16841778206E+01 -0.14947921598E+02  0.36989980597E+02  0.47000000000E+01 0. -1.
         -5    1    1    2    0  502 -0.68050593389E+02  0.26496315414E+02  0.88203190831E+02  0.11460728975E+03  0.47000000000E+01 0. -1.
        -11    1    1    2    0    0  0.12097881874E+02  0.27737449612E+02  0.37530980786E+02  0.48210988121E+02  0.00000000000E+00 0.  1.
         11    1    1    2    0    0  0.22487926299E+02 -0.55917942847E+02 -0.12744903042E+01  0.60283890775E+02  0.00000000000E+00 0. -1.
<mgrwt>
<rscale>  0 0.12434648E+03</rscale>
<asrwt>0</asrwt>
<pdfrwt beam="2">  1        2 0.11583107E-01 0.13272301E+03</pdfrwt>
<pdfrwt beam="1">  1       -2 0.28431070E-01 0.13272301E+03</pdfrwt>
<totfact> 0.57047542E+03</totfact>
</mgrwt>
</event>
<event>
 6    1  0.7457796E-006  0.1548309E+03  0.7546771E-02  0.1204074E+00
          2   -1    0    0  501    0  0.00000000000E+00  0.00000000000E+00  0.67128634642E+02  0.67128634642E+02  0.00000000000E+00 0. -1.
         -2   -1    0    0    0  501 -0.00000000000E+00 -0.00000000000E+00 -0.34617913319E+03  0.34617913319E+03  0.00000000000E+00 0.  1.
          5    1    1    2  502    0  0.52232620017E+02 -0.29693722151E+02 -0.15595917436E+03  0.16719843838E+03  0.47000000000E+01 0.  1.
         -5    1    1    2    0  502  0.25649003024E+02  0.77463413906E+02 -0.75478258558E+02  0.11125425549E+03  0.47000000000E+01 0.  1.
        -11    1    1    2    0    0 -0.67952385156E+02 -0.40309708520E+02 -0.72378763535E+02  0.10714982343E+03  0.00000000000E+00 0.  1.
         11    1    1    2    0    0 -0.99292378850E+01 -0.74599832352E+01  0.24765697901E+02  0.27705250538E+02  0.00000000000E+00 0. -1.
<mgrwt>
<rscale>  0 0.14710668E+03</rscale>
<asrwt>0</asrwt>
<pdfrwt beam="1">  1        2 0.10327483E-01 0.15483093E+03</pdfrwt>
<pdfrwt beam="2">  1       -2 0.53258326E-01 0.15483093E+03</pdfrwt>
<totfact> 0.20239515E+03</totfact>
</mgrwt>
</event>
<event>
 6    1  0.7457796E-006  0.1258196E+03  0.7546771E-02  0.1248830E+00
         -2   -1    0    0    0  501 -0.00000000000E+00  0.00000000000E+00  0.40502012415E+03  0.40502012415E+03  0.00000000000E+00 0.  1.
          2   -1    0    0  501    0  0.00000000000E+00 -0.00000000000E+00 -0.34540646380E+02  0.34540646380E+02  0.00000000000E+00 0. -1.
          5    1    1    2  502    0  0.23689273554E+02  0.31420876398E+02  0.20075255281E+02  0.44424756946E+02  0.47000000000E+01 0.  1.
         -5    1    1    2    0  502 -0.23377819747E+02 -0.17093657005E+02  0.27226780335E+03  0.27384404742E+03  0.47000000000E+01 0.  1.
        -11    1    1    2    0    0  0.13362955163E+02 -0.36537378886E+02  0.85715197114E+02  0.94130991936E+02  0.00000000000E+00 0.  1.
         11    1    1    2    0    0 -0.13674408970E+02  0.22210159493E+02 -0.75787779754E+01  0.27160974227E+02  0.00000000000E+00 0. -1.
<mgrwt>
<rscale>  0 0.11659076E+03</rscale>
<asrwt>0</asrwt>
<pdfrwt beam="2">  1        2 0.53139459E-02 0.12581958E+03</pdfrwt>
<pdfrwt beam="1">  1       -2 0.62310785E-01 0.12581958E+03</pdfrwt>
<totfact> 0.33626108E+03</totfact>
</mgrwt>
</event>
<event>
 6    1  0.7457796E-006  0.1887858E+03  0.7546771E-02  0.1164790E+00
         -2   -1    0    0    0  501 -0.00000000000E+00  0.00000000000E+00  0.14889240478E+03  0.14889240478E+03  0.00000000000E+00 0.  1.
          2   -1    0    0  501    0  0.00000000000E+00 -0.00000000000E+00 -0.22623373565E+03  0.22623373565E+03  0.00000000000E+00 0. -1.
          5    1    1    2  502    0 -0.25961944384E+02  0.84116156638E+02 -0.43985100193E+02  0.98520705452E+02  0.47000000000E+01 0. -1.
         -5    1    1    2    0  502  0.52481295389E+02  0.54852171761E+02  0.48717154918E+02  0.90324405871E+02  0.47000000000E+01 0. -1.
        -11    1    1    2    0    0  0.23523148740E+02 -0.54635882396E+02 -0.62503566374E+02  0.86285073920E+02  0.00000000000E+00 0. -1.
         11    1    1    2    0    0 -0.50042499745E+02 -0.84332446003E+02 -0.19569819216E+02  0.99995955187E+02  0.00000000000E+00 0.  1.
<mgrwt>
<rscale>  0 0.18314837E+03</rscale>
<asrwt>0</asrwt>
<pdfrwt beam="2">  1        2 0.34805190E-01 0.18878581E+03</pdfrwt>
<pdfrwt beam="1">  1       -2 0.22906524E-01 0.18878581E+03</pdfrwt>
<totfact> 0.24302350E+03</totfact>
</mgrwt>
</event>
<event>
 6    1  0.7457796E-006  0.2397520E+03  0.7546771E-02  0.1122677E+00
          2   -1    0    0  501    0  0.00000000000E+00  0.00000000000E+00  0.11105899570E+04  0.11105899570E+04  0.00000000000E+00 0.  1.
         -2   -1    0    0    0  501 -0.00000000000E+00 -0.00000000000E+00 -0.67399050641E+02  0.67399050641E+02  0.00000000000E+00 0. -1.
          5    1    1    2  502    0 -0.14687491537E+03  0.12049040816E+03  0.12265899133E+03  0.22618023207E+03  0.47000000000E+01 0. -1.
         -5    1    1    2    0  502 -0.14079152743E+02  0.58016136557E+01  0.99203865357E+02  0.10047575909E+03  0.47000000000E+01 0. -1.
        -11    1    1    2    0    0  0.80111458483E+01  0.14129108486E+02  0.51815812265E+02  0.54301828377E+02  0.00000000000E+00 0. -1.
         11    1    1    2    0    0  0.15294292226E+03 -0.14042113030E+03  0.76951223745E+03  0.79703118815E+03  0.00000000000E+00 0.  1.
<mgrwt>
<rscale>  0 0.23572019E+03</rscale>
<asrwt>0</asrwt>
<pdfrwt beam="1">  1        2 0.17085998E+00 0.23975197E+03</pdfrwt>
<pdfrwt beam="2">  1       -2 0.10369085E-01 0.23975197E+03</pdfrwt>
<totfact> 0.14114888E+03</totfact>
</mgrwt>
</event>
<event>
 6    1  0.7457796E-006  0.2458840E+03  0.7546771E-02  0.1118540E+00
          1   -1    0    0  501    0  0.00000000000E+00  0.00000000000E+00  0.38976183415E+03  0.38976183415E+03  0.00000000000E+00 0. -1.
         -1   -1    0    0    0  501 -0.00000000000E+00 -0.00000000000E+00 -0.14721115270E+03  0.14721115270E+03  0.00000000000E+00 0.  1.
          5    1    1    2  502    0  0.54586670765E+01  0.22204032235E+02  0.44231532152E+02  0.50013343522E+02  0.47000000000E+01 0.  1.
         -5    1    1    2    0  502  0.19878527793E+03 -0.78048853996E+02  0.11041516962E+03  0.24045958083E+03  0.47000000000E+01 0.  1.
        -11    1    1    2    0    0 -0.15868809645E+03  0.81073348517E+02  0.69373739198E+02  0.19122634621E+03  0.00000000000E+00 0.  1.
         11    1    1    2    0    0 -0.45555848559E+02 -0.25228526756E+02  0.18530240474E+02  0.55273716288E+02  0.00000000000E+00 0. -1.
<mgrwt>
<rscale>  0 0.24189012E+03</rscale>
<asrwt>0</asrwt>
<pdfrwt beam="1">  1        1 0.59963359E-01 0.24588395E+03</pdfrwt>
<pdfrwt beam="2">  1       -1 0.22647870E-01 0.24588395E+03</pdfrwt>
<totfact> 0.10297847E+03</totfact>
</mgrwt>
</event>
<event>
 6    1  0.7457796E-006  0.1281887E+03  0.7546771E-02  0.1243581E+00
          2   -1    0    0  501    0  0.00000000000E+00  0.00000000000E+00  0.28479619502E+03  0.28479619502E+03  0.00000000000E+00 0. -1.
         -2   -1    0    0    0  501 -0.00000000000E+00 -0.00000000000E+00 -0.47041566253E+02  0.47041566253E+02  0.00000000000E+00 0.  1.
          5    1    1    2  502    0 -0.52392693024E+02 -0.12125230699E+02  0.31257582067E+02  0.62379018415E+02  0.47000000000E+01 0. -1.
         -5    1    1    2    0  502  0.61703084210E+02  0.38963051425E+02  0.66344961464E+02  0.98737702470E+02  0.47000000000E+01 0. -1.
        -11    1    1    2    0    0  0.15170672090E+02 -0.54031383651E+02  0.57580292643E+02  0.80405409095E+02  0.00000000000E+00 0.  1.
         11    1    1    2    0    0 -0.24481063276E+02  0.27193562925E+02  0.82571792592E+02  0.90315631291E+02  0.00000000000E+00 0. -1.
<mgrwt>
<rscale>  0 0.11970720E+03</rscale>
<asrwt>0</asrwt>
<pdfrwt beam="1">  1        2 0.43814798E-01 0.12818869E+03</pdfrwt>
<pdfrwt beam="2">  1       -2 0.72371642E-02 0.12818869E+03</pdfrwt>
<totfact> 0.12009022E+04</totfact>
</mgrwt>
</event>
<event>
 6    1  0.7457796E-006  0.1253253E+03  0.7546771E-02  0.1249625E+00
         -1   -1    0    0    0  501 -0.00000000000E+00  0.00000000000E+00  0.55625446603E+03  0.55625446603E+03  0.00000000000E+00 0.  1.
          1   -1    0    0  501    0  0.00000000000E+00 -0.00000000000E+00 -0.31956040380E+02  0.31956040380E+02  0.00000000000E+00 0. -1.
          5    1    1    2  502    0  0.59154475212E+02 -0.37848781555E+01  0.25673064658E+03  0.26352664407E+03  0.47000000000E+01 0. -1.
         -5    1    1    2    0  502 -0.62976204278E+02  0.12250764122E+02  0.20036171439E+03  0.21043523973E+03  0.47000000000E+01 0. -1.
        -11    1    1    2    0    0 -0.22639548389E+02 -0.84645760229E+01 -0.14621678205E+02  0.28248746380E+02  0.00000000000E+00 0. -1.
         11    1    1    2    0    0  0.26461277455E+02 -0.13099434568E-02  0.81827742889E+02  0.85999876236E+02  0.00000000000E+00 0.  1.
<mgrwt>
<rscale>  0 0.11612790E+03</rscale>
<asrwt>0</asrwt>
<pdfrwt beam="2">  1        1 0.49163143E-02 0.12532534E+03</pdfrwt>
<pdfrwt beam="1">  1       -1 0.85577603E-01 0.12532534E+03</pdfrwt>
<totfact> 0.23262091E+03</totfact>
</mgrwt>
</event>
<event>
 6    1  0.7457796E-006  0.1306160E+03  0.7546771E-02  0.1237076E+00
         -3   -1    0    0    0  501 -0.00000000000E+00  0.00000000000E+00  0.67772226003E+02  0.67772226003E+02  0.00000000000E+00 0.  1.
          3   -1    0    0  501    0  0.00000000000E+00 -0.00000000000E+00 -0.24442672844E+03  0.24442672844E+03  0.00000000000E+00 0. -1.
          5    1    1    2  502    0 -0.40216070050E+02 -0.38708403076E+02 -0.46406047712E+02  0.72741212687E+02  0.47000000000E+01 0. -1.
         -5    1    1    2    0  502 -0.11430975172E+02  0.59706584517E+02  0.12418728880E+02  0.62224257770E+02  0.47000000000E+01 0.  1.
        -11    1    1    2    0    0  0.23853359785E+02 -0.41684099931E+02 -0.13278734284E+03  0.14120561384E+03  0.00000000000E+00 0. -1.
         11    1    1    2    0    0  0.27793685437E+02  0.20685918490E+02 -0.98798407616E+01  0.36027870148E+02  0.00000000000E+00 0.  1.
<mgrwt>
<rscale>  0 0.12372453E+03</rscale>
<asrwt>0</asrwt>
<pdfrwt beam="2">  1        3 0.37604112E-01 0.13061600E+03</pdfrwt>
<pdfrwt beam="1">  1       -3 0.10426496E-01 0.13061600E+03</pdfrwt>
<totfact> 0.11030030E+03</totfact>
</mgrwt>
</event>
<event>
 6    1  0.7457796E-006  0.2239709E+03  0.7546771E-02  0.1134627E+00
          3   -1    0    0  501    0  0.00000000000E+00  0.00000000000E+00  0.25335490821E+03  0.25335490821E+03  0.00000000000E+00 0. -1.
         -3   -1    0    0    0  501 -0.00000000000E+00 -0.00000000000E+00 -0.18756517514E+03  0.18756517514E+03  0.00000000000E+00 0.  1.
          5    1    1    2  502    0 -0.12157936847E+03  0.14360636013E+03  0.23827979897E+02  0.18972135391E+03  0.47000000000E+01 0.  1.
         -5    1    1    2    0  502 -0.10677551399E+02 -0.13046777617E+02 -0.29524219313E+02  0.34321975994E+02  0.47000000000E+01 0.  1.
        -11    1    1    2    0    0  0.78191744214E+02 -0.31537090050E+02  0.59980935045E+02  0.10347100792E+03  0.00000000000E+00 0. -1.
         11    1    1    2    0    0  0.54065175651E+02 -0.99022492459E+02  0.11505037445E+02  0.11340574552E+03  0.00000000000E+00 0.  1.
<mgrwt>
<rscale>  0 0.21900458E+03</rscale>
<asrwt>0</asrwt>
<pdfrwt beam="1">  1        3 0.38977678E-01 0.22397091E+03</pdfrwt>
<pdfrwt beam="2">  1       -3 0.28856181E-01 0.22397091E+03</pdfrwt>
<totfact> 0.18616241E+02</totfact>
</mgrwt>
</event>
<event>
 6    1  0.7457796E-006  0.1632635E+03  0.7546771E-02  0.1194524E+00
          2   -1    0    0  501    0  0.00000000000E+00  0.00000000000E+00  0.36191540616E+03  0.36191540616E+03  0.00000000000E+00 0. -1.
         -2   -1    0    0    0  501 -0.00000000000E+00 -0.00000000000E+00 -0.66434647717E+02  0.66434647717E+02  0.00000000000E+00 0.  1.
          5    1    1    2  502    0  0.37787954995E+02 -0.25921281551E+02  0.10802961109E+03  0.11744074783E+03  0.47000000000E+01 0.  1.
         -5    1    1    2    0  502  0.67232202996E+02  0.25271756894E+02 -0.10492430600E+02  0.72739342285E+02  0.47000000000E+01 0.  1.
        -11    1    1    2    0    0 -0.33631001849E+02 -0.24234845704E+02  0.22580430980E+02  0.47204320723E+02  0.00000000000E+00 0.  1.
         11    1    1    2    0    0 -0.71389156142E+02  0.24884370361E+02  0.17536314698E+03  0.19096564304E+03  0.00000000000E+00 0. -1.
<mgrwt>
<rscale>  0 0.15494609E+03</rscale>
<asrwt>0</asrwt>
<pdfrwt beam="1">  1        2 0.55679292E-01 0.16326348E+03</pdfrwt>
<pdfrwt beam="2">  1       -2 0.10220715E-01 0.16326348E+03</pdfrwt>
<totfact> 0.55310111E+03</totfact>
</mgrwt>
</event>
<event>
 6    1  0.7457796E-006  0.3419435E+03  0.7546771E-02  0.1065971E+00
         -2   -1    0    0    0  501 -0.00000000000E+00  0.00000000000E+00  0.29941109531E+02  0.29941109531E+02  0.00000000000E+00 0.  1.
          2   -1    0    0  501    0  0.00000000000E+00 -0.00000000000E+00 -0.97629420890E+03  0.97629420890E+03  0.00000000000E+00 0. -1.
          5    1    1    2  502    0  0.30720301163E+02  0.13950955531E+03 -0.32773618219E+03  0.35754684733E+03  0.47000000000E+01 0. -1.
         -5    1    1    2    0  502  0.10767438660E+02 -0.14470817672E+02 -0.19396897003E+03  0.19486249930E+03  0.47000000000E+01 0. -1.
        -11    1    1    2    0    0 -0.54916416782E+02 -0.87399766455E+02 -0.38061136096E+03  0.39435965831E+03  0.00000000000E+00 0. -1.
         11    1    1    2    0    0  0.13428676958E+02 -0.37638971179E+02 -0.44036586192E+02  0.59466313487E+02  0.00000000000E+00 0.  1.
<mgrwt>
<rscale>  0 0.34194346E+03</rscale>
<asrwt>0</asrwt>
<pdfrwt beam="2">  1        2 0.15019912E+00 0.34194346E+03</pdfrwt>
<pdfrwt beam="1">  1       -2 0.46063242E-02 0.34194346E+03</pdfrwt>
<totfact> 0.60497332E+03</totfact>
</mgrwt>
</event>
<event>
 6    1  0.7457796E-006  0.3238342E+03  0.7546771E-02  0.1073898E+00
          1   -1    0    0  501    0  0.00000000000E+00  0.00000000000E+00  0.68577569484E+02  0.68577569484E+02  0.00000000000E+00 0. -1.
         -1   -1    0    0    0  501 -0.00000000000E+00 -0.00000000000E+00 -0.38229923642E+03  0.38229923642E+03  0.00000000000E+00 0.  1.
          5    1    1    2  502    0  0.14954088064E+02 -0.82813801119E+02 -0.57714014252E+02  0.10215061354E+03  0.47000000000E+01 0. -1.
         -5    1    1    2    0  502  0.57681359350E+01 -0.12910060179E+02 -0.20003542718E+03  0.20058963875E+03  0.47000000000E+01 0. -1.
        -11    1    1    2    0    0 -0.32304157034E+02  0.89691693873E+01 -0.50273220318E+02  0.60426825519E+02  0.00000000000E+00 0.  1.
         11    1    1    2    0    0  0.11581933035E+02  0.86754691911E+02 -0.56990051788E+01  0.87709728089E+02  0.00000000000E+00 0. -1.
<mgrwt>
<rscale>  0 0.32383423E+03</rscale>
<asrwt>0</asrwt>
<pdfrwt beam="1">  1        1 0.10550395E-01 0.32383423E+03</pdfrwt>
<pdfrwt beam="2">  1       -1 0.58815267E-01 0.32383423E+03</pdfrwt>
<totfact> 0.18062327E+03</totfact>
</mgrwt>
</event>
<event>
 6    1  0.7457796E-006  0.1338448E+03  0.7546771E-02  0.1235356E+00
         -2   -1    0    0    0  501 -0.00000000000E+00  0.00000000000E+00  0.11494643272E+03  0.11494643272E+03  0.00000000000E+00 0.  1.
          2   -1    0    0  501    0  0.00000000000E+00 -0.00000000000E+00 -0.17197497357E+03  0.17197497357E+03  0.00000000000E+00 0. -1.
          5    1    1    2  502    0 -0.35479416570E+02 -0.24523366157E+02  0.51400207918E+02  0.67262588872E+02  0.47000000000E+01 0. -1.
         -5    1    1    2    0  502  0.22862747270E+02  0.70678665547E+02 -0.44809477837E+01  0.74567740138E+02  0.47000000000E+01 0. -1.
        -11    1    1    2    0    0 -0.46010833665E+01  0.21897682119E+02 -0.36548221801E+01  0.22672365900E+02  0.00000000000E+00 0.  1.
         11    1    1    2    0    0  0.17217752667E+02 -0.68052981509E+02 -0.10029297880E+03  0.12241871138E+03  0.00000000000E+00 0. -1.
<mgrwt>
<rscale>  0 0.12481645E+03</rscale>
<asrwt>0</asrwt>
<pdfrwt beam="2">  1        2 0.26457688E-01 0.13384478E+03</pdfrwt>
<pdfrwt beam="1">  1       -2 0.17684067E-01 0.13384478E+03</pdfrwt>
<totfact> 0.49984315E+03</totfact>
</mgrwt>
</event>
<event>
 6    1  0.7457796E-006  0.1660365E+03  0.7546771E-02  0.1189817E+00
          2   -1    0    0  501    0  0.00000000000E+00  0.00000000000E+00  0.82825394755E+03  0.82825394755E+03  0.00000000000E+00 0. -1.
         -2   -1    0    0    0  501 -0.00000000000E+00 -0.00000000000E+00 -0.35483158470E+02  0.35483158470E+02  0.00000000000E+00 0.  1.
          5    1    1    2  502    0 -0.44810044663E+02  0.49574436282E+02  0.28234778178E+02  0.72697025621E+02  0.47000000000E+01 0.  1.
         -5    1    1    2    0  502  0.23412393181E+02  0.57579049228E+02  0.20036882557E+03  0.20984099534E+03  0.47000000000E+01 0.  1.
        -11    1    1    2    0    0 -0.22684406618E+02 -0.88819012742E+02  0.38737295552E+03  0.39807186034E+03  0.00000000000E+00 0. -1.
         11    1    1    2    0    0  0.44082058100E+02 -0.18334472768E+02  0.17679422981E+03  0.18312722472E+03  0.00000000000E+00 0.  1.
<mgrwt>
<rscale>  0 0.15901154E+03</rscale>
<asrwt>0</asrwt>
<pdfrwt beam="1">  1        2 0.12742367E+00 0.16603652E+03</pdfrwt>
<pdfrwt beam="2">  1       -2 0.54589481E-02 0.16603652E+03</pdfrwt>
<totfact> 0.56826170E+03</totfact>
</mgrwt>
</event>
<event>
 6    1  0.7457796E-006  0.1332171E+03  0.7546771E-02  0.1235922E+00
         -2   -1    0    0    0  501 -0.00000000000E+00  0.00000000000E+00  0.23640020830E+02  0.23640020830E+02  0.00000000000E+00 0.  1.
          2   -1    0    0  501    0  0.00000000000E+00 -0.00000000000E+00 -0.69528194470E+03  0.69528194470E+03  0.00000000000E+00 0. -1.
          5    1    1    2  502    0 -0.83690082382E+02  0.15168626525E+02 -0.14043132578E+03  0.16424726598E+03  0.47000000000E+01 0.  1.
         -5    1    1    2    0  502  0.39177426875E+02 -0.27048513978E+02 -0.89784141943E+02  0.10173384407E+03  0.47000000000E+01 0.  1.
        -11    1    1    2    0    0 -0.94333676483E+01 -0.30938203994E+02 -0.12630658563E+03  0.13038218615E+03  0.00000000000E+00 0.  1.
         11    1    1    2    0    0  0.53946023156E+02  0.42818091447E+02 -0.31511987051E+03  0.32255866933E+03  0.00000000000E+00 0. -1.
<mgrwt>
<rscale>  0 0.12445564E+03</rscale>
<asrwt>0</asrwt>
<pdfrwt beam="2">  1        2 0.10696644E+00 0.13321708E+03</pdfrwt>
<pdfrwt beam="1">  1       -2 0.36369267E-02 0.13321708E+03</pdfrwt>
<totfact> 0.12776392E+04</totfact>
</mgrwt>
</event>
<event>
 6    1  0.7457796E-006  0.1798304E+03  0.7546771E-02  0.1173286E+00
         -3   -1    0    0    0  501 -0.00000000000E+00  0.00000000000E+00  0.75177581345E+02  0.75177581345E+02  0.00000000000E+00 0.  1.
          3   -1    0    0  501    0  0.00000000000E+00 -0.00000000000E+00 -0.40258998149E+03  0.40258998149E+03  0.00000000000E+00 0. -1.
          5    1    1    2  502    0 -0.20182763949E+02  0.58323905228E+01  0.50889846249E+01  0.22121222940E+02  0.47000000000E+01 0. -1.
         -5    1    1    2    0  502  0.11483568487E+03 -0.93905113716E+02 -0.12476334582E+03  0.19389014251E+03  0.47000000000E+01 0. -1.
        -11    1    1    2    0    0  0.46973595641E+01 -0.13839723926E+02 -0.35053113246E+02  0.37977939563E+02  0.00000000000E+00 0. -1.
         11    1    1    2    0    0 -0.99350280484E+02  0.10191244712E+03 -0.17268492570E+03  0.22377825782E+03  0.00000000000E+00 0.  1.
<mgrwt>
<rscale>  0 0.17444901E+03</rscale>
<asrwt>0</asrwt>
<pdfrwt beam="2">  1        3 0.61936921E-01 0.17983036E+03</pdfrwt>
<pdfrwt beam="1">  1       -3 0.11565782E-01 0.17983036E+03</pdfrwt>
<totfact> 0.35950069E+02</totfact>
</mgrwt>
</event>
<event>
 6    1  0.7457796E-006  0.3392208E+03  0.7546771E-02  0.1067128E+00
         -2   -1    0    0    0  501 -0.00000000000E+00  0.00000000000E+00  0.31458082291E+03  0.31458082291E+03  0.00000000000E+00 0.  1.
          2   -1    0    0  501    0  0.00000000000E+00 -0.00000000000E+00 -0.91447666080E+02  0.91447666080E+02  0.00000000000E+00 0. -1.
          5    1    1    2  502    0  0.32403209677E+02 -0.17671183533E+02 -0.27940324735E+02  0.46529458100E+02  0.47000000000E+01 0. -1.
         -5    1    1    2    0  502  0.20721577658E+02 -0.99815127514E+02  0.11274857828E+03  0.15207490051E+03  0.47000000000E+01 0. -1.
        -11    1    1    2    0    0 -0.52931686296E+02  0.46657482696E+02  0.11095604114E+03  0.13149116765E+03  0.00000000000E+00 0.  1.
         11    1    1    2    0    0 -0.19310103848E+00  0.70828828351E+02  0.27368862150E+02  0.75932962730E+02  0.00000000000E+00 0. -1.
<mgrwt>
<rscale>  0 0.33922077E+03</rscale>
<asrwt>0</asrwt>
<pdfrwt beam="2">  1        2 0.14068872E-01 0.33922077E+03</pdfrwt>
<pdfrwt beam="1">  1       -2 0.48397049E-01 0.33922077E+03</pdfrwt>
<totfact> 0.17335751E+03</totfact>
</mgrwt>
</event>
<event>
 6    1  0.7457796E-006  0.2328399E+03  0.7546771E-02  0.1124657E+00
          4   -1    0    0  501    0  0.00000000000E+00  0.00000000000E+00  0.43592123251E+02  0.43592123251E+02  0.00000000000E+00 0. -1.
         -4   -1    0    0    0  501 -0.00000000000E+00 -0.00000000000E+00 -0.31091868421E+03  0.31091868421E+03  0.00000000000E+00 0.  1.
          5    1    1    2  502    0  0.84053395896E+01  0.84505767235E+00 -0.17006332204E+03  0.17033786238E+03  0.47000000000E+01 0. -1.
         -5    1    1    2    0  502 -0.19576240901E+02  0.36320914359E+02  0.32967256776E+01  0.41658089585E+02  0.47000000000E+01 0. -1.
        -11    1    1    2    0    0 -0.44545721717E+01 -0.52140398161E+02 -0.10768748475E+03  0.11972910550E+03  0.00000000000E+00 0.  1.
         11    1    1    2    0    0  0.15625473483E+02  0.14974426130E+02  0.71275201482E+01  0.22785749997E+02  0.00000000000E+00 0. -1.
<mgrwt>
<rscale>  0 0.23283991E+03</rscale>
<asrwt>0</asrwt>
<pdfrwt beam="1">  1        4 0.67064804E-02 0.23283991E+03</pdfrwt>
<pdfrwt beam="2">  1       -4 0.47833644E-01 0.23283991E+03</pdfrwt>
<totfact> 0.11498683E+03</totfact>
</mgrwt>
</event>
<event>
 6    1  0.7457796E-006  0.1392784E+03  0.7546771E-02  0.1225150E+00
         -1   -1    0    0    0  501 -0.00000000000E+00  0.00000000000E+00  0.77946383809E+02  0.77946383809E+02  0.00000000000E+00 0.  1.
          1   -1    0    0  501    0  0.00000000000E+00 -0.00000000000E+00 -0.25675980559E+03  0.25675980559E+03  0.00000000000E+00 0. -1.
          5    1    1    2  502    0 -0.64240391056E+02  0.54483479585E+02 -0.13045882655E+02  0.85367221139E+02  0.47000000000E+01 0.  1.
         -5    1    1    2    0  502  0.28143654608E+01 -0.54618823564E+02 -0.65162148200E+01  0.55278274177E+02  0.47000000000E+01 0.  1.
        -11    1    1    2    0    0  0.56751429894E+02  0.36843579200E+02 -0.13122006213E+03  0.14763766060E+03  0.00000000000E+00 0.  1.
         11    1    1    2    0    0  0.46745957020E+01 -0.36708235221E+02 -0.28031262177E+02  0.46423033478E+02  0.00000000000E+00 0. -1.
<mgrwt>
<rscale>  0 0.13156631E+03</rscale>
<asrwt>0</asrwt>
<pdfrwt beam="2">  1        1 0.39501509E-01 0.13927843E+03</pdfrwt>
<pdfrwt beam="1">  1       -1 0.11991751E-01 0.13927843E+03</pdfrwt>
<totfact> 0.47024170E+03</totfact>
</mgrwt>
</event>
<event>
 6    1  0.7457796E-006  0.1539006E+03  0.7546771E-02  0.1204104E+00
         -1   -1    0    0    0  501 -0.00000000000E+00  0.00000000000E+00  0.12872248753E+03  0.12872248753E+03  0.00000000000E+00 0.  1.
          1   -1    0    0  501    0  0.00000000000E+00 -0.00000000000E+00 -0.17832231180E+03  0.17832231180E+03  0.00000000000E+00 0. -1.
          5    1    1    2  502    0  0.80967066983E+02  0.13686769313E+02  0.32636662780E+02  0.88488617050E+02  0.47000000000E+01 0. -1.
         -5    1    1    2    0  502 -0.89112976474E+01 -0.67238400976E+02 -0.37797921758E+01  0.68093983732E+02  0.47000000000E+01 0. -1.
        -11    1    1    2    0    0 -0.55122770969E+02  0.53605122095E+02 -0.98026050147E+02  0.12458384928E+03  0.00000000000E+00 0. -1.
         11    1    1    2    0    0 -0.16932998367E+02 -0.53490431463E-01  0.19569355271E+02  0.25878349264E+02  0.00000000000E+00 0.  1.
<mgrwt>
<rscale>  0 0.14708254E+03</rscale>
<asrwt>0</asrwt>
<pdfrwt beam="2">  1        1 0.27434202E-01 0.15390059E+03</pdfrwt>
<pdfrwt beam="1">  1       -1 0.19803460E-01 0.15390059E+03</pdfrwt>
<totfact> 0.33770028E+03</totfact>
</mgrwt>
</event>
<event>
 6    1  0.7457796E-006  0.1259290E+03  0.7546771E-02  0.1247925E+00
         -1   -1    0    0    0  501 -0.00000000000E+00  0.00000000000E+00  0.56078576258E+02  0.56078576258E+02  0.00000000000E+00 0.  1.
          1   -1    0    0  501    0  0.00000000000E+00 -0.00000000000E+00 -0.21984424318E+03  0.21984424318E+03  0.00000000000E+00 0. -1.
          5    1    1    2  502    0 -0.18486390503E+02  0.32467834807E+02 -0.85349874613E+02  0.93287716380E+02  0.47000000000E+01 0. -1.
         -5    1    1    2    0  502  0.28992792384E+02 -0.43723204959E+02  0.97845387610E+01  0.53573574277E+02  0.47000000000E+01 0. -1.
        -11    1    1    2    0    0 -0.78526040414E+01  0.37984929450E+02 -0.20738116506E+01  0.38843518768E+02  0.00000000000E+00 0.  1.
         11    1    1    2    0    0 -0.26537978395E+01 -0.26729559299E+02 -0.86126519415E+02  0.90218010008E+02  0.00000000000E+00 0. -1.
<mgrwt>
<rscale>  0 0.11712004E+03</rscale>
<asrwt>0</asrwt>
<pdfrwt beam="2">  1        1 0.33822191E-01 0.12592902E+03</pdfrwt>
<pdfrwt beam="1">  1       -1 0.86274732E-02 0.12592902E+03</pdfrwt>
<totfact> 0.93562951E+03</totfact>
</mgrwt>
</event>
<event>
 6    1  0.7457796E-006  0.1487282E+03  0.7546771E-02  0.1211561E+00
          2   -1    0    0  501    0  0.00000000000E+00  0.00000000000E+00  0.45723347584E+03  0.45723347584E+03  0.00000000000E+00 0. -1.
         -2   -1    0    0    0  501 -0.00000000000E+00 -0.00000000000E+00 -0.41473879258E+02  0.41473879258E+02  0.00000000000E+00 0.  1.
          5    1    1    2  502    0 -0.97227837132E+01  0.35204659499E+02  0.34564974421E+02  0.50504732752E+02  0.47000000000E+01 0.  1.
         -5    1    1    2    0  502 -0.24097746746E+02 -0.10834622279E+03  0.14457239148E+03  0.18232627833E+03  0.47000000000E+01 0.  1.
        -11    1    1    2    0    0  0.64011086925E+02  0.48187914810E+02  0.18000408822E+03  0.19703036862E+03  0.00000000000E+00 0.  1.
         11    1    1    2    0    0 -0.30190556466E+02  0.24953648483E+02  0.56618142456E+02  0.68845975391E+02  0.00000000000E+00 0. -1.
<mgrwt>
<rscale>  0 0.14132216E+03</rscale>
<asrwt>0</asrwt>
<pdfrwt beam="1">  1        2 0.70343608E-01 0.14872822E+03</pdfrwt>
<pdfrwt beam="2">  1       -2 0.63805971E-02 0.14872822E+03</pdfrwt>
<totfact> 0.88823812E+03</totfact>
</mgrwt>
</event>
<event>
 6    1  0.7457796E-006  0.1933520E+03  0.7546771E-02  0.1160213E+00
          1   -1    0    0  501    0  0.00000000000E+00  0.00000000000E+00  0.45461897974E+03  0.45461897974E+03  0.00000000000E+00 0. -1.
         -1   -1    0    0    0  501 -0.00000000000E+00 -0.00000000000E+00 -0.77092929671E+02  0.77092929671E+02  0.00000000000E+00 0.  1.
          5    1    1    2  502    0  0.85039690209E+02 -0.75849085015E+02  0.46528558475E+02  0.12317398005E+03  0.47000000000E+01 0. -1.
         -5    1    1    2    0  502  0.56501464736E+02  0.34291003815E+02  0.97683284155E+02  0.11803559829E+03  0.47000000000E+01 0. -1.
        -11    1    1    2    0    0 -0.12933320612E+03  0.56899024707E+02  0.15485119801E+03  0.20962697999E+03  0.00000000000E+00 0.  1.
         11    1    1    2    0    0 -0.12207948826E+02 -0.15340943506E+02  0.78463009438E+02  0.80875351080E+02  0.00000000000E+00 0. -1.
<mgrwt>
<rscale>  0 0.18807115E+03</rscale>
<asrwt>0</asrwt>
<pdfrwt beam="1">  1        1 0.69941380E-01 0.19335202E+03</pdfrwt>
<pdfrwt beam="2">  1       -1 0.11860451E-01 0.19335202E+03</pdfrwt>
<totfact> 0.23646870E+03</totfact>
</mgrwt>
</event>
<event>
 6    1  0.7457796E-006  0.1404275E+03  0.7546771E-02  0.1243079E+00
         -1   -1    0    0    0  501 -0.00000000000E+00  0.00000000000E+00  0.59031943259E+02  0.59031943259E+02  0.00000000000E+00 0.  1.
          1   -1    0    0  501    0  0.00000000000E+00 -0.00000000000E+00 -0.21749757405E+03  0.21749757405E+03  0.00000000000E+00 0. -1.
          5    1    1    2  502    0 -0.37768650024E+02  0.38252935309E+02  0.14317198528E+02  0.55828578328E+02  0.47000000000E+01 0. -1.
         -5    1    1    2    0  502 -0.23202817229E+02 -0.57621968223E+02 -0.74067555747E+02  0.96781996071E+02  0.47000000000E+01 0. -1.
        -11    1    1    2    0    0  0.52083119102E+02  0.26748487651E+02 -0.95340563946E+02  0.11188367182E+03  0.00000000000E+00 0. -1.
         11    1    1    2    0    0  0.88883481516E+01 -0.73794547373E+01 -0.33747096255E+01  0.12035271087E+02  0.00000000000E+00 0.  1.
<mgrwt>
<rscale>  0 0.12001101E+03</rscale>
<asrwt>0</asrwt>
<pdfrwt beam="2">  1        1 0.33461166E-01 0.14042750E+03</pdfrwt>
<pdfrwt beam="1">  1       -1 0.90818373E-02 0.14042750E+03</pdfrwt>
<totfact> 0.88446053E+03</totfact>
</mgrwt>
</event>
<event>
 6    1  0.7457796E-006  0.1412652E+03  0.7546771E-02  0.1222631E+00
         -2   -1    0    0    0  501 -0.00000000000E+00  0.00000000000E+00  0.12138517750E+03  0.12138517750E+03  0.00000000000E+00 0.  1.
          2   -1    0    0  501    0  0.00000000000E+00 -0.00000000000E+00 -0.13274169612E+03  0.13274169612E+03  0.00000000000E+00 0. -1.
          5    1    1    2  502    0 -0.32840504475E+02 -0.24103179433E+02 -0.37410727177E+02  0.55507787750E+02  0.47000000000E+01 0. -1.
         -5    1    1    2    0  502  0.69475909084E+02 -0.30570166780E+02  0.39672634180E+02  0.85775549795E+02  0.47000000000E+01 0. -1.
        -11    1    1    2    0    0  0.14245113979E+02  0.29809584420E+02 -0.38719472718E+02  0.50899235388E+02  0.00000000000E+00 0. -1.
         11    1    1    2    0    0 -0.50880518587E+02  0.24863761793E+02  0.25101047101E+02  0.61944300688E+02  0.00000000000E+00 0.  1.
<mgrwt>
<rscale>  0 0.13330583E+03</rscale>
<asrwt>0</asrwt>
<pdfrwt beam="2">  1        2 0.20421799E-01 0.14126523E+03</pdfrwt>
<pdfrwt beam="1">  1       -2 0.18674643E-01 0.14126523E+03</pdfrwt>
<totfact> 0.61074238E+03</totfact>
</mgrwt>
</event>
<event>
 6    1  0.7457796E-006  0.1478413E+03  0.7546771E-02  0.1212906E+00
         -2   -1    0    0    0  501 -0.00000000000E+00  0.00000000000E+00  0.22301292833E+02  0.22301292833E+02  0.00000000000E+00 0.  1.
          2   -1    0    0  501    0  0.00000000000E+00 -0.00000000000E+00 -0.81149171709E+03  0.81149171709E+03  0.00000000000E+00 0. -1.
          5    1    1    2  502    0  0.97563676287E+02 -0.28363846811E+01 -0.22100471134E+03  0.24164413595E+03  0.47000000000E+01 0. -1.
         -5    1    1    2    0  502 -0.26772343009E+02  0.37752467744E+02 -0.17432507312E+03  0.18042540921E+03  0.47000000000E+01 0. -1.
        -11    1    1    2    0    0 -0.78413280204E+02 -0.54990730682E+02 -0.28197998216E+03  0.29780082826E+03  0.00000000000E+00 0.  1.
         11    1    1    2    0    0  0.76219469263E+01  0.20074647618E+02 -0.11188065764E+03  0.11392263649E+03  0.00000000000E+00 0. -1.
<mgrwt>
<rscale>  0 0.14031515E+03</rscale>
<asrwt>0</asrwt>
<pdfrwt beam="2">  1        2 0.12484487E+00 0.14784134E+03</pdfrwt>
<pdfrwt beam="1">  1       -2 0.34309684E-02 0.14784134E+03</pdfrwt>
<totfact> 0.11617155E+04</totfact>
</mgrwt>
</event>
<event>
 6    1  0.7457796E-006  0.1354254E+03  0.7546771E-02  0.1232168E+00
         -3   -1    0    0    0  501 -0.00000000000E+00  0.00000000000E+00  0.79764999822E+03  0.79764999822E+03  0.00000000000E+00 0.  1.
          3   -1    0    0  501    0  0.00000000000E+00 -0.00000000000E+00 -0.19445181989E+02  0.19445181989E+02  0.00000000000E+00 0. -1.
          5    1    1    2  502    0  0.13918186702E+02 -0.39476088582E+02  0.16794958468E+03  0.17315088936E+03  0.47000000000E+01 0. -1.
         -5    1    1    2    0  502 -0.43218570431E+02  0.82554242231E+02  0.37780317051E+03  0.38915340598E+03  0.47000000000E+01 0. -1.
        -11    1    1    2    0    0 -0.12434645671E+02 -0.52271699097E+02  0.17579982684E+03  0.18382744642E+03  0.00000000000E+00 0.  1.
         11    1    1    2    0    0  0.41735029400E+02  0.91935454479E+01  0.56652234198E+02  0.70963438449E+02  0.00000000000E+00 0. -1.
<mgrwt>
<rscale>  0 0.12687496E+03</rscale>
<asrwt>0</asrwt>
<pdfrwt beam="2">  1        3 0.29915671E-02 0.13542544E+03</pdfrwt>
<pdfrwt beam="1">  1       -3 0.12271536E+00 0.13542544E+03</pdfrwt>
<totfact> 0.66461657E+02</totfact>
</mgrwt>
</event>
<event>
 6    1  0.7457796E-006  0.1866857E+03  0.7546771E-02  0.1166624E+00
          2   -1    0    0  501    0  0.00000000000E+00  0.00000000000E+00  0.12158179267E+04  0.12158179267E+04  0.00000000000E+00 0. -1.
         -2   -1    0    0    0  501 -0.00000000000E+00 -0.00000000000E+00 -0.25546147502E+02  0.25546147502E+02  0.00000000000E+00 0.  1.
          5    1    1    2  502    0 -0.10763999450E+01  0.36112657887E+02  0.49777065114E+02  0.61685726938E+02  0.47000000000E+01 0. -1.
         -5    1    1    2    0  502 -0.13306601355E+03 -0.10108031725E+01  0.58574495484E+03  0.60068862799E+03  0.47000000000E+01 0. -1.
        -11    1    1    2    0    0  0.11887740825E+03  0.88367214781E+01  0.40573560173E+03  0.42288450474E+03  0.00000000000E+00 0.  1.
         11    1    1    2    0    0  0.15265005243E+02 -0.43938576192E+02  0.14901415756E+03  0.15610521458E+03  0.00000000000E+00 0. -1.
<mgrwt>
<rscale>  0 0.18122325E+03</rscale>
<asrwt>0</asrwt>
<pdfrwt beam="1">  1        2 0.18704887E+00 0.18668569E+03</pdfrwt>
<pdfrwt beam="2">  1       -2 0.39301775E-02 0.18668569E+03</pdfrwt>
<totfact> 0.54644076E+03</totfact>
</mgrwt>
</event>
<event>
 6    1  0.7457796E-006  0.1393510E+03  0.7546771E-02  0.1224863E+00
          2   -1    0    0  501    0  0.00000000000E+00  0.00000000000E+00  0.76514167855E+02  0.76514167855E+02  0.00000000000E+00 0. -1.
         -2   -1    0    0    0  501 -0.00000000000E+00 -0.00000000000E+00 -0.24278084471E+03  0.24278084471E+03  0.00000000000E+00 0.  1.
          5    1    1    2  502    0  0.55539144847E+02  0.32202366715E+02 -0.11615459738E+03  0.13279898165E+03  0.47000000000E+01 0. -1.
         -5    1    1    2    0  502 -0.57144230879E+02  0.29373245790E+02 -0.37117634225E+02  0.74350921053E+02  0.47000000000E+01 0. -1.
        -11    1    1    2    0    0  0.42381228155E+02 -0.85644053611E+01  0.31238733517E+01  0.43350618495E+02  0.00000000000E+00 0.  1.
         11    1    1    2    0    0 -0.40776142123E+02 -0.53011207144E+02 -0.16118318601E+02  0.68794491377E+02  0.00000000000E+00 0. -1.
<mgrwt>
<rscale>  0 0.13176312E+03</rscale>
<asrwt>0</asrwt>
<pdfrwt beam="1">  1        2 0.11771410E-01 0.13935101E+03</pdfrwt>
<pdfrwt beam="2">  1       -2 0.37350899E-01 0.13935101E+03</pdfrwt>
<totfact> 0.34118082E+03</totfact>
</mgrwt>
</event>
<event>
 6    1  0.7457796E-006  0.1264770E+03  0.7546771E-02  0.1247493E+00
          1   -1    0    0  501    0  0.00000000000E+00  0.00000000000E+00  0.18050449287E+03  0.18050449287E+03  0.00000000000E+00 0. -1.
         -1   -1    0    0    0  501 -0.00000000000E+00 -0.00000000000E+00 -0.67457658921E+02  0.67457658921E+02  0.00000000000E+00 0.  1.
          5    1    1    2  502    0  0.10511156561E+02 -0.68066726366E+02  0.17389453305E+02  0.71190215175E+02  0.47000000000E+01 0.  1.
         -5    1    1    2    0  502 -0.39238986971E+01  0.49962896408E+02  0.54919664431E+02  0.74497970037E+02  0.47000000000E+01 0.  1.
        -11    1    1    2    0    0 -0.28058284667E+02  0.48828313908E+02  0.23678975659E+02  0.61091451659E+02  0.00000000000E+00 0.  1.
         11    1    1    2    0    0  0.21471026804E+02 -0.30724483950E+02  0.17058740557E+02  0.41182514923E+02  0.00000000000E+00 0. -1.
<mgrwt>
<rscale>  0 0.11737391E+03</rscale>
<asrwt>0</asrwt>
<pdfrwt beam="1">  1        1 0.27769922E-01 0.12647703E+03</pdfrwt>
<pdfrwt beam="2">  1       -1 0.10378101E-01 0.12647703E+03</pdfrwt>
<totfact> 0.90280550E+03</totfact>
</mgrwt>
</event>
<event>
 6    1  0.7457796E-006  0.1317920E+03  0.7546771E-02  0.1238075E+00
          2   -1    0    0  501    0  0.00000000000E+00  0.00000000000E+00  0.71126222820E+02  0.71126222820E+02  0.00000000000E+00 0. -1.
         -2   -1    0    0    0  501 -0.00000000000E+00 -0.00000000000E+00 -0.18993750724E+03  0.18993750724E+03  0.00000000000E+00 0.  1.
          5    1    1    2  502    0  0.25715745271E+02  0.58170059677E+02  0.14873965935E+02  0.65485725623E+02  0.47000000000E+01 0.  1.
         -5    1    1    2    0  502  0.28314493397E+00 -0.25454678980E+02 -0.75060504254E+02  0.79398930421E+02  0.47000000000E+01 0.  1.
        -11    1    1    2    0    0  0.34190256354E+02 -0.16519184728E+02 -0.21923142552E+02  0.43846108984E+02  0.00000000000E+00 0.  1.
         11    1    1    2    0    0 -0.60189146559E+02 -0.16196195969E+02 -0.36701603547E+02  0.72332965032E+02  0.00000000000E+00 0. -1.
<mgrwt>
<rscale>  0 0.12309645E+03</rscale>
<asrwt>0</asrwt>
<pdfrwt beam="1">  1        2 0.10942496E-01 0.13179205E+03</pdfrwt>
<pdfrwt beam="2">  1       -2 0.29221155E-01 0.13179205E+03</pdfrwt>
<totfact> 0.58163815E+03</totfact>
</mgrwt>
</event>
<event>
 6    1  0.7457796E-006  0.1451791E+03  0.7546771E-02  0.1216262E+00
          1   -1    0    0  501    0  0.00000000000E+00  0.00000000000E+00  0.80893429557E+02  0.80893429557E+02  0.00000000000E+00 0. -1.
         -1   -1    0    0    0  501 -0.00000000000E+00 -0.00000000000E+00 -0.25518937605E+03  0.25518937605E+03  0.00000000000E+00 0.  1.
          5    1    1    2  502    0  0.41054722838E+02  0.17543187926E+02 -0.72127932791E+02  0.84957532913E+02  0.47000000000E+01 0.  1.
         -5    1    1    2    0  502 -0.89571171644E+02  0.38110102693E+02 -0.89757924323E+02  0.13249131932E+03  0.47000000000E+01 0.  1.
        -11    1    1    2    0    0  0.12751558580E+02  0.25302720778E+02  0.40186173726E+01  0.28617812819E+02  0.00000000000E+00 0.  1.
         11    1    1    2    0    0  0.35764890226E+02 -0.80956011396E+02 -0.16428706747E+02  0.90016140549E+02  0.00000000000E+00 0. -1.
<mgrwt>
<rscale>  0 0.13784246E+03</rscale>
<asrwt>0</asrwt>
<pdfrwt beam="1">  1        1 0.12445143E-01 0.14517911E+03</pdfrwt>
<pdfrwt beam="2">  1       -1 0.39259904E-01 0.14517911E+03</pdfrwt>
<totfact> 0.29535333E+03</totfact>
</mgrwt>
</event>
<event>
 6    1  0.7457796E-006  0.2096652E+03  0.7546771E-02  0.1145589E+00
          2   -1    0    0  501    0  0.00000000000E+00  0.00000000000E+00  0.96969875164E+03  0.96969875164E+03  0.00000000000E+00 0. -1.
         -2   -1    0    0    0  501 -0.00000000000E+00 -0.00000000000E+00 -0.41638436631E+02  0.41638436631E+02  0.00000000000E+00 0.  1.
          5    1    1    2  502    0  0.15033264746E+02  0.63968362541E+02  0.32573610605E+03  0.33233123724E+03  0.47000000000E+01 0.  1.
         -5    1    1    2    0  502 -0.72165978551E+02  0.94369470527E+02  0.18674808666E+03  0.22138306913E+03  0.47000000000E+01 0.  1.
        -11    1    1    2    0    0  0.41395933542E+02 -0.12434509556E+03  0.39208478341E+03  0.41340755131E+03  0.00000000000E+00 0. -1.
         11    1    1    2    0    0  0.15736780263E+02 -0.33992737508E+02  0.23491338888E+02  0.44215330589E+02  0.00000000000E+00 0.  1.
<mgrwt>
<rscale>  0 0.20499839E+03</rscale>
<asrwt>0</asrwt>
<pdfrwt beam="1">  1        2 0.14918441E+00 0.20966517E+03</pdfrwt>
<pdfrwt beam="2">  1       -2 0.64059140E-02 0.20966517E+03</pdfrwt>
<totfact> 0.36401682E+03</totfact>
</mgrwt>
</event>
<event>
 6    1  0.7457796E-006  0.3041969E+03  0.7546771E-02  0.1083161E+00
          2   -1    0    0  501    0  0.00000000000E+00  0.00000000000E+00  0.13874138019E+04  0.13874138019E+04  0.00000000000E+00 0. -1.
         -2   -1    0    0    0  501 -0.00000000000E+00 -0.00000000000E+00 -0.16674144383E+02  0.16674144383E+02  0.00000000000E+00 0.  1.
          5    1    1    2  502    0  0.17679931426E+02  0.18813521238E+02  0.37907799255E+02  0.46104444482E+02  0.47000000000E+01 0. -1.
         -5    1    1    2    0  502 -0.98600769710E+02  0.46801516150E+02  0.80363897562E+03  0.81103032424E+03  0.47000000000E+01 0. -1.
        -11    1    1    2    0    0  0.43671959303E+02 -0.69977939284E+02  0.46775966459E+03  0.47497711085E+03  0.00000000000E+00 0. -1.
         11    1    1    2    0    0  0.37248878980E+02  0.43629018956E+01  0.61433218036E+02  0.71976066693E+02  0.00000000000E+00 0.  1.
<mgrwt>
<rscale>  0 0.30419690E+03</rscale>
<asrwt>0</asrwt>
<pdfrwt beam="1">  1        2 0.21344819E+00 0.30419690E+03</pdfrwt>
<pdfrwt beam="2">  1       -2 0.25652541E-02 0.30419690E+03</pdfrwt>
<totfact> 0.84144680E+03</totfact>
</mgrwt>
</event>
<event>
 6    1  0.7457796E-006  0.1424871E+03  0.7546771E-02  0.1220469E+00
          1   -1    0    0  501    0  0.00000000000E+00  0.00000000000E+00  0.34141555782E+03  0.34141555782E+03  0.00000000000E+00 0. -1.
         -1   -1    0    0    0  501 -0.00000000000E+00 -0.00000000000E+00 -0.73179776413E+02  0.73179776413E+02  0.00000000000E+00 0.  1.
          5    1    1    2  502    0 -0.64058289070E+02 -0.13345273424E+02 -0.20728895673E+02  0.68799257533E+02  0.47000000000E+01 0. -1.
         -5    1    1    2    0  502  0.13740323702E+02  0.59659932963E+02  0.44086256109E+02  0.75589629410E+02  0.47000000000E+01 0. -1.
        -11    1    1    2    0    0  0.30972992919E+01 -0.23213421867E+02  0.41237442539E+01  0.23779434063E+02  0.00000000000E+00 0.  1.
         11    1    1    2    0    0  0.47220666075E+02 -0.23101237672E+02  0.24075467672E+03  0.24642701323E+03  0.00000000000E+00 0. -1.
<mgrwt>
<rscale>  0 0.13482386E+03</rscale>
<asrwt>0</asrwt>
<pdfrwt beam="1">  1        1 0.52525469E-01 0.14248714E+03</pdfrwt>
<pdfrwt beam="2">  1       -1 0.11258427E-01 0.14248714E+03</pdfrwt>
<totfact> 0.36444489E+03</totfact>
</mgrwt>
</event>
<event>
 6    1  0.7457796E-006  0.1317309E+03  0.7546771E-02  0.1238821E+00
          2   -1    0    0  501    0  0.00000000000E+00  0.00000000000E+00  0.57480604186E+03  0.57480604186E+03  0.00000000000E+00 0. -1.
         -2   -1    0    0    0  501 -0.00000000000E+00 -0.00000000000E+00 -0.23156021389E+02  0.23156021389E+02  0.00000000000E+00 0.  1.
          5    1    1    2  502    0 -0.35281545548E+02  0.25564212199E+02  0.29457762160E+02  0.52803088481E+02  0.47000000000E+01 0.  1.
         -5    1    1    2    0  502 -0.13212813977E+01 -0.45295051019E+02  0.27768094870E+03  0.28139329541E+03  0.47000000000E+01 0.  1.
        -11    1    1    2    0    0 -0.17866044598E+02 -0.21272959652E+01  0.73256608687E+01  0.19426431604E+02  0.00000000000E+00 0.  1.
         11    1    1    2    0    0  0.54468871544E+02  0.21858134785E+02  0.23718564875E+03  0.24433924776E+03  0.00000000000E+00 0. -1.
<mgrwt>
<rscale>  0 0.12262937E+03</rscale>
<asrwt>0</asrwt>
<pdfrwt beam="1">  1        2 0.88431688E-01 0.13173092E+03</pdfrwt>
<pdfrwt beam="2">  1       -2 0.35624652E-02 0.13173092E+03</pdfrwt>
<totfact> 0.16390348E+04</totfact>
</mgrwt>
</event>
<event>
 6    1  0.7457796E-006  0.1806280E+03  0.7546771E-02  0.1170547E+00
          2   -1    0    0  501    0  0.00000000000E+00  0.00000000000E+00  0.26174671273E+03  0.26174671273E+03  0.00000000000E+00 0. -1.
         -2   -1    0    0    0  501 -0.00000000000E+00 -0.00000000000E+00 -0.11560795638E+03  0.11560795638E+03  0.00000000000E+00 0.  1.
          5    1    1    2  502    0  0.27789640872E+01 -0.10810452038E+03  0.41115181113E+02  0.11578798765E+03  0.47000000000E+01 0. -1.
         -5    1    1    2    0  502  0.72003544128E+02  0.12936064824E+01  0.35296250033E+02  0.80337407545E+02  0.47000000000E+01 0. -1.
        -11    1    1    2    0    0 -0.45707266202E+02  0.23116825017E+02  0.76836532275E+02  0.92343892460E+02  0.00000000000E+00 0. -1.
         11    1    1    2    0    0 -0.29075242013E+02  0.83694088876E+02 -0.71092070661E+01  0.88885381452E+02  0.00000000000E+00 0.  1.
<mgrwt>
<rscale>  0 0.17719395E+03</rscale>
<asrwt>0</asrwt>
<pdfrwt beam="1">  1        2 0.40268725E-01 0.18062797E+03</pdfrwt>
<pdfrwt beam="2">  1       -2 0.17785840E-01 0.18062797E+03</pdfrwt>
<totfact> 0.31925491E+03</totfact>
</mgrwt>
</event>
<event>
 6    1  0.7457796E-006  0.2066975E+03  0.7546771E-02  0.1148153E+00
         -2   -1    0    0    0  501 -0.00000000000E+00  0.00000000000E+00  0.52048120652E+02  0.52048120652E+02  0.00000000000E+00 0. -1.
          2   -1    0    0  501    0  0.00000000000E+00 -0.00000000000E+00 -0.75107230899E+03  0.75107230899E+03  0.00000000000E+00 0.  1.
          5    1    1    2  502    0  0.31067379254E+02 -0.72151596160E+00 -0.22373269128E+02  0.38579214747E+02  0.47000000000E+01 0.  1.
         -5    1    1    2    0  502 -0.28193152174E+02  0.16531152463E+03 -0.32135563755E+03  0.36251108919E+03  0.47000000000E+01 0.  1.
        -11    1    1    2    0    0 -0.55708877092E+01 -0.40279098357E+02 -0.21860879496E+02  0.46166422935E+02  0.00000000000E+00 0.  1.
         11    1    1    2    0    0  0.26966606289E+01 -0.12431091031E+03 -0.33343440217E+03  0.35586370277E+03  0.00000000000E+00 0. -1.
<mgrwt>
<rscale>  0 0.20189097E+03</rscale>
<asrwt>0</asrwt>
<pdfrwt beam="2">  1        2 0.11554958E+00 0.20669753E+03</pdfrwt>
<pdfrwt beam="1">  1       -2 0.80074036E-02 0.20669753E+03</pdfrwt>
<totfact> 0.35922689E+03</totfact>
</mgrwt>
</event>
<event>
 6    1  0.7457796E-006  0.3953094E+03  0.7546771E-02  0.1045417E+00
          1   -1    0    0  501    0  0.00000000000E+00  0.00000000000E+00  0.14388813778E+03  0.14388813778E+03  0.00000000000E+00 0. -1.
         -1   -1    0    0    0  501 -0.00000000000E+00 -0.00000000000E+00 -0.11617282923E+04  0.11617282923E+04  0.00000000000E+00 0.  1.
          5    1    1    2  502    0  0.37898330876E+02  0.24109857190E+03 -0.49393803970E+03  0.55096432000E+03  0.47000000000E+01 0.  1.
         -5    1    1    2    0  502  0.91773916943E+02  0.11081966467E+03 -0.18165778987E+03  0.23178673933E+03  0.47000000000E+01 0.  1.
        -11    1    1    2    0    0 -0.56005989351E+02 -0.86874712125E+02 -0.31950555248E+02  0.10818837475E+03  0.00000000000E+00 0.  1.
         11    1    1    2    0    0 -0.73666258469E+02 -0.26504352445E+03 -0.31029376966E+03  0.41467699596E+03  0.00000000000E+00 0. -1.
<mgrwt>
<rscale>  0 0.39530542E+03</rscale>
<asrwt>0</asrwt>
<pdfrwt beam="1">  1        1 0.22136636E-01 0.39530937E+03</pdfrwt>
<pdfrwt beam="2">  1       -1 0.17872744E+00 0.39530937E+03</pdfrwt>
<totfact> 0.51527819E+01</totfact>
</mgrwt>
</event>
<event>
 6    1  0.7457796E-006  0.3066046E+03  0.7546771E-02  0.1081985E+00
          1   -1    0    0  501    0  0.00000000000E+00  0.00000000000E+00  0.11785210718E+03  0.11785210718E+03  0.00000000000E+00 0. -1.
         -1   -1    0    0    0  501 -0.00000000000E+00 -0.00000000000E+00 -0.19941605975E+03  0.19941605975E+03  0.00000000000E+00 0.  1.
          5    1    1    2  502    0  0.71683723802E+02 -0.10636674476E+03 -0.74855160253E+02  0.14858608840E+03  0.47000000000E+01 0. -1.
         -5    1    1    2    0  502 -0.11052589641E+02  0.16983547356E+02  0.16551530456E+02  0.26582772222E+02  0.47000000000E+01 0. -1.
        -11    1    1    2    0    0  0.70166782939E+01  0.50308753367E+02 -0.36915421317E+02  0.62792935674E+02  0.00000000000E+00 0.  1.
         11    1    1    2    0    0 -0.67647812456E+02  0.39074444039E+02  0.13655098547E+02  0.79306370635E+02  0.00000000000E+00 0. -1.
<mgrwt>
<rscale>  0 0.30660465E+03</rscale>
<asrwt>0</asrwt>
<pdfrwt beam="1">  1        1 0.18131094E-01 0.30660465E+03</pdfrwt>
<pdfrwt beam="2">  1       -1 0.30679394E-01 0.30660465E+03</pdfrwt>
<totfact> 0.28526621E+03</totfact>
</mgrwt>
</event>
<event>
 6    1  0.7457796E-006  0.1153094E+03  0.7546771E-02  0.1261150E+00
          2   -1    0    0  501    0  0.00000000000E+00  0.00000000000E+00  0.31869458148E+03  0.31869458148E+03  0.00000000000E+00 0. -1.
         -2   -1    0    0    0  501 -0.00000000000E+00 -0.00000000000E+00 -0.34575069487E+02  0.34575069487E+02  0.00000000000E+00 0.  1.
          5    1    1    2  502    0  0.54010400906E+02 -0.15626051191E+02  0.13426965948E+03  0.14564246750E+03  0.47000000000E+01 0. -1.
         -5    1    1    2    0  502 -0.37009628215E+02  0.13682527292E+02  0.13876279456E+02  0.42089966325E+02  0.47000000000E+01 0.  1.
        -11    1    1    2    0    0  0.35607292444E+02 -0.28153950165E+01  0.84693100535E+02  0.91916957100E+02  0.00000000000E+00 0. -1.
         11    1    1    2    0    0 -0.52608065136E+02  0.47589189160E+01  0.51280472519E+02  0.73620260040E+02  0.00000000000E+00 0.  1.
<mgrwt>
<rscale>  0 0.10968722E+03</rscale>
<asrwt>0</asrwt>
<pdfrwt beam="1">  1        2 0.49029934E-01 0.11530936E+03</pdfrwt>
<pdfrwt beam="2">  1       -2 0.53192417E-02 0.11530936E+03</pdfrwt>
<totfact> 0.16849234E+04</totfact>
</mgrwt>
</event>
<event>
 6    1  0.7457796E-006  0.1268221E+03  0.7546771E-02  0.1247779E+00
          1   -1    0    0  501    0  0.00000000000E+00  0.00000000000E+00  0.51277111662E+03  0.51277111662E+03  0.00000000000E+00 0. -1.
         -1   -1    0    0    0  501 -0.00000000000E+00 -0.00000000000E+00 -0.23624155225E+02  0.23624155225E+02  0.00000000000E+00 0.  1.
          5    1    1    2  502    0 -0.12111139140E+02 -0.57133802286E+02  0.27216253003E+03  0.27839806718E+03  0.47000000000E+01 0.  1.
         -5    1    1    2    0  502  0.16820670329E+02  0.36208465827E+02  0.32800276135E+02  0.51883870927E+02  0.47000000000E+01 0.  1.
        -11    1    1    2    0    0  0.15605411467E+02  0.45595936574E+02  0.15676225045E+03  0.16400280932E+03  0.00000000000E+00 0.  1.
         11    1    1    2    0    0 -0.20314942656E+02 -0.24670600114E+02  0.27421904775E+02  0.42110524416E+02  0.00000000000E+00 0. -1.
<mgrwt>
<rscale>  0 0.11720563E+03</rscale>
<asrwt>0</asrwt>
<pdfrwt beam="1">  1        1 0.78887856E-01 0.12682210E+03</pdfrwt>
<pdfrwt beam="2">  1       -1 0.36344858E-02 0.12682210E+03</pdfrwt>
<totfact> 0.11705178E+04</totfact>
</mgrwt>
</event>
<event>
 6    1  0.7457796E-006  0.1554908E+03  0.7546771E-02  0.1202416E+00
         -2   -1    0    0    0  501 -0.00000000000E+00  0.00000000000E+00  0.93083783215E+02  0.93083783215E+02  0.00000000000E+00 0. -1.
          2   -1    0    0  501    0  0.00000000000E+00 -0.00000000000E+00 -0.21989096884E+03  0.21989096884E+03  0.00000000000E+00 0.  1.
          5    1    1    2  502    0  0.32791936216E+02  0.14332648984E+02 -0.10243112713E+03  0.10860461183E+03  0.47000000000E+01 0. -1.
         -5    1    1    2    0  502  0.15358544121E+02  0.64622998103E+02  0.17116432788E+02  0.68753756499E+02  0.47000000000E+01 0. -1.
        -11    1    1    2    0    0  0.44673302359E+01 -0.65104998871E+02 -0.47729262302E+02  0.80849863310E+02  0.00000000000E+00 0.  1.
         11    1    1    2    0    0 -0.52617810574E+02 -0.13850648216E+02  0.62367710115E+01  0.54766520414E+02  0.00000000000E+00 0. -1.
<mgrwt>
<rscale>  0 0.14842979E+03</rscale>
<asrwt>0</asrwt>
<pdfrwt beam="2">  1        2 0.33829380E-01 0.15549082E+03</pdfrwt>
<pdfrwt beam="1">  1       -2 0.14320582E-01 0.15549082E+03</pdfrwt>
<totfact> 0.54676917E+03</totfact>
</mgrwt>
</event>
<event>
 6    1  0.7457796E-006  0.1372457E+03  0.7546771E-02  0.1236292E+00
         -4   -1    0    0    0  501 -0.00000000000E+00  0.00000000000E+00  0.54928257369E+03  0.54928257369E+03  0.00000000000E+00 0.  1.
          4   -1    0    0  501    0  0.00000000000E+00 -0.00000000000E+00 -0.24810439268E+02  0.24810439268E+02  0.00000000000E+00 0. -1.
          5    1    1    2  502    0  0.20694877237E+02  0.33305445104E+02  0.21848424667E+02  0.45132851426E+02  0.47000000000E+01 0. -1.
         -5    1    1    2    0  502  0.31621995983E+02 -0.11565851919E+02  0.34291618600E+03  0.34459733049E+03  0.47000000000E+01 0. -1.
        -11    1    1    2    0    0 -0.69780851886E+00 -0.31194706287E+02  0.10056645863E+03  0.10529581777E+03  0.00000000000E+00 0.  1.
         11    1    1    2    0    0 -0.51619064702E+02  0.94551131029E+01  0.59141065123E+02  0.79067013276E+02  0.00000000000E+00 0. -1.
<mgrwt>
<rscale>  0 0.12422067E+03</rscale>
<asrwt>0</asrwt>
<pdfrwt beam="2">  1        4 0.38169911E-02 0.13724574E+03</pdfrwt>
<pdfrwt beam="1">  1       -4 0.84505002E-01 0.13724574E+03</pdfrwt>
<totfact> 0.76918994E+02</totfact>
</mgrwt>
</event>
<event>
 6    1  0.7457796E-006  0.1331085E+03  0.7546771E-02  0.1245270E+00
         -1   -1    0    0    0  501 -0.00000000000E+00  0.00000000000E+00  0.14220199212E+03  0.14220199212E+03  0.00000000000E+00 0.  1.
          1   -1    0    0  501    0  0.00000000000E+00 -0.00000000000E+00 -0.17130423164E+03  0.17130423164E+03  0.00000000000E+00 0. -1.
          5    1    1    2  502    0 -0.60235979573E+02  0.50393241198E+00  0.58982189145E+02  0.84437052408E+02  0.47000000000E+01 0. -1.
         -5    1    1    2    0  502  0.65825580659E+02 -0.24578892581E+02  0.36038949115E+02  0.79107679039E+02  0.47000000000E+01 0.  1.
        -11    1    1    2    0    0  0.31839441152E+02  0.16046064714E+02 -0.96154646742E+02  0.10255214428E+03  0.00000000000E+00 0. -1.
         11    1    1    2    0    0 -0.37429042239E+02  0.80288954553E+01 -0.27968731038E+02  0.47409348034E+02  0.00000000000E+00 0.  1.
<mgrwt>
<rscale>  0 0.11869228E+03</rscale>
<asrwt>0</asrwt>
<pdfrwt beam="2">  1        1 0.26354497E-01 0.13310846E+03</pdfrwt>
<pdfrwt beam="1">  1       -1 0.21877230E-01 0.13310846E+03</pdfrwt>
<totfact> 0.30028954E+03</totfact>
</mgrwt>
</event>
<event>
 6    1  0.7457796E-006  0.2768343E+03  0.7546771E-02  0.1097431E+00
          2   -1    0    0  501    0  0.00000000000E+00  0.00000000000E+00  0.12685284541E+03  0.12685284541E+03  0.00000000000E+00 0.  1.
         -2   -1    0    0    0  501 -0.00000000000E+00 -0.00000000000E+00 -0.15103564349E+03  0.15103564349E+03  0.00000000000E+00 0. -1.
          5    1    1    2  502    0  0.21461095772E+02 -0.59318831986E+00 -0.53590285626E+02  0.57921837139E+02  0.47000000000E+01 0.  1.
         -5    1    1    2    0  502 -0.13798141020E+01 -0.81924717391E+02  0.44712523146E+02  0.93460488618E+02  0.47000000000E+01 0.  1.
        -11    1    1    2    0    0 -0.53621698200E+02  0.42000537315E+02  0.87418262698E+01  0.68671327198E+02  0.00000000000E+00 0.  1.
         11    1    1    2    0    0  0.33540416530E+02  0.40517368396E+02 -0.24046861878E+02  0.57834835946E+02  0.00000000000E+00 0. -1.
<mgrwt>
<rscale>  0 0.27683425E+03</rscale>
<asrwt>0</asrwt>
<pdfrwt beam="1">  1        2 0.19515822E-01 0.27683425E+03</pdfrwt>
<pdfrwt beam="2">  1       -2 0.23236253E-01 0.27683425E+03</pdfrwt>
<totfact> 0.45948674E+03</totfact>
</mgrwt>
</event>
<event>
 6    1  0.7457796E-006  0.1363728E+03  0.7546771E-02  0.1229892E+00
         -3   -1    0    0    0  501 -0.00000000000E+00  0.00000000000E+00  0.57176908484E+02  0.57176908484E+02  0.00000000000E+00 0.  1.
          3   -1    0    0  501    0  0.00000000000E+00 -0.00000000000E+00 -0.26073152858E+03  0.26073152858E+03  0.00000000000E+00 0. -1.
          5    1    1    2  502    0 -0.67639265775E+00 -0.76931849794E+02 -0.12958810953E+02  0.78160014081E+02  0.47000000000E+01 0.  1.
         -5    1    1    2    0  502  0.68100253326E+01  0.22751837059E+02 -0.88671943990E+02  0.91917496623E+02  0.47000000000E+01 0.  1.
        -11    1    1    2    0    0 -0.33213258798E+02 -0.20861720479E+00 -0.73699647930E+02  0.80838123346E+02  0.00000000000E+00 0. -1.
         11    1    1    2    0    0  0.27079626123E+02  0.54388629940E+02 -0.28224217223E+02  0.66992803013E+02  0.00000000000E+00 0.  1.
<mgrwt>
<rscale>  0 0.12837193E+03</rscale>
<asrwt>0</asrwt>
<pdfrwt beam="2">  1        3 0.40112543E-01 0.13637283E+03</pdfrwt>
<pdfrwt beam="1">  1       -3 0.87964475E-02 0.13637283E+03</pdfrwt>
<totfact> 0.12985431E+03</totfact>
</mgrwt>
</event>
<event>
 6    1  0.7457796E-006  0.1521162E+03  0.7546771E-02  0.1206451E+00
         -2   -1    0    0    0  501 -0.00000000000E+00  0.00000000000E+00  0.51084232212E+02  0.51084232212E+02  0.00000000000E+00 0.  1.
          2   -1    0    0  501    0  0.00000000000E+00 -0.00000000000E+00 -0.43700309233E+03  0.43700309233E+03  0.00000000000E+00 0. -1.
          5    1    1    2  502    0 -0.47812458549E+00  0.35058530222E+02 -0.17135487271E+02  0.39307048585E+02  0.47000000000E+01 0. -1.
         -5    1    1    2    0  502  0.59588471680E+02 -0.98457182218E+02 -0.10321388819E+03  0.15466027093E+03  0.47000000000E+01 0. -1.
        -11    1    1    2    0    0 -0.82960719567E+02  0.41380390969E+02 -0.17737431594E+03  0.20014111448E+03  0.00000000000E+00 0. -1.
         11    1    1    2    0    0  0.23850372473E+02  0.22018261027E+02 -0.88195168713E+02  0.93978890555E+02  0.00000000000E+00 0.  1.
<mgrwt>
<rscale>  0 0.14523685E+03</rscale>
<asrwt>0</asrwt>
<pdfrwt beam="2">  1        2 0.67231246E-01 0.15211623E+03</pdfrwt>
<pdfrwt beam="1">  1       -2 0.78591125E-02 0.15211623E+03</pdfrwt>
<totfact> 0.67835554E+03</totfact>
</mgrwt>
</event>
<event>
 6    1  0.7457796E-006  0.1377598E+03  0.7546771E-02  0.1227944E+00
          1   -1    0    0  501    0  0.00000000000E+00  0.00000000000E+00  0.73102263414E+03  0.73102263414E+03  0.00000000000E+00 0. -1.
         -1   -1    0    0    0  501 -0.00000000000E+00 -0.00000000000E+00 -0.21969536051E+02  0.21969536051E+02  0.00000000000E+00 0.  1.
          5    1    1    2  502    0 -0.38574396407E+02 -0.85790953941E+02  0.21338881633E+03  0.23324868439E+03  0.47000000000E+01 0.  1.
         -5    1    1    2    0  502 -0.68498644846E+00  0.43234245849E+02  0.90728396639E+02  0.10061511406E+03  0.47000000000E+01 0.  1.
        -11    1    1    2    0    0 -0.68053949580E+00  0.53949898671E+02  0.32073288463E+03  0.32523935491E+03  0.00000000000E+00 0. -1.
         11    1    1    2    0    0  0.39939922352E+02 -0.11393190579E+02  0.84203000490E+02  0.93889016826E+02  0.00000000000E+00 0.  1.
<mgrwt>
<rscale>  0 0.12967142E+03</rscale>
<asrwt>0</asrwt>
<pdfrwt beam="1">  1        1 0.11246500E+00 0.13775978E+03</pdfrwt>
<pdfrwt beam="2">  1       -1 0.33799292E-02 0.13775978E+03</pdfrwt>
<totfact> 0.80463382E+03</totfact>
</mgrwt>
</event>
<event>
 6    1  0.7457796E-006  0.1479747E+03  0.7546771E-02  0.1211394E+00
         -2   -1    0    0    0  501 -0.00000000000E+00  0.00000000000E+00  0.46457939186E+02  0.46457939186E+02  0.00000000000E+00 0.  1.
          2   -1    0    0  501    0  0.00000000000E+00 -0.00000000000E+00 -0.65922630695E+03  0.65922630695E+03  0.00000000000E+00 0. -1.
          5    1    1    2  502    0  0.72585998088E+02  0.23856415183E+02 -0.12323648041E+03  0.14507644801E+03  0.47000000000E+01 0. -1.
         -5    1    1    2    0  502  0.66108302858E+01 -0.24284370131E+02  0.22375724314E+02  0.34002893234E+02  0.47000000000E+01 0. -1.
        -11    1    1    2    0    0  0.57395521353E+01 -0.16087499578E+02 -0.16676774420E+02  0.23871843382E+02  0.00000000000E+00 0.  1.
         11    1    1    2    0    0 -0.84936380509E+02  0.16515454526E+02 -0.49523083725E+03  0.50273306151E+03  0.00000000000E+00 0. -1.
<mgrwt>
<rscale>  0 0.14144799E+03</rscale>
<asrwt>0</asrwt>
<pdfrwt beam="2">  1        2 0.10141943E+00 0.14797472E+03</pdfrwt>
<pdfrwt beam="1">  1       -2 0.71473757E-02 0.14797472E+03</pdfrwt>
<totfact> 0.49491012E+03</totfact>
</mgrwt>
</event>
<event>
 6    1  0.7457796E-006  0.3003013E+03  0.7546771E-02  0.1085090E+00
         -2   -1    0    0    0  501 -0.00000000000E+00  0.00000000000E+00  0.62861646484E+02  0.62861646484E+02  0.00000000000E+00 0.  1.
          2   -1    0    0  501    0  0.00000000000E+00 -0.00000000000E+00 -0.35864825328E+03  0.35864825328E+03  0.00000000000E+00 0. -1.
          5    1    1    2  502    0 -0.27335227961E+02  0.13607437876E+02 -0.14182423718E+02  0.33994237684E+02  0.47000000000E+01 0. -1.
         -5    1    1    2    0  502  0.12823488630E+03  0.17252051282E+01 -0.12401324560E+03  0.17846158545E+03  0.47000000000E+01 0. -1.
        -11    1    1    2    0    0 -0.51114677092E+02 -0.53814227713E+02 -0.91149842771E+02  0.11754563010E+03  0.00000000000E+00 0.  1.
         11    1    1    2    0    0 -0.49784981252E+02  0.38481584709E+02 -0.66441094716E+02  0.91508446534E+02  0.00000000000E+00 0. -1.
<mgrwt>
<rscale>  0 0.30030131E+03</rscale>
<asrwt>0</asrwt>
<pdfrwt beam="2">  1        2 0.55176656E-01 0.30030131E+03</pdfrwt>
<pdfrwt beam="1">  1       -2 0.96710223E-02 0.30030131E+03</pdfrwt>
<totfact> 0.62840915E+03</totfact>
</mgrwt>
</event>
<event>
 6    1  0.7457796E-006  0.1422126E+03  0.7546771E-02  0.1220902E+00
         -2   -1    0    0    0  501 -0.00000000000E+00  0.00000000000E+00  0.21867173818E+02  0.21867173818E+02  0.00000000000E+00 0.  1.
          2   -1    0    0  501    0  0.00000000000E+00 -0.00000000000E+00 -0.75405609624E+03  0.75405609624E+03  0.00000000000E+00 0. -1.
          5    1    1    2  502    0 -0.40046201861E+02 -0.25899722775E+02 -0.14643133542E+03  0.15407374831E+03  0.47000000000E+01 0. -1.
         -5    1    1    2    0  502  0.91773510999E+02 -0.17949876371E+02 -0.23026698773E+03  0.24857504103E+03  0.47000000000E+01 0. -1.
        -11    1    1    2    0    0  0.11140462016E+02  0.26266746383E+02 -0.30390292435E+02  0.41684790197E+02  0.00000000000E+00 0.  1.
         11    1    1    2    0    0 -0.62867771153E+02  0.17582852763E+02 -0.32510030683E+03  0.33158969052E+03  0.00000000000E+00 0. -1.
<mgrwt>
<rscale>  0 0.13451797E+03</rscale>
<asrwt>0</asrwt>
<pdfrwt beam="2">  1        2 0.11600864E+00 0.14221259E+03</pdfrwt>
<pdfrwt beam="1">  1       -2 0.33641804E-02 0.14221259E+03</pdfrwt>
<totfact> 0.13063708E+04</totfact>
</mgrwt>
</event>
<event>
 6    1  0.7457796E-006  0.1377561E+03  0.7546771E-02  0.1228752E+00
          1   -1    0    0  501    0  0.00000000000E+00  0.00000000000E+00  0.78917800060E+02  0.78917800060E+02  0.00000000000E+00 0. -1.
         -1   -1    0    0    0  501 -0.00000000000E+00 -0.00000000000E+00 -0.18878368792E+03  0.18878368792E+03  0.00000000000E+00 0.  1.
          5    1    1    2  502    0 -0.21027050685E+01 -0.91641788770E+02 -0.16966590999E+02  0.93341277192E+02  0.47000000000E+01 0.  1.
         -5    1    1    2    0  502 -0.92820310142E+01  0.34890593548E+02 -0.44525615151E+02  0.57516345698E+02  0.47000000000E+01 0.  1.
        -11    1    1    2    0    0 -0.21867598866E+02  0.15131355898E+02  0.17718879004E+02  0.31954788133E+02  0.00000000000E+00 0. -1.
         11    1    1    2    0    0  0.33252334948E+02  0.41619839324E+02 -0.66092560712E+02  0.84889076955E+02  0.00000000000E+00 0.  1.
<mgrwt>
<rscale>  0 0.12913017E+03</rscale>
<asrwt>0</asrwt>
<pdfrwt beam="1">  1        1 0.12141200E-01 0.13775606E+03</pdfrwt>
<pdfrwt beam="2">  1       -1 0.29043644E-01 0.13775606E+03</pdfrwt>
<totfact> 0.50925292E+03</totfact>
</mgrwt>
</event>
<event>
 6    1  0.7457796E-006  0.2785927E+03  0.7546771E-02  0.1096460E+00
         -2   -1    0    0    0  501 -0.00000000000E+00  0.00000000000E+00  0.13358480671E+03  0.13358480671E+03  0.00000000000E+00 0.  1.
          2   -1    0    0  501    0  0.00000000000E+00 -0.00000000000E+00 -0.14525208953E+03  0.14525208953E+03  0.00000000000E+00 0. -1.
          5    1    1    2  502    0 -0.14375153099E+02 -0.68952490855E+01  0.70235739895E+02  0.72175748317E+02  0.47000000000E+01 0.  1.
         -5    1    1    2    0  502  0.80361311853E+01 -0.70005127072E+02 -0.35100292864E+02  0.78863285373E+02  0.47000000000E+01 0.  1.
        -11    1    1    2    0    0 -0.22713923979E+02  0.66991129920E+02  0.12840342123E+01  0.70748728429E+02  0.00000000000E+00 0.  1.
         11    1    1    2    0    0  0.29052945892E+02  0.99092462378E+01 -0.48086764067E+02  0.57049134125E+02  0.00000000000E+00 0. -1.
<mgrwt>
<rscale>  0 0.27859269E+03</rscale>
<asrwt>0</asrwt>
<pdfrwt beam="2">  1        2 0.22346475E-01 0.27859269E+03</pdfrwt>
<pdfrwt beam="1">  1       -2 0.20551509E-01 0.27859269E+03</pdfrwt>
<totfact> 0.48713427E+03</totfact>
</mgrwt>
</event>
<event>
 6    1  0.7457796E-006  0.1309448E+03  0.7546771E-02  0.1240479E+00
          3   -1    0    0  501    0  0.00000000000E+00  0.00000000000E+00  0.80233471952E+02  0.80233471952E+02  0.00000000000E+00 0. -1.
         -3   -1    0    0    0  501 -0.00000000000E+00 -0.00000000000E+00 -0.19072489607E+03  0.19072489607E+03  0.00000000000E+00 0.  1.
          5    1    1    2  502    0 -0.24378326774E+02 -0.70921486601E+02 -0.76441788711E+02  0.10718953839E+03  0.47000000000E+01 0. -1.
         -5    1    1    2    0  502  0.41230826393E+02  0.35748652060E+02 -0.37408267317E+02  0.66328090828E+02  0.47000000000E+01 0. -1.
        -11    1    1    2    0    0  0.17663223906E+02  0.52616070169E+02  0.14175681783E+02  0.57283420575E+02  0.00000000000E+00 0. -1.
         11    1    1    2    0    0 -0.34515723525E+02 -0.17443235628E+02 -0.10817049871E+02  0.40157318232E+02  0.00000000000E+00 0.  1.
<mgrwt>
<rscale>  0 0.12160088E+03</rscale>
<asrwt>0</asrwt>
<pdfrwt beam="1">  1        3 0.12343611E-01 0.13094477E+03</pdfrwt>
<pdfrwt beam="2">  1       -3 0.29342291E-01 0.13094477E+03</pdfrwt>
<totfact> 0.13252632E+03</totfact>
</mgrwt>
</event>
<event>
 6    1  0.7457796E-006  0.2763130E+03  0.7546771E-02  0.1097720E+00
          3   -1    0    0  501    0  0.00000000000E+00  0.00000000000E+00  0.28192569707E+03  0.28192569707E+03  0.00000000000E+00 0. -1.
         -3   -1    0    0    0  501 -0.00000000000E+00 -0.00000000000E+00 -0.67703019207E+02  0.67703019207E+02  0.00000000000E+00 0.  1.
          5    1    1    2  502    0 -0.31632248400E+02 -0.17866274566E+02  0.75384688330E+02  0.83813746727E+02  0.47000000000E+01 0.  1.
         -5    1    1    2    0  502  0.14403651557E+02  0.10024552384E+03  0.54371762242E+02  0.11504350810E+03  0.47000000000E+01 0.  1.
        -11    1    1    2    0    0 -0.29918413726E+02 -0.41611075641E+02  0.70051486355E+02  0.86797487500E+02  0.00000000000E+00 0.  1.
         11    1    1    2    0    0  0.47147010569E+02 -0.40768173630E+02  0.14414740940E+02  0.63973973951E+02  0.00000000000E+00 0. -1.
<mgrwt>
<rscale>  0 0.27631302E+03</rscale>
<asrwt>0</asrwt>
<pdfrwt beam="1">  1        3 0.43373184E-01 0.27631302E+03</pdfrwt>
<pdfrwt beam="2">  1       -3 0.10415849E-01 0.27631302E+03</pdfrwt>
<totfact> 0.92987355E+02</totfact>
</mgrwt>
</event>
<event>
 6    1  0.7457796E-006  0.1410371E+03  0.7546771E-02  0.1222673E+00
          2   -1    0    0  501    0  0.00000000000E+00  0.00000000000E+00  0.52739445116E+02  0.52739445116E+02  0.00000000000E+00 0. -1.
         -2   -1    0    0    0  501 -0.00000000000E+00 -0.00000000000E+00 -0.51109939793E+03  0.51109939793E+03  0.00000000000E+00 0.  1.
          5    1    1    2  502    0 -0.44130680457E+02 -0.55845500380E+02 -0.11119615225E+03  0.13210946653E+03  0.47000000000E+01 0.  1.
         -5    1    1    2    0  502  0.33753694990E+02 -0.86414895027E+01 -0.31188564100E+03  0.31386100480E+03  0.47000000000E+01 0.  1.
        -11    1    1    2    0    0  0.11450355896E+02 -0.78288708526E+01  0.21728703125E+02  0.25778642487E+02  0.00000000000E+00 0. -1.
         11    1    1    2    0    0 -0.10733704287E+01  0.72315860735E+02 -0.57006862680E+02  0.92089729235E+02  0.00000000000E+00 0.  1.
<mgrwt>
<rscale>  0 0.13327677E+03</rscale>
<asrwt>0</asrwt>
<pdfrwt beam="1">  1        2 0.81137608E-02 0.14103708E+03</pdfrwt>
<pdfrwt beam="2">  1       -2 0.78630676E-01 0.14103708E+03</pdfrwt>
<totfact> 0.12031955E+03</totfact>
</mgrwt>
</event>
<event>
 6    1  0.7457796E-006  0.1191090E+03  0.7546771E-02  0.1256209E+00
          1   -1    0    0  501    0  0.00000000000E+00  0.00000000000E+00  0.43661195051E+03  0.43661195051E+03  0.00000000000E+00 0. -1.
         -1   -1    0    0    0  501 -0.00000000000E+00 -0.00000000000E+00 -0.26155803159E+02  0.26155803159E+02  0.00000000000E+00 0.  1.
          5    1    1    2  502    0 -0.38861646243E+02  0.28136381499E+02  0.13372701700E+03  0.14215093594E+03  0.47000000000E+01 0. -1.
         -5    1    1    2    0  502  0.33274878494E+02 -0.58160477457E+02  0.10513411283E+03  0.12476029159E+03  0.47000000000E+01 0.  1.
        -11    1    1    2    0    0  0.22778391071E+02  0.47291562911E+02  0.16090094054E+03  0.16924674203E+03  0.00000000000E+00 0. -1.
         11    1    1    2    0    0 -0.17191623322E+02 -0.17267466953E+02  0.10694076968E+02  0.26609784096E+02  0.00000000000E+00 0.  1.
<mgrwt>
<rscale>  0 0.11238886E+03</rscale>
<asrwt>0</asrwt>
<pdfrwt beam="1">  1        1 0.67171064E-01 0.11910904E+03</pdfrwt>
<pdfrwt beam="2">  1       -1 0.40239700E-02 0.11910904E+03</pdfrwt>
<totfact> 0.12343691E+04</totfact>
</mgrwt>
</event>
<event>
 6    1  0.7457796E-006  0.1280905E+03  0.7546771E-02  0.1244690E+00
          2   -1    0    0  501    0  0.00000000000E+00  0.00000000000E+00  0.25159461355E+02  0.25159461355E+02  0.00000000000E+00 0. -1.
         -2   -1    0    0    0  501 -0.00000000000E+00 -0.00000000000E+00 -0.50171573415E+03  0.50171573415E+03  0.00000000000E+00 0.  1.
          5    1    1    2  502    0 -0.27852545298E+02 -0.21131312698E+02 -0.27664946259E+03  0.27888942577E+03  0.47000000000E+01 0. -1.
         -5    1    1    2    0  502  0.66829903394E+01  0.39307831675E+02 -0.21347647828E+02  0.45470650519E+02  0.47000000000E+01 0. -1.
        -11    1    1    2    0    0 -0.12669487468E+01 -0.53599007855E+02 -0.10076438707E+03  0.11413991634E+03  0.00000000000E+00 0.  1.
         11    1    1    2    0    0  0.22436503706E+02  0.35422488878E+02 -0.77794775312E+02  0.88375202872E+02  0.00000000000E+00 0. -1.
<mgrwt>
<rscale>  0 0.11903937E+03</rscale>
<asrwt>0</asrwt>
<pdfrwt beam="1">  1        2 0.38706862E-02 0.12809052E+03</pdfrwt>
<pdfrwt beam="2">  1       -2 0.77187040E-01 0.12809052E+03</pdfrwt>
<totfact> 0.32422563E+03</totfact>
</mgrwt>
</event>
<event>
 6    1  0.7457796E-006  0.1334663E+03  0.7546771E-02  0.1236642E+00
          1   -1    0    0  501    0  0.00000000000E+00  0.00000000000E+00  0.43872700640E+02  0.43872700640E+02  0.00000000000E+00 0. -1.
         -1   -1    0    0    0  501 -0.00000000000E+00 -0.00000000000E+00 -0.32352155034E+03  0.32352155034E+03  0.00000000000E+00 0.  1.
          5    1    1    2  502    0 -0.32061509229E+02  0.36062898903E+02 -0.11063498100E+02  0.49728905494E+02  0.47000000000E+01 0. -1.
         -5    1    1    2    0  502  0.26146856114E+02  0.10349386209E+02 -0.18665928166E+03  0.18882411210E+03  0.47000000000E+01 0. -1.
        -11    1    1    2    0    0  0.21174767339E+02  0.40401703005E+00 -0.76412210610E+02  0.79292874409E+02  0.00000000000E+00 0.  1.
         11    1    1    2    0    0 -0.15260114224E+02 -0.46816302142E+02 -0.55138593236E+01  0.49548358974E+02  0.00000000000E+00 0. -1.
<mgrwt>
<rscale>  0 0.12399900E+03</rscale>
<asrwt>0</asrwt>
<pdfrwt beam="1">  1        1 0.67496462E-02 0.13346627E+03</pdfrwt>
<pdfrwt beam="2">  1       -1 0.49772547E-01 0.13346627E+03</pdfrwt>
<totfact> 0.43485774E+03</totfact>
</mgrwt>
</event>
<event>
 6    1  0.7457796E-006  0.1668087E+03  0.7546771E-02  0.1186631E+00
         -1   -1    0    0    0  501 -0.00000000000E+00  0.00000000000E+00  0.26425717984E+03  0.26425717984E+03  0.00000000000E+00 0.  1.
          1   -1    0    0  501    0  0.00000000000E+00 -0.00000000000E+00 -0.98510872484E+02  0.98510872484E+02  0.00000000000E+00 0. -1.
          5    1    1    2  502    0 -0.18035283482E+02  0.60397733062E+02  0.10064576289E+03  0.11884787418E+03  0.47000000000E+01 0. -1.
         -5    1    1    2    0  502  0.81784024434E+02  0.29817404996E+02  0.27211810128E+02  0.91325116500E+02  0.47000000000E+01 0. -1.
        -11    1    1    2    0    0 -0.71743698953E+02 -0.67149574342E+02  0.63669875132E+02  0.11709003661E+03  0.00000000000E+00 0.  1.
         11    1    1    2    0    0  0.79949580012E+01 -0.23065563716E+02 -0.25781140786E+02  0.35505025042E+02  0.00000000000E+00 0. -1.
<mgrwt>
<rscale>  0 0.16184326E+03</rscale>
<asrwt>0</asrwt>
<pdfrwt beam="2">  1        1 0.15155519E-01 0.16680865E+03</pdfrwt>
<pdfrwt beam="1">  1       -1 0.40654950E-01 0.16680865E+03</pdfrwt>
<totfact> 0.21604719E+03</totfact>
</mgrwt>
</event>
<event>
 6    1  0.7457796E-006  0.2947292E+03  0.7546771E-02  0.1089555E+00
         -2   -1    0    0    0  501 -0.00000000000E+00  0.00000000000E+00  0.15622471093E+03  0.15622471093E+03  0.00000000000E+00 0. -1.
          2   -1    0    0  501    0  0.00000000000E+00 -0.00000000000E+00 -0.53871316323E+03  0.53871316323E+03  0.00000000000E+00 0.  1.
          5    1    1    2  502    0  0.17349238486E+03  0.16316211485E+03 -0.83408411301E+02  0.25238965193E+03  0.47000000000E+01 0.  1.
         -5    1    1    2    0  502  0.33198423711E+02  0.57146642588E+01 -0.74680396661E+02  0.82061223303E+02  0.47000000000E+01 0.  1.
        -11    1    1    2    0    0 -0.79517148342E+02 -0.12392075069E+03 -0.11782622711E+03  0.18857982163E+03  0.00000000000E+00 0.  1.
         11    1    1    2    0    0 -0.12717366023E+03 -0.44956028422E+02 -0.10657341722E+03  0.17190717729E+03  0.00000000000E+00 0. -1.
<mgrwt>
<rscale>  0 0.29152687E+03</rscale>
<asrwt>0</asrwt>
<pdfrwt beam="2">  1        2 0.82878948E-01 0.29472923E+03</pdfrwt>
<pdfrwt beam="1">  1       -2 0.24034571E-01 0.29472923E+03</pdfrwt>
<totfact> 0.87386452E+02</totfact>
</mgrwt>
</event>
<event>
 6    1  0.7457796E-006  0.1287559E+03  0.7546771E-02  0.1237762E+00
         -2   -1    0    0    0  501 -0.00000000000E+00  0.00000000000E+00  0.24671543605E+02  0.24671543605E+02  0.00000000000E+00 0.  1.
          2   -1    0    0  501    0  0.00000000000E+00 -0.00000000000E+00 -0.65469468029E+03  0.65469468029E+03  0.00000000000E+00 0. -1.
          5    1    1    2  502    0  0.38567026381E+02 -0.60604396649E+02 -0.71824009942E+02  0.10169113443E+03  0.47000000000E+01 0. -1.
         -5    1    1    2    0  502 -0.20341303315E+02  0.34611351221E+02 -0.14454136869E+03  0.15008668001E+03  0.47000000000E+01 0. -1.
        -11    1    1    2    0    0 -0.29321490617E+02 -0.34660060082E+02 -0.14477054523E+03  0.15172204963E+03  0.00000000000E+00 0.  1.
         11    1    1    2    0    0  0.11095767552E+02  0.60653105510E+02 -0.26888721282E+03  0.27586635983E+03  0.00000000000E+00 0. -1.
<mgrwt>
<rscale>  0 0.12329267E+03</rscale>
<asrwt>0</asrwt>
<pdfrwt beam="2">  1        2 0.10072226E+00 0.12875593E+03</pdfrwt>
<pdfrwt beam="1">  1       -2 0.37956219E-02 0.12875593E+03</pdfrwt>
<totfact> 0.12838546E+04</totfact>
</mgrwt>
</event>
<event>
 6    1  0.7457796E-006  0.1328997E+03  0.7546771E-02  0.1236330E+00
         -2   -1    0    0    0  501 -0.00000000000E+00  0.00000000000E+00  0.20096707515E+03  0.20096707515E+03  0.00000000000E+00 0.  1.
          2   -1    0    0  501    0  0.00000000000E+00 -0.00000000000E+00 -0.91761917027E+02  0.91761917027E+02  0.00000000000E+00 0. -1.
          5    1    1    2  502    0  0.29986197482E+02  0.56790004665E+02  0.11275295447E+03  0.12984450474E+03  0.47000000000E+01 0.  1.
         -5    1    1    2    0  502  0.14948987120E+02 -0.52488768903E+02  0.20878191476E+02  0.58621940911E+02  0.47000000000E+01 0.  1.
        -11    1    1    2    0    0 -0.16416376731E+02  0.11125980209E+02  0.32892696298E+02  0.38408518981E+02  0.00000000000E+00 0.  1.
         11    1    1    2    0    0 -0.28518807871E+02 -0.15427215970E+02 -0.57318684119E+02  0.65854027547E+02  0.00000000000E+00 0. -1.
<mgrwt>
<rscale>  0 0.12419685E+03</rscale>
<asrwt>0</asrwt>
<pdfrwt beam="2">  1        2 0.14117218E-01 0.13289965E+03</pdfrwt>
<pdfrwt beam="1">  1       -2 0.30918012E-01 0.13289965E+03</pdfrwt>
<totfact> 0.38769507E+03</totfact>
</mgrwt>
</event>
<event>
 6    1  0.7457796E-006  0.1364591E+03  0.7546771E-02  0.1231241E+00
          1   -1    0    0  501    0  0.00000000000E+00  0.00000000000E+00  0.46278298860E+03  0.46278298860E+03  0.00000000000E+00 0. -1.
         -1   -1    0    0    0  501 -0.00000000000E+00 -0.00000000000E+00 -0.34005882921E+02  0.34005882921E+02  0.00000000000E+00 0.  1.
          5    1    1    2  502    0  0.37963623213E+02 -0.14724584164E+02  0.62705494207E+02  0.74914077916E+02  0.47000000000E+01 0.  1.
         -5    1    1    2    0  502 -0.92444075942E+02  0.19897792213E+02  0.10780746307E+03  0.14347950517E+03  0.47000000000E+01 0.  1.
        -11    1    1    2    0    0  0.13308756248E+02  0.40241773166E+02  0.96104321865E+02  0.10503601278E+03  0.00000000000E+00 0.  1.
         11    1    1    2    0    0  0.41171696480E+02 -0.45414981215E+02  0.16215982654E+03  0.17335927565E+03  0.00000000000E+00 0. -1.
<mgrwt>
<rscale>  0 0.12748168E+03</rscale>
<asrwt>0</asrwt>
<pdfrwt beam="1">  1        1 0.71197378E-01 0.13645911E+03</pdfrwt>
<pdfrwt beam="2">  1       -1 0.52316746E-02 0.13645911E+03</pdfrwt>
<totfact> 0.78633141E+03</totfact>
</mgrwt>
</event>
<event>
 6    1  0.7457796E-006  0.1269453E+03  0.7546771E-02  0.1246898E+00
         -1   -1    0    0    0  501 -0.00000000000E+00  0.00000000000E+00  0.59116127900E+02  0.59116127900E+02  0.00000000000E+00 0.  1.
          1   -1    0    0  501    0  0.00000000000E+00 -0.00000000000E+00 -0.20747445461E+03  0.20747445461E+03  0.00000000000E+00 0. -1.
          5    1    1    2  502    0 -0.38304969063E+02  0.49518376858E+02 -0.38279526274E+02  0.73530622419E+02  0.47000000000E+01 0. -1.
         -5    1    1    2    0  502  0.19377981850E+02 -0.60971263014E+02 -0.36781829972E+02  0.73945886364E+02  0.47000000000E+01 0. -1.
        -11    1    1    2    0    0  0.41677546750E+02 -0.10551525487E+02 -0.43038756527E+01  0.43207359776E+02  0.00000000000E+00 0.  1.
         11    1    1    2    0    0 -0.22750559537E+02  0.22004411642E+02 -0.68993094808E+02  0.75906713947E+02  0.00000000000E+00 0. -1.
<mgrwt>
<rscale>  0 0.11772528E+03</rscale>
<asrwt>0</asrwt>
<pdfrwt beam="2">  1        1 0.31919147E-01 0.12694532E+03</pdfrwt>
<pdfrwt beam="1">  1       -1 0.90947889E-02 0.12694532E+03</pdfrwt>
<totfact> 0.92860308E+03</totfact>
</mgrwt>
</event>
<event>
 6    1  0.7457796E-006  0.1330023E+03  0.7546771E-02  0.1236232E+00
          1   -1    0    0  501    0  0.00000000000E+00  0.00000000000E+00  0.26689787579E+03  0.26689787579E+03  0.00000000000E+00 0. -1.
         -1   -1    0    0    0  501 -0.00000000000E+00 -0.00000000000E+00 -0.55085015439E+02  0.55085015439E+02  0.00000000000E+00 0.  1.
          5    1    1    2  502    0 -0.64960894750E+02  0.28007366938E+02  0.30279485947E+02  0.77092591854E+02  0.47000000000E+01 0. -1.
         -5    1    1    2    0  502  0.27478355910E+02 -0.53720501174E+02  0.47906287763E+02  0.77188436292E+02  0.47000000000E+01 0. -1.
        -11    1    1    2    0    0  0.21334118728E+02 -0.25480016735E+02  0.13026157136E+02  0.35693930079E+02  0.00000000000E+00 0.  1.
         11    1    1    2    0    0  0.16148420112E+02  0.51193150972E+02  0.12060092951E+03  0.13200793300E+03  0.00000000000E+00 0. -1.
<mgrwt>
<rscale>  0 0.12425924E+03</rscale>
<asrwt>0</asrwt>
<pdfrwt beam="1">  1        1 0.41061211E-01 0.13300233E+03</pdfrwt>
<pdfrwt beam="2">  1       -1 0.84746179E-02 0.13300233E+03</pdfrwt>
<totfact> 0.75957084E+03</totfact>
</mgrwt>
</event>
<event>
 6    1  0.7457796E-006  0.1365074E+03  0.7546771E-02  0.1229049E+00
          1   -1    0    0  501    0  0.00000000000E+00  0.00000000000E+00  0.10650619437E+04  0.10650619437E+04  0.00000000000E+00 0. -1.
         -1   -1    0    0    0  501 -0.00000000000E+00 -0.00000000000E+00 -0.14165812608E+02  0.14165812608E+02  0.00000000000E+00 0.  1.
          5    1    1    2  502    0  0.35523741500E+02 -0.10258374337E+02  0.32597868427E+03  0.32810267151E+03  0.47000000000E+01 0. -1.
         -5    1    1    2    0  502 -0.68563299308E+02  0.54033326993E+02  0.29378296404E+03  0.30651434941E+03  0.47000000000E+01 0. -1.
        -11    1    1    2    0    0  0.61507124293E+02 -0.72628426729E+01  0.22754437005E+03  0.23582263582E+03  0.00000000000E+00 0.  1.
         11    1    1    2    0    0 -0.28467566485E+02 -0.36512109982E+02  0.20359011270E+03  0.20878809953E+03  0.00000000000E+00 0. -1.
<mgrwt>
<rscale>  0 0.12893192E+03</rscale>
<asrwt>0</asrwt>
<pdfrwt beam="1">  1        1 0.16385562E+00 0.13650737E+03</pdfrwt>
<pdfrwt beam="2">  1       -1 0.21793566E-02 0.13650737E+03</pdfrwt>
<totfact> 0.83790439E+03</totfact>
</mgrwt>
</event>
<event>
 6    1  0.7457796E-006  0.1528436E+03  0.7546771E-02  0.1205232E+00
          1   -1    0    0  501    0  0.00000000000E+00  0.00000000000E+00  0.25841372510E+03  0.25841372510E+03  0.00000000000E+00 0. -1.
         -1   -1    0    0    0  501 -0.00000000000E+00 -0.00000000000E+00 -0.81331101484E+02  0.81331101484E+02  0.00000000000E+00 0.  1.
          5    1    1    2  502    0  0.77568793720E+02  0.76718551479E+02  0.32678657085E+02  0.11398525575E+03  0.47000000000E+01 0. -1.
         -5    1    1    2    0  502  0.35562914016E+01 -0.42771446100E+02  0.20986271681E+02  0.48005805993E+02  0.47000000000E+01 0. -1.
        -11    1    1    2    0    0  0.16746042043E+02 -0.22218692055E+02  0.16571734750E+02  0.32383986681E+02  0.00000000000E+00 0.  1.
         11    1    1    2    0    0 -0.97871127165E+02 -0.11728413324E+02  0.10684596010E+03  0.14536977816E+03  0.00000000000E+00 0. -1.
<mgrwt>
<rscale>  0 0.14619189E+03</rscale>
<asrwt>0</asrwt>
<pdfrwt beam="1">  1        1 0.39755957E-01 0.15284364E+03</pdfrwt>
<pdfrwt beam="2">  1       -1 0.12512477E-01 0.15284364E+03</pdfrwt>
<totfact> 0.43903485E+03</totfact>
</mgrwt>
</event>
<event>
 6    1  0.7457796E-006  0.2518809E+03  0.7546771E-02  0.1114558E+00
          2   -1    0    0  501    0  0.00000000000E+00  0.00000000000E+00  0.29947587792E+03  0.29947587792E+03  0.00000000000E+00 0. -1.
         -2   -1    0    0    0  501 -0.00000000000E+00 -0.00000000000E+00 -0.19948778698E+03  0.19948778698E+03  0.00000000000E+00 0.  1.
          5    1    1    2  502    0 -0.58454663430E+02 -0.22503365628E+03  0.63617927837E+02  0.24109422406E+03  0.47000000000E+01 0. -1.
         -5    1    1    2    0  502  0.10207796841E+02  0.11747482044E+02 -0.59362354495E+01  0.17306973797E+02  0.47000000000E+01 0. -1.
        -11    1    1    2    0    0  0.50588145460E+02  0.18971285547E+03  0.65921712143E+02  0.20711301293E+03  0.00000000000E+00 0. -1.
         11    1    1    2    0    0 -0.23412788701E+01  0.23573318765E+02 -0.23615313596E+02  0.33449454114E+02  0.00000000000E+00 0.  1.
<mgrwt>
<rscale>  0 0.24802640E+03</rscale>
<asrwt>0</asrwt>
<pdfrwt beam="1">  1        2 0.46073212E-01 0.25188093E+03</pdfrwt>
<pdfrwt beam="2">  1       -2 0.30690429E-01 0.25188093E+03</pdfrwt>
<totfact> 0.10742196E+03</totfact>
</mgrwt>
</event>
<event>
 6    1  0.7457796E-006  0.1598418E+03  0.7546771E-02  0.1196937E+00
         -1   -1    0    0    0  501 -0.00000000000E+00  0.00000000000E+00  0.27472491437E+02  0.27472491437E+02  0.00000000000E+00 0.  1.
          1   -1    0    0  501    0  0.00000000000E+00 -0.00000000000E+00 -0.81405235885E+03  0.81405235885E+03  0.00000000000E+00 0. -1.
          5    1    1    2  502    0 -0.75752733603E+02  0.86235728247E+02 -0.33749555262E+03  0.35651145215E+03  0.47000000000E+01 0.  1.
         -5    1    1    2    0  502 -0.17156543602E+01 -0.23604318952E+02 -0.10259261474E+02  0.26219263702E+02  0.47000000000E+01 0.  1.
        -11    1    1    2    0    0  0.89615768791E+02 -0.65502074544E+02 -0.42835094781E+03  0.44249976528E+03  0.00000000000E+00 0. -1.
         11    1    1    2    0    0 -0.12147380828E+02  0.28706652493E+01 -0.10474105514E+02  0.16294369158E+02  0.00000000000E+00 0.  1.
<mgrwt>
<rscale>  0 0.15291461E+03</rscale>
<asrwt>0</asrwt>
<pdfrwt beam="2">  1        1 0.12523885E+00 0.15984177E+03</pdfrwt>
<pdfrwt beam="1">  1       -1 0.42265362E-02 0.15984177E+03</pdfrwt>
<totfact> 0.49727833E+03</totfact>
</mgrwt>
</event>
<event>
 6    1  0.7457796E-006  0.1358472E+03  0.7546771E-02  0.1232490E+00
          2   -1    0    0  501    0  0.00000000000E+00  0.00000000000E+00  0.62187446283E+03  0.62187446283E+03  0.00000000000E+00 0. -1.
         -2   -1    0    0    0  501 -0.00000000000E+00 -0.00000000000E+00 -0.24490671151E+02  0.24490671151E+02  0.00000000000E+00 0.  1.
          5    1    1    2  502    0 -0.39495407510E+02 -0.32467481248E+02  0.15616648258E+03  0.16439003873E+03  0.47000000000E+01 0. -1.
         -5    1    1    2    0  502  0.75340526566E+02 -0.68278565914E+01  0.98979491521E+02  0.12466693351E+03  0.47000000000E+01 0. -1.
        -11    1    1    2    0    0 -0.59284905454E+02  0.10998602217E+02  0.15139913973E+03  0.16296431749E+03  0.00000000000E+00 0.  1.
         11    1    1    2    0    0  0.23439786398E+02  0.28296735622E+02  0.19083867786E+03  0.19434384425E+03  0.00000000000E+00 0. -1.
<mgrwt>
<rscale>  0 0.12666466E+03</rscale>
<asrwt>0</asrwt>
<pdfrwt beam="1">  1        2 0.95672982E-01 0.13584721E+03</pdfrwt>
<pdfrwt beam="2">  1       -2 0.37677960E-02 0.13584721E+03</pdfrwt>
<totfact> 0.13827424E+04</totfact>
</mgrwt>
</event>
<event>
 6    1  0.7457796E-006  0.1413990E+03  0.7546771E-02  0.1221438E+00
         -2   -1    0    0    0  501 -0.00000000000E+00  0.00000000000E+00  0.78413889098E+02  0.78413889098E+02  0.00000000000E+00 0.  1.
          2   -1    0    0  501    0  0.00000000000E+00 -0.00000000000E+00 -0.23876526535E+03  0.23876526535E+03  0.00000000000E+00 0. -1.
          5    1    1    2  502    0  0.39098981835E+02 -0.83677398977E+02 -0.42594548482E+02  0.10181857905E+03  0.47000000000E+01 0.  1.
         -5    1    1    2    0  502  0.10533268847E+02  0.40035704459E+02  0.10948123068E+02  0.43078518810E+02  0.47000000000E+01 0.  1.
        -11    1    1    2    0    0 -0.59680623646E+02  0.25804133421E+02 -0.30234870120E+02  0.71706188795E+02  0.00000000000E+00 0.  1.
         11    1    1    2    0    0  0.10048372964E+02  0.17837561097E+02 -0.98470080715E+02  0.10057586779E+03  0.00000000000E+00 0. -1.
<mgrwt>
<rscale>  0 0.13414067E+03</rscale>
<asrwt>0</asrwt>
<pdfrwt beam="2">  1        2 0.36733117E-01 0.14139898E+03</pdfrwt>
<pdfrwt beam="1">  1       -2 0.12063675E-01 0.14139898E+03</pdfrwt>
<totfact> 0.65628711E+03</totfact>
</mgrwt>
</event>
<event>
 6    1  0.7457796E-006  0.1277303E+03  0.7546771E-02  0.1244895E+00
          1   -1    0    0  501    0  0.00000000000E+00  0.00000000000E+00  0.12213984276E+03  0.12213984276E+03  0.00000000000E+00 0. -1.
         -1   -1    0    0    0  501 -0.00000000000E+00 -0.00000000000E+00 -0.18627670528E+03  0.18627670528E+03  0.00000000000E+00 0.  1.
          5    1    1    2  502    0  0.59020981197E+02 -0.36877843650E+00 -0.17007258567E+02  0.61603157898E+02  0.47000000000E+01 0. -1.
         -5    1    1    2    0  502 -0.35069229540E+02  0.11190596839E+02 -0.12045749858E+03  0.12604435442E+03  0.47000000000E+01 0. -1.
        -11    1    1    2    0    0 -0.34717312076E+02  0.85623814711E+01 -0.78570243282E+01  0.36610640059E+02  0.00000000000E+00 0.  1.
         11    1    1    2    0    0  0.10765560418E+02 -0.19384199874E+02  0.81184918955E+02  0.84158395669E+02  0.00000000000E+00 0. -1.
<mgrwt>
<rscale>  0 0.11891651E+03</rscale>
<asrwt>0</asrwt>
<pdfrwt beam="1">  1        1 0.18790745E-01 0.12773030E+03</pdfrwt>
<pdfrwt beam="2">  1       -1 0.28657954E-01 0.12773030E+03</pdfrwt>
<totfact> 0.29477499E+03</totfact>
</mgrwt>
</event>
<event>
 6    1  0.7457796E-006  0.1223409E+03  0.7546771E-02  0.1318625E+00
         -2   -1    0    0    0  501 -0.00000000000E+00  0.00000000000E+00  0.15875707752E+02  0.15875707752E+02  0.00000000000E+00 0.  1.
          2   -1    0    0  501    0  0.00000000000E+00 -0.00000000000E+00 -0.35114690963E+03  0.35114690963E+03  0.00000000000E+00 0. -1.
          5    1    1    2  502    0  0.23866770267E+02  0.40537840772E+02 -0.24240866028E+03  0.24697568268E+03  0.47000000000E+01 0. -1.
         -5    1    1    2    0  502 -0.49124363039E+01 -0.40674050181E+02 -0.28071604912E+02  0.49886024004E+02  0.47000000000E+01 0.  1.
        -11    1    1    2    0    0 -0.82290459453E+01 -0.60709342737E+01 -0.11243691438E+02  0.15198487994E+02  0.00000000000E+00 0. -1.
         11    1    1    2    0    0 -0.10725288017E+02  0.62071436832E+01 -0.53547245250E+02  0.54962422705E+02  0.00000000000E+00 0.  1.
<mgrwt>
<rscale>  0 0.83791056E+02</rscale>
<asrwt>0</asrwt>
<pdfrwt beam="2">  1        2 0.54022597E-01 0.12234091E+03</pdfrwt>
<pdfrwt beam="1">  1       -2 0.24424168E-02 0.12234091E+03</pdfrwt>
<totfact> 0.48264083E+04</totfact>
</mgrwt>
</event>
<event>
 6    1  0.7457796E-006  0.1359946E+03  0.7546771E-02  0.1231513E+00
         -4   -1    0    0    0  501 -0.00000000000E+00  0.00000000000E+00  0.66163247314E+02  0.66163247314E+02  0.00000000000E+00 0.  1.
          4   -1    0    0  501    0  0.00000000000E+00 -0.00000000000E+00 -0.23067721654E+03  0.23067721654E+03  0.00000000000E+00 0. -1.
          5    1    1    2  502    0 -0.73612866041E+02 -0.42507253821E+02 -0.46791460202E+01  0.85262565536E+02  0.47000000000E+01 0. -1.
         -5    1    1    2    0  502  0.29678434889E+02  0.11854330538E+02 -0.53843240890E+02  0.62789483510E+02  0.47000000000E+01 0. -1.
        -11    1    1    2    0    0 -0.20541781426E+02  0.26227785104E+02 -0.13480410725E+02  0.35938599985E+02  0.00000000000E+00 0. -1.
         11    1    1    2    0    0  0.64476212578E+02  0.44251381795E+01 -0.92511171593E+02  0.11284981482E+03  0.00000000000E+00 0.  1.
<mgrwt>
<rscale>  0 0.12730294E+03</rscale>
<asrwt>0</asrwt>
<pdfrwt beam="2">  1        4 0.35488802E-01 0.13599463E+03</pdfrwt>
<pdfrwt beam="1">  1       -4 0.10178961E-01 0.13599463E+03</pdfrwt>
<totfact> 0.93628799E+02</totfact>
</mgrwt>
</event>
<event>
 6    1  0.7457796E-006  0.1505178E+03  0.7546771E-02  0.1209117E+00
         -1   -1    0    0    0  501 -0.00000000000E+00  0.00000000000E+00  0.30436625074E+03  0.30436625074E+03  0.00000000000E+00 0.  1.
          1   -1    0    0  501    0  0.00000000000E+00 -0.00000000000E+00 -0.62062161492E+02  0.62062161492E+02  0.00000000000E+00 0. -1.
          5    1    1    2  502    0 -0.95306452256E+02 -0.23275580322E+02  0.48951480093E+02  0.10974247074E+03  0.47000000000E+01 0. -1.
         -5    1    1    2    0  502  0.17189752525E+02 -0.72006012043E+01  0.10067202508E+03  0.10249040385E+03  0.47000000000E+01 0. -1.
        -11    1    1    2    0    0  0.77370663254E+02  0.53137392801E+02  0.51185795353E+02  0.10691018517E+03  0.00000000000E+00 0. -1.
         11    1    1    2    0    0  0.74603647610E+00 -0.22661211275E+02  0.41494788727E+02  0.47285352472E+02  0.00000000000E+00 0.  1.
<mgrwt>
<rscale>  0 0.14317702E+03</rscale>
<asrwt>0</asrwt>
<pdfrwt beam="2">  1        1 0.95480250E-02 0.15051777E+03</pdfrwt>
<pdfrwt beam="1">  1       -1 0.46825576E-01 0.15051777E+03</pdfrwt>
<totfact> 0.30708930E+03</totfact>
</mgrwt>
</event>
<event>
 6    1  0.7457796E-006  0.1582881E+03  0.7546771E-02  0.1198817E+00
         -2   -1    0    0    0  501 -0.00000000000E+00  0.00000000000E+00  0.13526462871E+03  0.13526462871E+03  0.00000000000E+00 0.  1.
          2   -1    0    0  501    0  0.00000000000E+00 -0.00000000000E+00 -0.17901062603E+03  0.17901062603E+03  0.00000000000E+00 0. -1.
          5    1    1    2  502    0  0.71309700636E+02  0.19882039910E+02  0.79259251050E+02  0.10855638071E+03  0.47000000000E+01 0. -1.
         -5    1    1    2    0  502  0.24291453993E+02 -0.28264229405E+01 -0.46811442196E+02  0.53023245131E+02  0.47000000000E+01 0. -1.
        -11    1    1    2    0    0 -0.24698115337E+02  0.31247892870E+02 -0.30356038718E+01  0.39945495377E+02  0.00000000000E+00 0.  1.
         11    1    1    2    0    0 -0.70903039292E+02 -0.48303509839E+02 -0.73158202303E+02  0.11275013352E+03  0.00000000000E+00 0. -1.
<mgrwt>
<rscale>  0 0.15135555E+03</rscale>
<asrwt>0</asrwt>
<pdfrwt beam="2">  1        2 0.27540096E-01 0.15828808E+03</pdfrwt>
<pdfrwt beam="1">  1       -2 0.20809943E-01 0.15828808E+03</pdfrwt>
<totfact> 0.36704854E+03</totfact>
</mgrwt>
</event>
<event>
 6    1  0.7457796E-006  0.2731654E+03  0.7546771E-02  0.1099482E+00
         -2   -1    0    0    0  501 -0.00000000000E+00  0.00000000000E+00  0.20622262916E+02  0.20622262916E+02  0.00000000000E+00 0.  1.
          2   -1    0    0  501    0  0.00000000000E+00 -0.00000000000E+00 -0.90459689973E+03  0.90459689973E+03  0.00000000000E+00 0. -1.
          5    1    1    2  502    0  0.79943996387E+01 -0.24441278153E+02 -0.29424139440E+02  0.39359325262E+02  0.47000000000E+01 0.  1.
         -5    1    1    2    0  502 -0.68220151273E+02  0.80568045076E+02 -0.48603938070E+03  0.49739478136E+03  0.47000000000E+01 0.  1.
        -11    1    1    2    0    0  0.35319109259E+01 -0.52059680232E+02 -0.88449228498E+02  0.10269347945E+03  0.00000000000E+00 0.  1.
         11    1    1    2    0    0  0.56693840709E+02 -0.40670866905E+01 -0.28006188817E+03  0.28577157657E+03  0.00000000000E+00 0. -1.
<mgrwt>
<rscale>  0 0.27316541E+03</rscale>
<asrwt>0</asrwt>
<pdfrwt beam="2">  1        2 0.13916870E+00 0.27316541E+03</pdfrwt>
<pdfrwt beam="1">  1       -2 0.31726570E-02 0.27316541E+03</pdfrwt>
<totfact> 0.11714800E+04</totfact>
</mgrwt>
</event>
<event>
 6    1  0.7457796E-006  0.3829799E+03  0.7546771E-02  0.1050852E+00
          1   -1    0    0  501    0  0.00000000000E+00  0.00000000000E+00  0.16454064872E+04  0.16454064872E+04  0.00000000000E+00 0. -1.
         -1   -1    0    0    0  501 -0.00000000000E+00 -0.00000000000E+00 -0.10806693564E+03  0.10806693564E+03  0.00000000000E+00 0.  1.
          5    1    1    2  502    0 -0.13859216450E+02  0.35336236402E+02  0.24863024889E+02  0.45617841798E+02  0.47000000000E+01 0.  1.
         -5    1    1    2    0  502 -0.34125516652E+03  0.35046312073E+02  0.36215686038E+03  0.49886171850E+03  0.47000000000E+01 0.  1.
        -11    1    1    2    0    0  0.33600094107E+03 -0.82988788024E+02  0.10322842265E+04  0.10887582356E+04  0.00000000000E+00 0.  1.
         11    1    1    2    0    0  0.19113441893E+02  0.12606239548E+02  0.11803543981E+03  0.12023562694E+03  0.00000000000E+00 0. -1.
<mgrwt>
<rscale>  0 0.38022099E+03</rscale>
<asrwt>0</asrwt>
<pdfrwt beam="1">  1        1 0.25313944E+00 0.38297990E+03</pdfrwt>
<pdfrwt beam="2">  1       -1 0.16625684E-01 0.38297990E+03</pdfrwt>
<totfact> 0.15395831E+02</totfact>
</mgrwt>
</event>
<event>
 6    1  0.7457796E-006  0.1310364E+03  0.7546771E-02  0.1239468E+00
         -2   -1    0    0    0  501 -0.00000000000E+00  0.00000000000E+00  0.26295237585E+02  0.26295237585E+02  0.00000000000E+00 0.  1.
          2   -1    0    0  501    0  0.00000000000E+00 -0.00000000000E+00 -0.50685633829E+03  0.50685633829E+03  0.00000000000E+00 0. -1.
          5    1    1    2  502    0  0.23040694725E+02  0.27977173036E+02 -0.25411651353E+02  0.44513344617E+02  0.47000000000E+01 0.  1.
         -5    1    1    2    0  502 -0.62265026437E+02 -0.30244502406E+02 -0.26788777020E+03  0.27672659949E+03  0.47000000000E+01 0.  1.
        -11    1    1    2    0    0  0.44480534840E+02 -0.96597124227E+01 -0.19254179418E+03  0.19784885779E+03  0.00000000000E+00 0. -1.
         11    1    1    2    0    0 -0.52562031285E+01  0.11927041793E+02  0.52801150259E+01  0.14062773978E+02  0.00000000000E+00 0.  1.
<mgrwt>
<rscale>  0 0.12222676E+03</rscale>
<asrwt>0</asrwt>
<pdfrwt beam="2">  1        2 0.77977896E-01 0.13103645E+03</pdfrwt>
<pdfrwt beam="1">  1       -2 0.40454213E-02 0.13103645E+03</pdfrwt>
<totfact> 0.15607279E+04</totfact>
</mgrwt>
</event>
<event>
 6    1  0.7457796E-006  0.1279093E+03  0.7546771E-02  0.1244281E+00
          3   -1    0    0  501    0  0.00000000000E+00  0.00000000000E+00  0.63585483711E+02  0.63585483711E+02  0.00000000000E+00 0. -1.
         -3   -1    0    0    0  501 -0.00000000000E+00 -0.00000000000E+00 -0.21259867993E+03  0.21259867993E+03  0.00000000000E+00 0.  1.
          5    1    1    2  502    0  0.27540758331E+02  0.51212263466E+02 -0.12340942454E+03  0.13650335294E+03  0.47000000000E+01 0.  1.
         -5    1    1    2    0  502 -0.29349320617E+02 -0.24187841823E+02  0.39378048132E+01  0.38523117987E+02  0.47000000000E+01 0.  1.
        -11    1    1    2    0    0 -0.44061885018E+02 -0.11687597863E+01 -0.12574217385E+02  0.45835866455E+02  0.00000000000E+00 0.  1.
         11    1    1    2    0    0  0.45870447304E+02 -0.25855661857E+02 -0.16967359114E+02  0.55321826265E+02  0.00000000000E+00 0. -1.
<mgrwt>
<rscale>  0 0.11928537E+03</rscale>
<asrwt>0</asrwt>
<pdfrwt beam="1">  1        3 0.97823821E-02 0.12790933E+03</pdfrwt>
<pdfrwt beam="2">  1       -3 0.32707489E-01 0.12790933E+03</pdfrwt>
<totfact> 0.15886212E+03</totfact>
</mgrwt>
</event>
<event>
 6    1  0.7457796E-006  0.2650569E+03  0.7546771E-02  0.1104142E+00
         -3   -1    0    0    0  501 -0.00000000000E+00  0.00000000000E+00  0.26262820586E+03  0.26262820586E+03  0.00000000000E+00 0.  1.
          3   -1    0    0  501    0  0.00000000000E+00 -0.00000000000E+00 -0.66877015365E+02  0.66877015365E+02  0.00000000000E+00 0. -1.
          5    1    1    2  502    0  0.61447104662E+02  0.78616351892E+01  0.29643428590E+02  0.68835854304E+02  0.47000000000E+01 0. -1.
         -5    1    1    2    0  502 -0.25507541713E+02  0.11348613608E+02  0.15702575363E+03  0.15955752260E+03  0.47000000000E+01 0.  1.
        -11    1    1    2    0    0 -0.57228792377E+01 -0.51086671020E+02 -0.11390139719E+02  0.52652963692E+02  0.00000000000E+00 0.  1.
         11    1    1    2    0    0 -0.30216683711E+02  0.31876422223E+02  0.20472147993E+02  0.48458880628E+02  0.00000000000E+00 0. -1.
<mgrwt>
<rscale>  0 0.26505690E+03</rscale>
<asrwt>0</asrwt>
<pdfrwt beam="2">  1        3 0.10288772E-01 0.26505690E+03</pdfrwt>
<pdfrwt beam="1">  1       -3 0.40404339E-01 0.26505690E+03</pdfrwt>
<totfact> 0.10853500E+03</totfact>
</mgrwt>
</event>
<event>
 6    1  0.7457796E-006  0.1558530E+03  0.7546771E-02  0.1204406E+00
         -1   -1    0    0    0  501 -0.00000000000E+00  0.00000000000E+00  0.47263957077E+02  0.47263957077E+02  0.00000000000E+00 0.  1.
          1   -1    0    0  501    0  0.00000000000E+00 -0.00000000000E+00 -0.47694086748E+03  0.47694086748E+03  0.00000000000E+00 0. -1.
          5    1    1    2  502    0  0.11910438559E+02  0.49076287812E+02 -0.15464036496E+03  0.16274542405E+03  0.47000000000E+01 0.  1.
         -5    1    1    2    0  502  0.23706092866E+02  0.36929848952E+02  0.14898785177E+02  0.46581717254E+02  0.47000000000E+01 0.  1.
        -11    1    1    2    0    0 -0.34114666609E+01 -0.29835516952E+02 -0.17294438948E+02  0.34653914571E+02  0.00000000000E+00 0.  1.
         11    1    1    2    0    0 -0.32205064764E+02 -0.56170619812E+02 -0.27264089167E+03  0.28022376868E+03  0.00000000000E+00 0. -1.
<mgrwt>
<rscale>  0 0.14684396E+03</rscale>
<asrwt>0</asrwt>
<pdfrwt beam="2">  1        1 0.73375519E-01 0.15585295E+03</pdfrwt>
<pdfrwt beam="1">  1       -1 0.72713779E-02 0.15585295E+03</pdfrwt>
<totfact> 0.46590909E+03</totfact>
</mgrwt>
</event>
<event>
 6    1  0.7599915E-006  0.2032138E+03  0.7546771E-02  0.1151737E+00
         -1   -1    0    0    0  501 -0.00000000000E+00  0.00000000000E+00  0.22079847225E+02  0.22079847225E+02  0.00000000000E+00 0.  1.
          1   -1    0    0  501    0  0.00000000000E+00 -0.00000000000E+00 -0.16799314025E+04  0.16799314025E+04  0.00000000000E+00 0. -1.
          5    1    1    2  502    0 -0.60366381846E+02 -0.39704344606E+02 -0.64089582805E+03  0.64497293544E+03  0.47000000000E+01 0.  1.
         -5    1    1    2    0  502 -0.41186598126E+02 -0.84225263740E+02 -0.21296703094E+03  0.23273864566E+03  0.47000000000E+01 0.  1.
        -11    1    1    2    0    0  0.42138177169E+02  0.11151793174E+03 -0.58690147293E+03  0.59888664537E+03  0.00000000000E+00 0.  1.
         11    1    1    2    0    0  0.59414802804E+02  0.12411676605E+02 -0.21708722339E+03  0.22541302329E+03  0.00000000000E+00 0. -1.
<mgrwt>
<rscale>  0 0.19765036E+03</rscale>
<asrwt>0</asrwt>
<pdfrwt beam="2">  1        1 0.25845100E+00 0.20321377E+03</pdfrwt>
<pdfrwt beam="1">  1       -1 0.33968993E-02 0.20321377E+03</pdfrwt>
<totfact> 0.17124932E+03</totfact>
</mgrwt>
</event>
<event>
 6    1  0.7457796E-006  0.2228267E+03  0.7546771E-02  0.1168586E+00
         -1   -1    0    0    0  501 -0.00000000000E+00  0.00000000000E+00  0.13929211758E+04  0.13929211758E+04  0.00000000000E+00 0.  1.
          1   -1    0    0  501    0  0.00000000000E+00 -0.00000000000E+00 -0.36645342900E+02  0.36645342900E+02  0.00000000000E+00 0. -1.
          5    1    1    2  502    0 -0.84076324677E+02  0.12072152799E+02  0.21323270133E+03  0.22957534746E+03  0.47000000000E+01 0. -1.
         -5    1    1    2    0  502  0.70109613073E+02 -0.25705115043E+02  0.10903860936E+04  0.10929501516E+04  0.47000000000E+01 0.  1.
        -11    1    1    2    0    0 -0.39016191724E+02  0.31172739737E+01  0.20648039558E+02  0.44252933816E+02  0.00000000000E+00 0.  1.
         11    1    1    2    0    0  0.52982903328E+02  0.10515688270E+02  0.32008998472E+02  0.62788085876E+02  0.00000000000E+00 0. -1.
<mgrwt>
<rscale>  0 0.17919329E+03</rscale>
<asrwt>0</asrwt>
<pdfrwt beam="2">  1        1 0.56377461E-02 0.22282669E+03</pdfrwt>
<pdfrwt beam="1">  1       -1 0.21429552E+00 0.22282669E+03</pdfrwt>
<totfact> 0.18996958E+02</totfact>
</mgrwt>
</event>
<event>
 6    1  0.7457796E-006  0.2417419E+03  0.7546771E-02  0.1121116E+00
         -1   -1    0    0    0  501 -0.00000000000E+00  0.00000000000E+00  0.31190368936E+03  0.31190368936E+03  0.00000000000E+00 0.  1.
          1   -1    0    0  501    0  0.00000000000E+00 -0.00000000000E+00 -0.18383118389E+03  0.18383118389E+03  0.00000000000E+00 0. -1.
          5    1    1    2  502    0 -0.11766905359E+03  0.13813934818E+03  0.10747795761E+03  0.21095517785E+03  0.47000000000E+01 0. -1.
         -5    1    1    2    0  502 -0.52543315835E+02 -0.20488050624E+02  0.87078739242E+01  0.57257989186E+02  0.47000000000E+01 0. -1.
        -11    1    1    2    0    0  0.70268920235E+02 -0.11006914247E+02  0.35462179446E+02  0.79476030873E+02  0.00000000000E+00 0.  1.
         11    1    1    2    0    0  0.99943449194E+02 -0.10664438331E+03 -0.23575505512E+02  0.14804567535E+03  0.00000000000E+00 0. -1.
<mgrwt>
<rscale>  0 0.23802431E+03</rscale>
<asrwt>0</asrwt>
<pdfrwt beam="2">  1        1 0.28281721E-01 0.24174192E+03</pdfrwt>
<pdfrwt beam="1">  1       -1 0.47985183E-01 0.24174192E+03</pdfrwt>
<totfact> 0.72546065E+02</totfact>
</mgrwt>
</event>
<event>
 6    1  0.7457796E-006  0.1293908E+03  0.7546771E-02  0.1241047E+00
          1   -1    0    0  501    0  0.00000000000E+00  0.00000000000E+00  0.19248125688E+03  0.19248125688E+03  0.00000000000E+00 0. -1.
         -1   -1    0    0    0  501 -0.00000000000E+00 -0.00000000000E+00 -0.70147487219E+02  0.70147487219E+02  0.00000000000E+00 0.  1.
          5    1    1    2  502    0 -0.69986512572E+02  0.13486301637E+02  0.87100023458E+02  0.11264322598E+03  0.47000000000E+01 0.  1.
         -5    1    1    2    0  502  0.44197026514E+02  0.77757490498E+01  0.33859770470E+01  0.45248141029E+02  0.47000000000E+01 0.  1.
        -11    1    1    2    0    0  0.18853030734E+02 -0.58675047044E+02  0.17430330145E+02  0.64046969659E+02  0.00000000000E+00 0.  1.
         11    1    1    2    0    0  0.69364553232E+01  0.37412996358E+02  0.14417439009E+02  0.40690407426E+02  0.00000000000E+00 0. -1.
<mgrwt>
<rscale>  0 0.12125121E+03</rscale>
<asrwt>0</asrwt>
<pdfrwt beam="1">  1        1 0.29612501E-01 0.12939076E+03</pdfrwt>
<pdfrwt beam="2">  1       -1 0.10791921E-01 0.12939076E+03</pdfrwt>
<totfact> 0.78649025E+03</totfact>
</mgrwt>
</event>
<event>
 6    1  0.7457796E-006  0.2118163E+03  0.7546771E-02  0.1143718E+00
          1   -1    0    0  501    0  0.00000000000E+00  0.00000000000E+00  0.84313057768E+03  0.84313057768E+03  0.00000000000E+00 0. -1.
         -1   -1    0    0    0  501 -0.00000000000E+00 -0.00000000000E+00 -0.12818576203E+03  0.12818576203E+03  0.00000000000E+00 0.  1.
          5    1    1    2  502    0  0.26584144960E+02 -0.24305408162E+02 -0.52504062801E+02  0.63845408918E+02  0.47000000000E+01 0.  1.
         -5    1    1    2    0  502  0.14408312846E+03  0.13814568729E+02  0.34062820024E+02  0.14877216112E+03  0.47000000000E+01 0.  1.
        -11    1    1    2    0    0 -0.14887043703E+03 -0.22398903601E+02  0.50621649562E+03  0.52812807002E+03  0.00000000000E+00 0.  1.
         11    1    1    2    0    0 -0.21796836391E+02  0.32889743034E+02  0.22716956280E+03  0.23057069965E+03  0.00000000000E+00 0. -1.
<mgrwt>
<rscale>  0 0.20730562E+03</rscale>
<asrwt>0</asrwt>
<pdfrwt beam="1">  1        1 0.12971239E+00 0.21181632E+03</pdfrwt>
<pdfrwt beam="2">  1       -1 0.19720887E-01 0.21181632E+03</pdfrwt>
<totfact> 0.44295678E+02</totfact>
</mgrwt>
</event>
<event>
 6    1  0.7457796E-006  0.1736372E+03  0.7546771E-02  0.1180186E+00
         -1   -1    0    0    0  501 -0.00000000000E+00  0.00000000000E+00  0.11538635820E+03  0.11538635820E+03  0.00000000000E+00 0. -1.
          1   -1    0    0  501    0  0.00000000000E+00 -0.00000000000E+00 -0.40730112804E+03  0.40730112804E+03  0.00000000000E+00 0.  1.
          5    1    1    2  502    0  0.12306134797E+03  0.33907176107E+02 -0.92556125092E+01  0.12806852978E+03  0.47000000000E+01 0.  1.
         -5    1    1    2    0  502 -0.20228142964E+02  0.28943199834E+02  0.30438701377E+02  0.46856068187E+02  0.47000000000E+01 0.  1.
        -11    1    1    2    0    0 -0.10110043923E+03 -0.78209690056E+02 -0.22901104366E+03  0.26226725406E+03  0.00000000000E+00 0.  1.
         11    1    1    2    0    0 -0.17327657828E+01  0.15359314115E+02 -0.84086815046E+02  0.85495634227E+02  0.00000000000E+00 0. -1.
<mgrwt>
<rscale>  0 0.16777697E+03</rscale>
<asrwt>0</asrwt>
<pdfrwt beam="2">  1        1 0.62661713E-01 0.17363724E+03</pdfrwt>
<pdfrwt beam="1">  1       -1 0.17751747E-01 0.17363724E+03</pdfrwt>
<totfact> 0.14390742E+03</totfact>
</mgrwt>
</event>
<event>
 6    1  0.7457796E-006  0.1332268E+03  0.7546771E-02  0.1235150E+00
          1   -1    0    0  501    0  0.00000000000E+00  0.00000000000E+00  0.23068050501E+03  0.23068050501E+03  0.00000000000E+00 0. -1.
         -1   -1    0    0    0  501 -0.00000000000E+00 -0.00000000000E+00 -0.62554581196E+02  0.62554581196E+02  0.00000000000E+00 0.  1.
          5    1    1    2  502    0 -0.35261647319E+02  0.15380752894E+02 -0.13498398909E+02  0.41039591912E+02  0.47000000000E+01 0.  1.
         -5    1    1    2    0  502  0.36430994888E+02 -0.61465760916E+02  0.81670849104E+02  0.10861618087E+03  0.47000000000E+01 0.  1.
        -11    1    1    2    0    0 -0.18560729644E+02  0.40605412564E+02  0.28049939596E+01  0.44734418578E+02  0.00000000000E+00 0.  1.
         11    1    1    2    0    0  0.17391382075E+02  0.54795954579E+01  0.97148479663E+02  0.98844894849E+02  0.00000000000E+00 0. -1.
<mgrwt>
<rscale>  0 0.12494855E+03</rscale>
<asrwt>0</asrwt>
<pdfrwt beam="1">  1        1 0.35489308E-01 0.13322675E+03</pdfrwt>
<pdfrwt beam="2">  1       -1 0.96237818E-02 0.13322675E+03</pdfrwt>
<totfact> 0.75009041E+03</totfact>
</mgrwt>
</event>
<event>
 6    1  0.7457796E-006  0.1416528E+03  0.7546771E-02  0.1222601E+00
         -1   -1    0    0    0  501 -0.00000000000E+00  0.00000000000E+00  0.92694778407E+02  0.92694778407E+02  0.00000000000E+00 0.  1.
          1   -1    0    0  501    0  0.00000000000E+00 -0.00000000000E+00 -0.17239540861E+03  0.17239540861E+03  0.00000000000E+00 0. -1.
          5    1    1    2  502    0 -0.48546610920E+01 -0.55968418108E+02 -0.74953612104E+02  0.93787875161E+02  0.47000000000E+01 0.  1.
         -5    1    1    2    0  502 -0.44309160381E+02  0.10989709166E+02  0.29998105650E+02  0.54827472528E+02  0.47000000000E+01 0.  1.
        -11    1    1    2    0    0  0.66388042311E+02  0.99248202096E+01 -0.38253431246E+02  0.77260592932E+02  0.00000000000E+00 0. -1.
         11    1    1    2    0    0 -0.17224220838E+02  0.35053888732E+02  0.35083074997E+01  0.39214246394E+02  0.00000000000E+00 0.  1.
<mgrwt>
<rscale>  0 0.13332684E+03</rscale>
<asrwt>0</asrwt>
<pdfrwt beam="2">  1        1 0.26522370E-01 0.14165283E+03</pdfrwt>
<pdfrwt beam="1">  1       -1 0.14260735E-01 0.14165283E+03</pdfrwt>
<totfact> 0.59007536E+03</totfact>
</mgrwt>
</event>
<event>
 6    1  0.7457796E-006  0.3250935E+03  0.7546771E-02  0.1074448E+00
         -1   -1    0    0    0  501 -0.00000000000E+00  0.00000000000E+00  0.64001480797E+02  0.64001480797E+02  0.00000000000E+00 0.  1.
          1   -1    0    0  501    0  0.00000000000E+00 -0.00000000000E+00 -0.17160026295E+04  0.17160026295E+04  0.00000000000E+00 0. -1.
          5    1    1    2  502    0  0.32970981762E+01  0.34333114259E+02 -0.47203962094E+02  0.58650981480E+02  0.47000000000E+01 0. -1.
         -5    1    1    2    0  502  0.28397455351E+03  0.52489519003E+02 -0.56125734625E+03  0.63121200508E+03  0.47000000000E+01 0. -1.
        -11    1    1    2    0    0 -0.83423327851E+02 -0.20095411531E+02 -0.16720095918E+03  0.18793466403E+03  0.00000000000E+00 0.  1.
         11    1    1    2    0    0 -0.20384832384E+03 -0.66727221731E+02 -0.87633888116E+03  0.90220645968E+03  0.00000000000E+00 0. -1.
<mgrwt>
<rscale>  0 0.32262434E+03</rscale>
<asrwt>0</asrwt>
<pdfrwt beam="2">  1        1 0.26400038E+00 0.32509349E+03</pdfrwt>
<pdfrwt beam="1">  1       -1 0.98463827E-02 0.32509349E+03</pdfrwt>
<totfact> 0.32024058E+02</totfact>
</mgrwt>
</event>
<event>
 6    1  0.7457796E-006  0.1312612E+03  0.7546771E-02  0.1238530E+00
         -3   -1    0    0    0  501 -0.00000000000E+00  0.00000000000E+00  0.58348767297E+02  0.58348767297E+02  0.00000000000E+00 0.  1.
          3   -1    0    0  501    0  0.00000000000E+00 -0.00000000000E+00 -0.23470075838E+03  0.23470075838E+03  0.00000000000E+00 0. -1.
          5    1    1    2  502    0 -0.24030652841E+02  0.18476440706E+02  0.18117362162E+02  0.35625551909E+02  0.47000000000E+01 0. -1.
         -5    1    1    2    0  502  0.63944031850E+02 -0.15022774721E+02 -0.97877434484E+02  0.11796866173E+03  0.47000000000E+01 0. -1.
        -11    1    1    2    0    0 -0.35856020221E+02  0.29879533259E+02 -0.11633700534E+02  0.48101805392E+02  0.00000000000E+00 0.  1.
         11    1    1    2    0    0 -0.40573587887E+01 -0.33333199243E+02 -0.84958218226E+02  0.91353506644E+02  0.00000000000E+00 0. -1.
<mgrwt>
<rscale>  0 0.12281122E+03</rscale>
<asrwt>0</asrwt>
<pdfrwt beam="2">  1        3 0.36107808E-01 0.13126124E+03</pdfrwt>
<pdfrwt beam="1">  1       -3 0.89767337E-02 0.13126124E+03</pdfrwt>
<totfact> 0.15260460E+03</totfact>
</mgrwt>
</event>
<event>
 6    1  0.7457796E-006  0.1351026E+03  0.7546771E-02  0.1231237E+00
         -2   -1    0    0    0  501 -0.00000000000E+00  0.00000000000E+00  0.19720581290E+03  0.19720581290E+03  0.00000000000E+00 0. -1.
          2   -1    0    0  501    0  0.00000000000E+00 -0.00000000000E+00 -0.80812451287E+02  0.80812451287E+02  0.00000000000E+00 0.  1.
          5    1    1    2  502    0 -0.24412697568E+02 -0.19847834391E+02  0.77219622981E+02  0.83515726100E+02  0.47000000000E+01 0. -1.
         -5    1    1    2    0  502  0.57759580625E+02  0.58799389053E+02  0.26161058614E+02  0.86602703738E+02  0.47000000000E+01 0. -1.
        -11    1    1    2    0    0  0.37881858868E+01  0.29122732933E+02  0.64297156561E+00  0.29375114267E+02  0.00000000000E+00 0.  1.
         11    1    1    2    0    0 -0.37135068944E+02 -0.68074287594E+02  0.12369708454E+02  0.78524720083E+02  0.00000000000E+00 0. -1.
<mgrwt>
<rscale>  0 0.12748457E+03</rscale>
<asrwt>0</asrwt>
<pdfrwt beam="2">  1        2 0.12432685E-01 0.13510261E+03</pdfrwt>
<pdfrwt beam="1">  1       -2 0.30339356E-01 0.13510261E+03</pdfrwt>
<totfact> 0.46695996E+03</totfact>
</mgrwt>
</event>
<event>
 6    1  0.7457796E-006  0.3410959E+03  0.7546771E-02  0.1067534E+00
         -2   -1    0    0    0  501 -0.00000000000E+00  0.00000000000E+00  0.15732833031E+03  0.15732833031E+03  0.00000000000E+00 0.  1.
          2   -1    0    0  501    0  0.00000000000E+00 -0.00000000000E+00 -0.79673554484E+03  0.79673554484E+03  0.00000000000E+00 0. -1.
          5    1    1    2  502    0 -0.79688728804E+01  0.13042432497E+03 -0.73743461549E+01  0.13095983530E+03  0.47000000000E+01 0. -1.
         -5    1    1    2    0  502  0.38493870039E+02  0.18547130601E+03 -0.16482213591E+03  0.25113703405E+03  0.47000000000E+01 0. -1.
        -11    1    1    2    0    0 -0.63760568018E+01 -0.29047027839E+03 -0.38287547978E+03  0.48063215638E+03  0.00000000000E+00 0.  1.
         11    1    1    2    0    0 -0.24148940357E+02 -0.25425352590E+02 -0.84335252677E+02  0.91334849422E+02  0.00000000000E+00 0. -1.
<mgrwt>
<rscale>  0 0.33827202E+03</rscale>
<asrwt>0</asrwt>
<pdfrwt beam="2">  1        2 0.12257470E+00 0.34109587E+03</pdfrwt>
<pdfrwt beam="1">  1       -2 0.24204359E-01 0.34109587E+03</pdfrwt>
<totfact> 0.53750659E+02</totfact>
</mgrwt>
</event>
<event>
 6    1  0.7457796E-006  0.1294736E+03  0.7546771E-02  0.1241339E+00
         -1   -1    0    0    0  501 -0.00000000000E+00  0.00000000000E+00  0.10948722774E+03  0.10948722774E+03  0.00000000000E+00 0.  1.
          1   -1    0    0  501    0  0.00000000000E+00 -0.00000000000E+00 -0.14788708162E+03  0.14788708162E+03  0.00000000000E+00 0. -1.
          5    1    1    2  502    0  0.38416198993E+02  0.46815711773E+02  0.66106833003E+02  0.89775935437E+02  0.47000000000E+01 0.  1.
         -5    1    1    2    0  502 -0.92564160627E+01 -0.29872196032E+02 -0.31091850428E+02  0.44348872558E+02  0.47000000000E+01 0.  1.
        -11    1    1    2    0    0  0.10790829217E+02 -0.23548074099E+02  0.12132008870E+02  0.28603136685E+02  0.00000000000E+00 0.  1.
         11    1    1    2    0    0 -0.39950612147E+02  0.66045583578E+01 -0.85546845329E+02  0.94646364684E+02  0.00000000000E+00 0. -1.
<mgrwt>
<rscale>  0 0.12107182E+03</rscale>
<asrwt>0</asrwt>
<pdfrwt beam="2">  1        1 0.22751859E-01 0.12947361E+03</pdfrwt>
<pdfrwt beam="1">  1       -1 0.16844189E-01 0.12947361E+03</pdfrwt>
<totfact> 0.54760296E+03</totfact>
</mgrwt>
</event>
<event>
 6    1  0.7457796E-006  0.1367715E+03  0.7546771E-02  0.1229408E+00
          1   -1    0    0  501    0  0.00000000000E+00  0.00000000000E+00  0.38055341949E+03  0.38055341949E+03  0.00000000000E+00 0. -1.
         -1   -1    0    0    0  501 -0.00000000000E+00 -0.00000000000E+00 -0.47194146434E+02  0.47194146434E+02  0.00000000000E+00 0.  1.
          5    1    1    2  502    0  0.15820332106E+02 -0.25124017049E+02  0.12420945284E+03  0.12779505983E+03  0.47000000000E+01 0.  1.
         -5    1    1    2    0  502  0.14167974256E+02 -0.21591869249E+02 -0.28799167389E+02  0.38966939250E+02  0.47000000000E+01 0.  1.
        -11    1    1    2    0    0  0.12703623283E+02 -0.21682279805E+02  0.39912690681E+02  0.47164882905E+02  0.00000000000E+00 0.  1.
         11    1    1    2    0    0 -0.42691929645E+02  0.68398166102E+02  0.19803629692E+03  0.21382068394E+03  0.00000000000E+00 0. -1.
<mgrwt>
<rscale>  0 0.12869284E+03</rscale>
<asrwt>0</asrwt>
<pdfrwt beam="1">  1        1 0.58546678E-01 0.13677149E+03</pdfrwt>
<pdfrwt beam="2">  1       -1 0.72606382E-02 0.13677149E+03</pdfrwt>
<totfact> 0.61825996E+03</totfact>
</mgrwt>
</event>
<event>
 6    1  0.7457796E-006  0.1327601E+03  0.7546771E-02  0.1236771E+00
         -2   -1    0    0    0  501 -0.00000000000E+00  0.00000000000E+00  0.45919658545E+02  0.45919658545E+02  0.00000000000E+00 0.  1.
          2   -1    0    0  501    0  0.00000000000E+00 -0.00000000000E+00 -0.30786799104E+03  0.30786799104E+03  0.00000000000E+00 0. -1.
          5    1    1    2  502    0 -0.22410035668E+02 -0.55254501340E+02 -0.26476608207E+02  0.65409253161E+02  0.47000000000E+01 0.  1.
         -5    1    1    2    0  502 -0.21849451399E+02  0.61715178525E+02 -0.88728127696E+02  0.11036726159E+03  0.47000000000E+01 0.  1.
        -11    1    1    2    0    0  0.10670582632E+02  0.24814349588E+02 -0.12377794468E+03  0.12669093444E+03  0.00000000000E+00 0. -1.
         11    1    1    2    0    0  0.33588904436E+02 -0.31275026774E+02 -0.22965651912E+02  0.51320200396E+02  0.00000000000E+00 0.  1.
<mgrwt>
<rscale>  0 0.12391729E+03</rscale>
<asrwt>0</asrwt>
<pdfrwt beam="2">  1        2 0.47364305E-01 0.13276013E+03</pdfrwt>
<pdfrwt beam="1">  1       -2 0.70645630E-02 0.13276013E+03</pdfrwt>
<totfact> 0.11508014E+04</totfact>
</mgrwt>
</event>
<event>
 6    1  0.7457796E-006  0.1624371E+03  0.7546771E-02  0.1192685E+00
          1   -1    0    0  501    0  0.00000000000E+00  0.00000000000E+00  0.66694315314E+02  0.66694315314E+02  0.00000000000E+00 0. -1.
         -1   -1    0    0    0  501 -0.00000000000E+00 -0.00000000000E+00 -0.39651167284E+03  0.39651167284E+03  0.00000000000E+00 0.  1.
          5    1    1    2  502    0 -0.66237361020E+02  0.10553967206E+03 -0.18559314593E+03  0.22359095730E+03  0.47000000000E+01 0.  1.
         -5    1    1    2    0  502  0.35822282771E+02 -0.63658457091E+01 -0.74832397692E+02  0.83341092379E+02  0.47000000000E+01 0.  1.
        -11    1    1    2    0    0 -0.32241524321E+01 -0.28311353044E+02  0.21880137493E+02  0.35925872109E+02  0.00000000000E+00 0. -1.
         11    1    1    2    0    0  0.33639230681E+02 -0.70862473309E+02 -0.91271951398E+02  0.12034806636E+03  0.00000000000E+00 0.  1.
<mgrwt>
<rscale>  0 0.15651771E+03</rscale>
<asrwt>0</asrwt>
<pdfrwt beam="1">  1        1 0.10260664E-01 0.16243712E+03</pdfrwt>
<pdfrwt beam="2">  1       -1 0.61001797E-01 0.16243712E+03</pdfrwt>
<totfact> 0.17124908E+03</totfact>
</mgrwt>
</event>
<event>
 6    1  0.7457796E-006  0.3703408E+03  0.7546771E-02  0.1054563E+00
         -2   -1    0    0    0  501 -0.00000000000E+00  0.00000000000E+00  0.25225372163E+03  0.25225372163E+03  0.00000000000E+00 0.  1.
          2   -1    0    0  501    0  0.00000000000E+00 -0.00000000000E+00 -0.13592697838E+03  0.13592697838E+03  0.00000000000E+00 0. -1.
          5    1    1    2  502    0 -0.73794621419E+02 -0.44897604868E+02  0.42419123358E+02  0.96347875428E+02  0.47000000000E+01 0.  1.
         -5    1    1    2    0  502 -0.11767876013E+01 -0.75883314652E+00  0.14655490934E+03  0.14663693978E+03  0.47000000000E+01 0.  1.
        -11    1    1    2    0    0 -0.21887599058E+01 -0.22438171890E+02 -0.95646726232E+01  0.24489695590E+02  0.00000000000E+00 0.  1.
         11    1    1    2    0    0  0.77160168926E+02  0.68094609904E+02 -0.63082616827E+02  0.12070618921E+03  0.00000000000E+00 0. -1.
<mgrwt>
<rscale>  0 0.37034085E+03</rscale>
<asrwt>0</asrwt>
<pdfrwt beam="2">  1        2 0.20911843E-01 0.37034085E+03</pdfrwt>
<pdfrwt beam="1">  1       -2 0.38808265E-01 0.37034085E+03</pdfrwt>
<totfact> 0.16754352E+03</totfact>
</mgrwt>
</event>
<event>
 6    1  0.7457796E-006  0.1861538E+03  0.7546771E-02  0.1166378E+00
         -3   -1    0    0    0  501 -0.00000000000E+00  0.00000000000E+00  0.13850748226E+03  0.13850748226E+03  0.00000000000E+00 0.  1.
          3   -1    0    0  501    0  0.00000000000E+00 -0.00000000000E+00 -0.22764359383E+03  0.22764359383E+03  0.00000000000E+00 0. -1.
          5    1    1    2  502    0 -0.10400630252E+03 -0.48984966285E+02 -0.77680239494E+02  0.13882776197E+03  0.47000000000E+01 0.  1.
         -5    1    1    2    0  502 -0.15277568565E+02 -0.20297577056E+02  0.43350192416E+02  0.50465086130E+02  0.47000000000E+01 0.  1.
        -11    1    1    2    0    0  0.63084250984E+01  0.32958039284E+02  0.17549249980E+02  0.37868255248E+02  0.00000000000E+00 0.  1.
         11    1    1    2    0    0  0.11297544598E+03  0.36324504056E+02 -0.72355314469E+02  0.13898997274E+03  0.00000000000E+00 0. -1.
<mgrwt>
<rscale>  0 0.18148029E+03</rscale>
<asrwt>0</asrwt>
<pdfrwt beam="2">  1        3 0.35022091E-01 0.18615378E+03</pdfrwt>
<pdfrwt beam="1">  1       -3 0.21308843E-01 0.18615378E+03</pdfrwt>
<totfact> 0.38923165E+02</totfact>
</mgrwt>
</event>
<event>
 6    1  0.7457796E-006  0.1423173E+03  0.7546771E-02  0.1220077E+00
         -2   -1    0    0    0  501 -0.00000000000E+00  0.00000000000E+00  0.20198607105E+02  0.20198607105E+02  0.00000000000E+00 0.  1.
          2   -1    0    0  501    0  0.00000000000E+00 -0.00000000000E+00 -0.86014097754E+03  0.86014097754E+03  0.00000000000E+00 0. -1.
          5    1    1    2  502    0 -0.22251985240E+02 -0.93428860746E+02 -0.22461530415E+03  0.24433220771E+03  0.47000000000E+01 0.  1.
         -5    1    1    2    0  502  0.35442693965E+02  0.26677722795E+02 -0.14626204143E+03  0.15291357105E+03  0.47000000000E+01 0.  1.
        -11    1    1    2    0    0 -0.18594320806E+02 -0.19556579221E+02 -0.76596624770E+02  0.81211153687E+02  0.00000000000E+00 0.  1.
         11    1    1    2    0    0  0.54036120816E+01  0.86307717172E+02 -0.39246840009E+03  0.40188265219E+03  0.00000000000E+00 0. -1.
<mgrwt>
<rscale>  0 0.13510125E+03</rscale>
<asrwt>0</asrwt>
<pdfrwt beam="2">  1        2 0.13232937E+00 0.14231726E+03</pdfrwt>
<pdfrwt beam="1">  1       -2 0.31074783E-02 0.14231726E+03</pdfrwt>
<totfact> 0.12459141E+04</totfact>
</mgrwt>
</event>
<event>
 6    1  0.7457796E-006  0.1758738E+03  0.7546771E-02  0.1177880E+00
         -2   -1    0    0    0  501 -0.00000000000E+00  0.00000000000E+00  0.81166725484E+02  0.81166725484E+02  0.00000000000E+00 0.  1.
          2   -1    0    0  501    0  0.00000000000E+00 -0.00000000000E+00 -0.34562866640E+03  0.34562866640E+03  0.00000000000E+00 0. -1.
          5    1    1    2  502    0 -0.68400213235E+00  0.72910761289E+02  0.14144410781E+02  0.74421779923E+02  0.47000000000E+01 0. -1.
         -5    1    1    2    0  502 -0.30318364147E+02  0.46864969880E+02 -0.11600298405E+03  0.12881890744E+03  0.47000000000E+01 0. -1.
        -11    1    1    2    0    0  0.47631048745E+02 -0.89072271518E+02 -0.65555435714E+02  0.12041636728E+03  0.00000000000E+00 0.  1.
         11    1    1    2    0    0 -0.16628682466E+02 -0.30703459651E+02 -0.97047931934E+02  0.10313833724E+03  0.00000000000E+00 0. -1.
<mgrwt>
<rscale>  0 0.16996891E+03</rscale>
<asrwt>0</asrwt>
<pdfrwt beam="2">  1        2 0.53173642E-01 0.17587384E+03</pdfrwt>
<pdfrwt beam="1">  1       -2 0.12487188E-01 0.17587384E+03</pdfrwt>
<totfact> 0.42361144E+03</totfact>
</mgrwt>
</event>
<event>
 6    1  0.7457796E-006  0.1348517E+03  0.7546771E-02  0.1232205E+00
         -3   -1    0    0    0  501 -0.00000000000E+00  0.00000000000E+00  0.99636077869E+03  0.99636077869E+03  0.00000000000E+00 0.  1.
          3   -1    0    0  501    0  0.00000000000E+00 -0.00000000000E+00 -0.24566892372E+02  0.24566892372E+02  0.00000000000E+00 0. -1.
          5    1    1    2  502    0 -0.15223831489E+02 -0.22655762867E+02  0.46596485489E+02  0.54206744010E+02  0.47000000000E+01 0. -1.
         -5    1    1    2    0  502  0.65949195573E+02  0.23352077157E+02  0.79947374948E+03  0.80254282255E+03  0.47000000000E+01 0. -1.
        -11    1    1    2    0    0 -0.11608091859E+02  0.31945648529E+02  0.10286949858E+03  0.10833930956E+03  0.00000000000E+00 0.  1.
         11    1    1    2    0    0 -0.39117272226E+02 -0.32641962819E+02  0.22854152764E+02  0.55838794951E+02  0.00000000000E+00 0. -1.
<mgrwt>
<rscale>  0 0.12685044E+03</rscale>
<asrwt>0</asrwt>
<pdfrwt beam="2">  1        3 0.37795227E-02 0.13485169E+03</pdfrwt>
<pdfrwt beam="1">  1       -3 0.15328624E+00 0.13485169E+03</pdfrwt>
<totfact> 0.26882754E+02</totfact>
</mgrwt>
</event>
<event>
 6    1  0.7457796E-006  0.1320174E+03  0.7546771E-02  0.1237920E+00
          1   -1    0    0  501    0  0.00000000000E+00  0.00000000000E+00  0.21116499738E+03  0.21116499738E+03  0.00000000000E+00 0. -1.
         -1   -1    0    0    0  501 -0.00000000000E+00 -0.00000000000E+00 -0.74812550699E+02  0.74812550699E+02  0.00000000000E+00 0.  1.
          5    1    1    2  502    0 -0.22979786489E+02 -0.10068923437E+02 -0.36953639158E+02  0.44912306257E+02  0.47000000000E+01 0.  1.
         -5    1    1    2    0  502  0.65333213576E+02  0.12880828653E+02  0.58680479415E+02  0.88881005887E+02  0.47000000000E+01 0.  1.
        -11    1    1    2    0    0  0.11414040977E+02 -0.11031009322E+02 -0.81910348317E+01  0.17862154117E+02  0.00000000000E+00 0.  1.
         11    1    1    2    0    0 -0.53767468065E+02  0.82191041067E+01  0.12281664125E+03  0.13432208182E+03  0.00000000000E+00 0. -1.
<mgrwt>
<rscale>  0 0.12319337E+03</rscale>
<asrwt>0</asrwt>
<pdfrwt beam="1">  1        1 0.32486922E-01 0.13201740E+03</pdfrwt>
<pdfrwt beam="2">  1       -1 0.11509623E-01 0.13201740E+03</pdfrwt>
<totfact> 0.63604787E+03</totfact>
</mgrwt>
</event>
<event>
 6    1  0.7457796E-006  0.1659941E+03  0.7546771E-02  0.1189422E+00
         -1   -1    0    0    0  501 -0.00000000000E+00  0.00000000000E+00  0.22531987401E+02  0.22531987401E+02  0.00000000000E+00 0.  1.
          1   -1    0    0  501    0  0.00000000000E+00 -0.00000000000E+00 -0.11167963527E+04  0.11167963527E+04  0.00000000000E+00 0. -1.
          5    1    1    2  502    0  0.79901615790E+02  0.49149570631E+01 -0.10742561504E+03  0.13405512961E+03  0.47000000000E+01 0.  1.
         -5    1    1    2    0  502  0.18074656443E+02  0.43416181133E+02 -0.33812967651E+03  0.34141679239E+03  0.47000000000E+01 0.  1.
        -11    1    1    2    0    0 -0.83126382977E+02  0.70487103888E+01 -0.40337332101E+03  0.41190983961E+03  0.00000000000E+00 0.  1.
         11    1    1    2    0    0 -0.14849889256E+02 -0.55379848585E+02 -0.24533575276E+03  0.25194657851E+03  0.00000000000E+00 0. -1.
<mgrwt>
<rscale>  0 0.15935901E+03</rscale>
<asrwt>0</asrwt>
<pdfrwt beam="2">  1        1 0.17181484E+00 0.16599407E+03</pdfrwt>
<pdfrwt beam="1">  1       -1 0.34664593E-02 0.16599407E+03</pdfrwt>
<totfact> 0.39459938E+03</totfact>
</mgrwt>
</event>
<event>
 6    1  0.7457796E-006  0.2319446E+03  0.7546771E-02  0.1127881E+00
         -2   -1    0    0    0  501 -0.00000000000E+00  0.00000000000E+00  0.35489442483E+02  0.35489442483E+02  0.00000000000E+00 0.  1.
          2   -1    0    0  501    0  0.00000000000E+00 -0.00000000000E+00 -0.14343092583E+04  0.14343092583E+04  0.00000000000E+00 0. -1.
          5    1    1    2  502    0  0.36240213790E+02 -0.19730038369E+03 -0.49983763293E+03  0.53860982519E+03  0.47000000000E+01 0.  1.
         -5    1    1    2    0  502 -0.16902692668E+02  0.28805955912E+01 -0.15648937730E+03  0.15749607633E+03  0.47000000000E+01 0.  1.
        -11    1    1    2    0    0  0.14386343708E+02  0.95312892338E+02 -0.21082181525E+03  0.23181318365E+03  0.00000000000E+00 0.  1.
         11    1    1    2    0    0 -0.33723864830E+02  0.99106895764E+02 -0.53167099035E+03  0.54187961562E+03  0.00000000000E+00 0. -1.
<mgrwt>
<rscale>  0 0.22824513E+03</rscale>
<asrwt>0</asrwt>
<pdfrwt beam="2">  1        2 0.22066289E+00 0.23194457E+03</pdfrwt>
<pdfrwt beam="1">  1       -2 0.54599161E-02 0.23194457E+03</pdfrwt>
<totfact> 0.25327971E+03</totfact>
</mgrwt>
</event>
<event>
 6    1  0.7457796E-006  0.1304906E+03  0.7546771E-02  0.1240204E+00
          2   -1    0    0  501    0  0.00000000000E+00  0.00000000000E+00  0.79322930406E+02  0.79322930406E+02  0.00000000000E+00 0. -1.
         -2   -1    0    0    0  501 -0.00000000000E+00 -0.00000000000E+00 -0.20414268907E+03  0.20414268907E+03  0.00000000000E+00 0.  1.
          5    1    1    2  502    0 -0.13089201892E+02  0.30910335975E+02 -0.10264748981E+03  0.10809890490E+03  0.47000000000E+01 0. -1.
         -5    1    1    2    0  502  0.29376966160E+02 -0.64574820157E+02 -0.27590998475E+02  0.76264452636E+02  0.47000000000E+01 0. -1.
        -11    1    1    2    0    0  0.15409460284E+02 -0.45089217843E+01  0.36967722769E+02  0.40303776109E+02  0.00000000000E+00 0. -1.
         11    1    1    2    0    0 -0.31697224551E+02  0.38173405966E+02 -0.31548993148E+02  0.58798485831E+02  0.00000000000E+00 0.  1.
<mgrwt>
<rscale>  0 0.12177066E+03</rscale>
<asrwt>0</asrwt>
<pdfrwt beam="1">  1        2 0.12203528E-01 0.13049055E+03</pdfrwt>
<pdfrwt beam="2">  1       -2 0.31406567E-01 0.13049055E+03</pdfrwt>
<totfact> 0.44754347E+03</totfact>
</mgrwt>
</event>
<event>
 6    1  0.7457796E-006  0.1389777E+03  0.7546771E-02  0.1224833E+00
         -2   -1    0    0    0  501 -0.00000000000E+00  0.00000000000E+00  0.51412392561E+02  0.51412392561E+02  0.00000000000E+00 0.  1.
          2   -1    0    0  501    0  0.00000000000E+00 -0.00000000000E+00 -0.37029257656E+03  0.37029257656E+03  0.00000000000E+00 0. -1.
          5    1    1    2  502    0  0.13784746179E+02  0.82637056808E+02 -0.57125725633E+02  0.10151029955E+03  0.47000000000E+01 0. -1.
         -5    1    1    2    0  502  0.32801428893E+02 -0.43686328400E+02 -0.29674691414E+02  0.62346662597E+02  0.47000000000E+01 0. -1.
        -11    1    1    2    0    0 -0.68204234665E+01  0.11248209893E+02  0.35870522432E+01  0.13634784408E+02  0.00000000000E+00 0.  1.
         11    1    1    2    0    0 -0.39765751605E+02 -0.50198938301E+02 -0.23566681920E+03  0.24421322257E+03  0.00000000000E+00 0. -1.
<mgrwt>
<rscale>  0 0.13178345E+03</rscale>
<asrwt>0</asrwt>
<pdfrwt beam="2">  1        2 0.56968088E-01 0.13897767E+03</pdfrwt>
<pdfrwt beam="1">  1       -2 0.79095990E-02 0.13897767E+03</pdfrwt>
<totfact> 0.79774931E+03</totfact>
</mgrwt>
</event>
<event>
 6    1  0.7457796E-006  0.2612515E+03  0.7546771E-02  0.1106394E+00
          1   -1    0    0  501    0  0.00000000000E+00  0.00000000000E+00  0.27046134798E+03  0.27046134798E+03  0.00000000000E+00 0. -1.
         -1   -1    0    0    0  501 -0.00000000000E+00 -0.00000000000E+00 -0.63088802679E+02  0.63088802679E+02  0.00000000000E+00 0.  1.
          5    1    1    2  502    0  0.13686990893E+02  0.74888149509E+02  0.79530763563E+02  0.11019437830E+03  0.47000000000E+01 0. -1.
         -5    1    1    2    0  502  0.35182084517E+01 -0.31015318417E+02 -0.18589374171E+02  0.36633080669E+02  0.47000000000E+01 0. -1.
        -11    1    1    2    0    0  0.31744409296E+02 -0.22183955789E+02  0.97595603380E+01  0.39938508159E+02  0.00000000000E+00 0.  1.
         11    1    1    2    0    0 -0.48949608641E+02 -0.21688875303E+02  0.13667159557E+03  0.14678418353E+03  0.00000000000E+00 0. -1.
<mgrwt>
<rscale>  0 0.26125147E+03</rscale>
<asrwt>0</asrwt>
<pdfrwt beam="1">  1        1 0.41609438E-01 0.26125147E+03</pdfrwt>
<pdfrwt beam="2">  1       -1 0.97059698E-02 0.26125147E+03</pdfrwt>
<totfact> 0.63186703E+03</totfact>
</mgrwt>
</event>
<event>
 6    1  0.7457796E-006  0.1292294E+03  0.7546771E-02  0.1242714E+00
         -2   -1    0    0    0  501 -0.00000000000E+00  0.00000000000E+00  0.46335765402E+02  0.46335765402E+02  0.00000000000E+00 0. -1.
          2   -1    0    0  501    0  0.00000000000E+00 -0.00000000000E+00 -0.27752665247E+03  0.27752665247E+03  0.00000000000E+00 0.  1.
          5    1    1    2  502    0 -0.52637448996E+01 -0.54278983590E+02 -0.66748455512E+01  0.55141260713E+02  0.47000000000E+01 0.  1.
         -5    1    1    2    0  502  0.29242433086E+02  0.32052986417E+02 -0.11243148596E+03  0.12060448942E+03  0.47000000000E+01 0.  1.
        -11    1    1    2    0    0  0.34527810353E+02  0.10546806242E+01 -0.37444651511E+02  0.50944911088E+02  0.00000000000E+00 0. -1.
         11    1    1    2    0    0 -0.58506498540E+02  0.21171316549E+02 -0.74639904037E+02  0.97171756650E+02  0.00000000000E+00 0.  1.
<mgrwt>
<rscale>  0 0.12023226E+03</rscale>
<asrwt>0</asrwt>
<pdfrwt beam="2">  1        2 0.42696408E-01 0.12922945E+03</pdfrwt>
<pdfrwt beam="1">  1       -2 0.71285793E-02 0.12922945E+03</pdfrwt>
<totfact> 0.12639608E+04</totfact>
</mgrwt>
</event>
<event>
 6    1  0.7457796E-006  0.1341959E+03  0.7546771E-02  0.1238389E+00
         -2   -1    0    0    0  501 -0.00000000000E+00  0.00000000000E+00  0.12579501653E+02  0.12579501653E+02  0.00000000000E+00 0.  1.
          2   -1    0    0  501    0  0.00000000000E+00 -0.00000000000E+00 -0.10411790654E+04  0.10411790654E+04  0.00000000000E+00 0. -1.
          5    1    1    2  502    0 -0.58928090456E+02  0.27465080162E+01 -0.17966347762E+03  0.18915897637E+03  0.47000000000E+01 0. -1.
         -5    1    1    2    0  502  0.60376730496E+02  0.23124811601E+02 -0.45005905990E+03  0.45470358905E+03  0.47000000000E+01 0.  1.
        -11    1    1    2    0    0  0.22083989801E+02 -0.52640453990E+02 -0.28136865893E+03  0.28710110106E+03  0.00000000000E+00 0.  1.
         11    1    1    2    0    0 -0.23532629840E+02  0.26769134373E+02 -0.11750836734E+03  0.12279490062E+03  0.00000000000E+00 0. -1.
<mgrwt>
<rscale>  0 0.12289956E+03</rscale>
<asrwt>0</asrwt>
<pdfrwt beam="2">  1        2 0.16018141E+00 0.13419586E+03</pdfrwt>
<pdfrwt beam="1">  1       -2 0.19353078E-02 0.13419586E+03</pdfrwt>
<totfact> 0.19189690E+04</totfact>
</mgrwt>
</event>
<event>
 6    1  0.7457796E-006  0.1286633E+03  0.7546771E-02  0.1243551E+00
          1   -1    0    0  501    0  0.00000000000E+00  0.00000000000E+00  0.36649222080E+03  0.36649222080E+03  0.00000000000E+00 0. -1.
         -1   -1    0    0    0  501 -0.00000000000E+00 -0.00000000000E+00 -0.36281769818E+02  0.36281769818E+02  0.00000000000E+00 0.  1.
          5    1    1    2  502    0  0.69482135626E+02 -0.43958182055E+01  0.93966000227E+02  0.11704182837E+03  0.47000000000E+01 0. -1.
         -5    1    1    2    0  502 -0.49928944306E+02  0.27783564368E+02  0.50368100723E+02  0.76314228679E+02  0.47000000000E+01 0. -1.
        -11    1    1    2    0    0  0.29034754788E+02  0.49434539277E+01  0.23822115433E+02  0.37880706251E+02  0.00000000000E+00 0.  1.
         11    1    1    2    0    0 -0.48587946108E+02 -0.28331200090E+02  0.16205423460E+03  0.17153722733E+03  0.00000000000E+00 0. -1.
<mgrwt>
<rscale>  0 0.11972516E+03</rscale>
<asrwt>0</asrwt>
<pdfrwt beam="1">  1        1 0.56383416E-01 0.12866325E+03</pdfrwt>
<pdfrwt beam="2">  1       -1 0.55818110E-02 0.12866325E+03</pdfrwt>
<totfact> 0.95563493E+03</totfact>
</mgrwt>
</event>
<event>
 6    1  0.7457796E-006  0.4067003E+03  0.7546771E-02  0.1041484E+00
          1   -1    0    0  501    0  0.00000000000E+00  0.00000000000E+00  0.31912519673E+03  0.31912519673E+03  0.00000000000E+00 0. -1.
         -1   -1    0    0    0  501 -0.00000000000E+00 -0.00000000000E+00 -0.12957702127E+03  0.12957702127E+03  0.00000000000E+00 0.  1.
          5    1    1    2  502    0 -0.48115403709E+00 -0.72326536303E+02 -0.10463553539E+03  0.12728725242E+03  0.47000000000E+01 0. -1.
         -5    1    1    2    0  502 -0.74475956716E+01 -0.42503440128E+01  0.34179983575E+02  0.35551278215E+02  0.47000000000E+01 0. -1.
        -11    1    1    2    0    0  0.16583998457E+02 -0.13876028608E+02  0.20886478308E+02  0.30063568499E+02  0.00000000000E+00 0.  1.
         11    1    1    2    0    0 -0.86552487485E+01  0.90452908924E+02  0.23911724896E+03  0.25580011887E+03  0.00000000000E+00 0. -1.
<mgrwt>
<rscale>  0 0.40670034E+03</rscale>
<asrwt>0</asrwt>
<pdfrwt beam="1">  1        1 0.49096184E-01 0.40670034E+03</pdfrwt>
<pdfrwt beam="2">  1       -1 0.19934926E-01 0.40670034E+03</pdfrwt>
<totfact> 0.16498850E+03</totfact>
</mgrwt>
</event>
<event>
 6    1  0.7457796E-006  0.2038694E+03  0.7546771E-02  0.1151015E+00
          2   -1    0    0  501    0  0.00000000000E+00  0.00000000000E+00  0.17274545737E+04  0.17274545737E+04  0.00000000000E+00 0. -1.
         -2   -1    0    0    0  501 -0.00000000000E+00 -0.00000000000E+00 -0.22716596100E+02  0.22716596100E+02  0.00000000000E+00 0.  1.
          5    1    1    2  502    0 -0.47172216948E+02  0.85486545035E+02  0.41719240780E+03  0.42849126310E+03  0.47000000000E+01 0. -1.
         -5    1    1    2    0  502 -0.99737735713E+02 -0.19496282653E+02  0.66499091837E+03  0.67272782942E+03  0.47000000000E+01 0. -1.
        -11    1    1    2    0    0  0.90158963012E+02  0.56402266104E+01  0.35071785047E+03  0.36216496435E+03  0.00000000000E+00 0.  1.
         11    1    1    2    0    0  0.56750989650E+02 -0.71630488992E+02  0.27183680098E+03  0.28678711294E+03  0.00000000000E+00 0. -1.
<mgrwt>
<rscale>  0 0.19849478E+03</rscale>
<asrwt>0</asrwt>
<pdfrwt beam="1">  1        2 0.26576214E+00 0.20386941E+03</pdfrwt>
<pdfrwt beam="2">  1       -2 0.34948623E-02 0.20386941E+03</pdfrwt>
<totfact> 0.34766671E+03</totfact>
</mgrwt>
</event>
<event>
 6    1  0.7457796E-006  0.2260711E+03  0.7546771E-02  0.1132615E+00
         -1   -1    0    0    0  501 -0.00000000000E+00  0.00000000000E+00  0.76629758496E+02  0.76629758496E+02  0.00000000000E+00 0.  1.
          1   -1    0    0  501    0  0.00000000000E+00 -0.00000000000E+00 -0.74245647145E+03  0.74245647145E+03  0.00000000000E+00 0. -1.
          5    1    1    2  502    0  0.14163242047E+03  0.87319451609E+02 -0.74338422529E+02  0.18229843724E+03  0.47000000000E+01 0. -1.
         -5    1    1    2    0  502  0.20778666481E+02  0.80948969062E+01 -0.10171734889E+03  0.10423909728E+03  0.47000000000E+01 0. -1.
        -11    1    1    2    0    0 -0.15867707986E+03 -0.69306100283E+02 -0.46567465287E+03  0.49682455006E+03  0.00000000000E+00 0. -1.
         11    1    1    2    0    0 -0.37340070881E+01 -0.26108248231E+02 -0.24096288657E+02  0.35724145360E+02  0.00000000000E+00 0.  1.
<mgrwt>
<rscale>  0 0.22170951E+03</rscale>
<asrwt>0</asrwt>
<pdfrwt beam="2">  1        1 0.11422407E+00 0.22607106E+03</pdfrwt>
<pdfrwt beam="1">  1       -1 0.11789194E-01 0.22607106E+03</pdfrwt>
<totfact> 0.12171665E+03</totfact>
</mgrwt>
</event>
<event>
 6    1  0.7457796E-006  0.3788547E+03  0.7546771E-02  0.1051358E+00
          2   -1    0    0  501    0  0.00000000000E+00  0.00000000000E+00  0.33141842242E+03  0.33141842242E+03  0.00000000000E+00 0. -1.
         -2   -1    0    0    0  501 -0.00000000000E+00 -0.00000000000E+00 -0.10827016302E+03  0.10827016302E+03  0.00000000000E+00 0.  1.
          5    1    1    2  502    0 -0.20251504087E+02  0.16558717439E+03  0.97459562145E+02  0.19326068403E+03  0.47000000000E+01 0.  1.
         -5    1    1    2    0  502  0.24219943059E+02 -0.11862224145E+02 -0.45532802888E+00  0.27379103839E+02  0.47000000000E+01 0.  1.
        -11    1    1    2    0    0 -0.44733383164E+02 -0.55701999231E+02  0.37164880077E+02  0.80529600761E+02  0.00000000000E+00 0.  1.
         11    1    1    2    0    0  0.40764944192E+02 -0.98022951013E+02  0.88979145217E+02  0.13851919681E+03  0.00000000000E+00 0. -1.
<mgrwt>
<rscale>  0 0.37885473E+03</rscale>
<asrwt>0</asrwt>
<pdfrwt beam="1">  1        2 0.50987449E-01 0.37885473E+03</pdfrwt>
<pdfrwt beam="2">  1       -2 0.16656948E-01 0.37885473E+03</pdfrwt>
<totfact> 0.28321262E+03</totfact>
</mgrwt>
</event>
<event>
 6    1  0.7457796E-006  0.1667835E+03  0.7546771E-02  0.1187885E+00
          1   -1    0    0  501    0  0.00000000000E+00  0.00000000000E+00  0.24454307670E+03  0.24454307670E+03  0.00000000000E+00 0. -1.
         -1   -1    0    0    0  501 -0.00000000000E+00 -0.00000000000E+00 -0.10460752379E+03  0.10460752379E+03  0.00000000000E+00 0.  1.
          5    1    1    2  502    0  0.12052508862E+03  0.58383915426E+02  0.40671064615E+02  0.14004000880E+03  0.47000000000E+01 0.  1.
         -5    1    1    2    0  502 -0.28567641574E+02  0.27291498917E+01 -0.74516217297E+01  0.30019578122E+02  0.47000000000E+01 0.  1.
        -11    1    1    2    0    0 -0.77419727295E+02 -0.85533520029E+02  0.84022829013E+02  0.14272222328E+03  0.00000000000E+00 0.  1.
         11    1    1    2    0    0 -0.14537719749E+02  0.24420454712E+02  0.22693281016E+02  0.36368790289E+02  0.00000000000E+00 0. -1.
<mgrwt>
<rscale>  0 0.16072092E+03</rscale>
<asrwt>0</asrwt>
<pdfrwt beam="1">  1        1 0.37622012E-01 0.16678349E+03</pdfrwt>
<pdfrwt beam="2">  1       -1 0.16093465E-01 0.16678349E+03</pdfrwt>
<totfact> 0.31825892E+03</totfact>
</mgrwt>
</event>
<event>
 6    1  0.7457796E-006  0.1907719E+03  0.7546771E-02  0.1168417E+00
          2   -1    0    0  501    0  0.00000000000E+00  0.00000000000E+00  0.45811306084E+03  0.45811306084E+03  0.00000000000E+00 0. -1.
         -2   -1    0    0    0  501 -0.00000000000E+00 -0.00000000000E+00 -0.63514027548E+02  0.63514027548E+02  0.00000000000E+00 0.  1.
          5    1    1    2  502    0 -0.84244117030E+02  0.93805844978E+02  0.93174533037E+02  0.15684448161E+03  0.47000000000E+01 0. -1.
         -5    1    1    2    0  502 -0.24276663081E+02 -0.48161152817E+02  0.10557442269E+03  0.11864611978E+03  0.47000000000E+01 0.  1.
        -11    1    1    2    0    0  0.41055423737E+02  0.27453137974E+02  0.71402003351E+02  0.86818596426E+02  0.00000000000E+00 0.  1.
         11    1    1    2    0    0  0.67465356374E+02 -0.73097830135E+02  0.12444807421E+03  0.15931789057E+03  0.00000000000E+00 0. -1.
<mgrwt>
<rscale>  0 0.17936731E+03</rscale>
<asrwt>0</asrwt>
<pdfrwt beam="1">  1        2 0.70478930E-01 0.19077192E+03</pdfrwt>
<pdfrwt beam="2">  1       -2 0.97713892E-02 0.19077192E+03</pdfrwt>
<totfact> 0.46375298E+03</totfact>
</mgrwt>
</event>
<event>
 6    1  0.7457796E-006  0.1537468E+03  0.7546771E-02  0.1206721E+00
          3   -1    0    0  501    0  0.00000000000E+00  0.00000000000E+00  0.25360570899E+03  0.25360570899E+03  0.00000000000E+00 0. -1.
         -3   -1    0    0    0  501 -0.00000000000E+00 -0.00000000000E+00 -0.10768350524E+03  0.10768350524E+03  0.00000000000E+00 0.  1.
          5    1    1    2  502    0 -0.38227332645E+02  0.10393419842E+03 -0.32526925445E+02  0.11551509616E+03  0.47000000000E+01 0. -1.
         -5    1    1    2    0  502 -0.16893466298E+02 -0.33395821358E+02  0.12031170104E+02  0.39591781241E+02  0.47000000000E+01 0. -1.
        -11    1    1    2    0    0 -0.12857077423E+02  0.59338737519E+01  0.46179300998E+02  0.48301585255E+02  0.00000000000E+00 0. -1.
         11    1    1    2    0    0  0.67977876366E+02 -0.76472250812E+02  0.12023865809E+03  0.15788075158E+03  0.00000000000E+00 0.  1.
<mgrwt>
<rscale>  0 0.14502626E+03</rscale>
<asrwt>0</asrwt>
<pdfrwt beam="1">  1        3 0.39016263E-01 0.15374676E+03</pdfrwt>
<pdfrwt beam="2">  1       -3 0.16566693E-01 0.15374676E+03</pdfrwt>
<totfact> 0.48095216E+02</totfact>
</mgrwt>
</event>
<event>
 6    1  0.7457796E-006  0.2730992E+03  0.7546771E-02  0.1116349E+00
         -2   -1    0    0    0  501 -0.00000000000E+00  0.00000000000E+00  0.44830099653E+02  0.44830099653E+02  0.00000000000E+00 0.  1.
          2   -1    0    0  501    0  0.00000000000E+00 -0.00000000000E+00 -0.13649327540E+04  0.13649327540E+04  0.00000000000E+00 0. -1.
          5    1    1    2  502    0 -0.12552291487E+03  0.16001515001E+03 -0.45238085306E+03  0.49601550037E+03  0.47000000000E+01 0. -1.
         -5    1    1    2    0  502  0.47164155914E+02 -0.24289245425E+02 -0.38489353525E+02  0.65711075026E+02  0.47000000000E+01 0.  1.
        -11    1    1    2    0    0 -0.14336127797E+02 -0.14245809272E+01 -0.68122676979E+02  0.69629398316E+02  0.00000000000E+00 0. -1.
         11    1    1    2    0    0  0.92694886751E+02 -0.13430132365E+03 -0.76110977083E+03  0.77840687999E+03  0.00000000000E+00 0.  1.
<mgrwt>
<rscale>  0 0.24524292E+03</rscale>
<asrwt>0</asrwt>
<pdfrwt beam="2">  1        2 0.20998965E+00 0.27309922E+03</pdfrwt>
<pdfrwt beam="1">  1       -2 0.68969386E-02 0.27309922E+03</pdfrwt>
<totfact> 0.19267131E+03</totfact>
</mgrwt>
</event>
<event>
 6    1  0.7457796E-006  0.1282079E+03  0.7546771E-02  0.1245582E+00
         -2   -1    0    0    0  501 -0.00000000000E+00  0.00000000000E+00  0.30164058834E+02  0.30164058834E+02  0.00000000000E+00 0.  1.
          2   -1    0    0  501    0  0.00000000000E+00 -0.00000000000E+00 -0.43621835865E+03  0.43621835865E+03  0.00000000000E+00 0. -1.
          5    1    1    2  502    0 -0.42421712971E+02 -0.21315019358E+02 -0.97244204757E+02  0.10831646754E+03  0.47000000000E+01 0.  1.
         -5    1    1    2    0  502  0.64360968333E+02  0.39532345788E+02 -0.76476599272E+02  0.10759136045E+03  0.47000000000E+01 0.  1.
        -11    1    1    2    0    0  0.29278098567E+02  0.13721109264E+02 -0.98191483258E+02  0.10337815669E+03  0.00000000000E+00 0. -1.
         11    1    1    2    0    0 -0.51217353929E+02 -0.31938435694E+02 -0.13414201252E+03  0.14709643280E+03  0.00000000000E+00 0.  1.
<mgrwt>
<rscale>  0 0.11850616E+03</rscale>
<asrwt>0</asrwt>
<pdfrwt beam="2">  1        2 0.67110517E-01 0.12820793E+03</pdfrwt>
<pdfrwt beam="1">  1       -2 0.46406244E-02 0.12820793E+03</pdfrwt>
<totfact> 0.14947307E+04</totfact>
</mgrwt>
</event>
<event>
 6    1  0.7457796E-006  0.1654230E+03  0.7546771E-02  0.1189718E+00
          2   -1    0    0  501    0  0.00000000000E+00  0.00000000000E+00  0.37033078914E+03  0.37033078914E+03  0.00000000000E+00 0. -1.
         -2   -1    0    0    0  501 -0.00000000000E+00 -0.00000000000E+00 -0.87131070640E+02  0.87131070640E+02  0.00000000000E+00 0.  1.
          5    1    1    2  502    0  0.41600808068E+02  0.67611404866E+02  0.12443627240E+02  0.80491385618E+02  0.47000000000E+01 0.  1.
         -5    1    1    2    0  502  0.65977386281E+02 -0.54690601852E+02  0.18619414910E+02  0.87822833267E+02  0.47000000000E+01 0.  1.
        -11    1    1    2    0    0 -0.13175235726E+02  0.65174950517E+00 -0.55999630857E+01  0.14330778081E+02  0.00000000000E+00 0.  1.
         11    1    1    2    0    0 -0.94402958623E+02 -0.13572552520E+02  0.25773663944E+03  0.27481686281E+03  0.00000000000E+00 0. -1.
<mgrwt>
<rscale>  0 0.15909860E+03</rscale>
<asrwt>0</asrwt>
<pdfrwt beam="1">  1        2 0.56973967E-01 0.16542298E+03</pdfrwt>
<pdfrwt beam="2">  1       -2 0.13404780E-01 0.16542298E+03</pdfrwt>
<totfact> 0.34982703E+03</totfact>
</mgrwt>
</event>
<event>
 6    1  0.7457796E-006  0.1262138E+03  0.7546771E-02  0.1248844E+00
         -1   -1    0    0    0  501 -0.00000000000E+00  0.00000000000E+00  0.17691911817E+03  0.17691911817E+03  0.00000000000E+00 0.  1.
          1   -1    0    0  501    0  0.00000000000E+00 -0.00000000000E+00 -0.68168558704E+02  0.68168558704E+02  0.00000000000E+00 0. -1.
          5    1    1    2  502    0 -0.58612084096E+02 -0.14321040743E+02  0.15143888538E+02  0.62385062075E+02  0.47000000000E+01 0.  1.
         -5    1    1    2    0  502  0.58650420702E+02 -0.31750699862E+01  0.62018296047E+02  0.85547132988E+02  0.47000000000E+01 0.  1.
        -11    1    1    2    0    0  0.28378685561E+02  0.35749096459E+02  0.41778768193E+02  0.61877404305E+02  0.00000000000E+00 0.  1.
         11    1    1    2    0    0 -0.28417022167E+02 -0.18252985729E+02 -0.10190393310E+02  0.35278077508E+02  0.00000000000E+00 0. -1.
<mgrwt>
<rscale>  0 0.11658208E+03</rscale>
<asrwt>0</asrwt>
<pdfrwt beam="2">  1        1 0.10487471E-01 0.12621383E+03</pdfrwt>
<pdfrwt beam="1">  1       -1 0.27218326E-01 0.12621383E+03</pdfrwt>
<totfact> 0.68369025E+03</totfact>
</mgrwt>
</event>
<event>
 6    1  0.7457796E-006  0.1305346E+03  0.7546771E-02  0.1240508E+00
          2   -1    0    0  501    0  0.00000000000E+00  0.00000000000E+00  0.66250159514E+02  0.66250159514E+02  0.00000000000E+00 0. -1.
         -2   -1    0    0    0  501 -0.00000000000E+00 -0.00000000000E+00 -0.21537345566E+03  0.21537345566E+03  0.00000000000E+00 0.  1.
          5    1    1    2  502    0 -0.42364829602E+02 -0.63916141688E+01 -0.96791612996E+02  0.10595441409E+03  0.47000000000E+01 0. -1.
         -5    1    1    2    0  502  0.64584434362E+02 -0.23961676124E+02 -0.27601096421E+02  0.74358735923E+02  0.47000000000E+01 0. -1.
        -11    1    1    2    0    0  0.28700128377E+02 -0.52279473372E+01  0.91222925388E+01  0.30565422022E+02  0.00000000000E+00 0.  1.
         11    1    1    2    0    0 -0.50919733137E+02  0.35581237630E+02 -0.33852879269E+02  0.70745043139E+02  0.00000000000E+00 0. -1.
<mgrwt>
<rscale>  0 0.12158293E+03</rscale>
<asrwt>0</asrwt>
<pdfrwt beam="1">  1        2 0.10192332E-01 0.13053462E+03</pdfrwt>
<pdfrwt beam="2">  1       -2 0.33134379E-01 0.13053462E+03</pdfrwt>
<totfact> 0.50493684E+03</totfact>
</mgrwt>
</event>
<event>
 6    1  0.7457796E-006  0.1251915E+03  0.7546771E-02  0.1250311E+00
          3   -1    0    0  501    0  0.00000000000E+00  0.00000000000E+00  0.74701784842E+02  0.74701784842E+02  0.00000000000E+00 0. -1.
         -3   -1    0    0    0  501 -0.00000000000E+00 -0.00000000000E+00 -0.15705618424E+03  0.15705618424E+03  0.00000000000E+00 0.  1.
          5    1    1    2  502    0  0.58826652530E+01 -0.55949187937E+02  0.46261239511E+01  0.56642814232E+02  0.47000000000E+01 0. -1.
         -5    1    1    2    0  502  0.10566614500E+01  0.57354921526E+02 -0.50874837034E+02  0.76818243926E+02  0.47000000000E+01 0. -1.
        -11    1    1    2    0    0  0.11085593996E+02 -0.10041797771E+02  0.27674695281E+02  0.31458176292E+02  0.00000000000E+00 0. -1.
         11    1    1    2    0    0 -0.18024920699E+02  0.86360641826E+01 -0.63780381591E+02  0.66838734628E+02  0.00000000000E+00 0.  1.
<mgrwt>
<rscale>  0 0.11573060E+03</rscale>
<asrwt>0</asrwt>
<pdfrwt beam="1">  1        3 0.11492582E-01 0.12519150E+03</pdfrwt>
<pdfrwt beam="2">  1       -3 0.24162490E-01 0.12519150E+03</pdfrwt>
<totfact> 0.21095549E+03</totfact>
</mgrwt>
</event>
<event>
 6    1  0.7457796E-006  0.4642796E+03  0.7546771E-02  0.1023547E+00
          1   -1    0    0  501    0  0.00000000000E+00  0.00000000000E+00  0.19454852192E+03  0.19454852192E+03  0.00000000000E+00 0. -1.
         -1   -1    0    0    0  501 -0.00000000000E+00 -0.00000000000E+00 -0.27699460980E+03  0.27699460980E+03  0.00000000000E+00 0.  1.
          5    1    1    2  502    0 -0.12299658477E+02 -0.22753413254E+02 -0.36653963180E+02  0.45106567484E+02  0.47000000000E+01 0.  1.
         -5    1    1    2    0  502  0.18957627699E+03 -0.44071923235E+02 -0.85255158115E+02  0.21253712899E+03  0.47000000000E+01 0.  1.
        -11    1    1    2    0    0 -0.14451398794E+03  0.46851696979E+02 -0.88811165874E+01  0.15217834423E+03  0.00000000000E+00 0. -1.
         11    1    1    2    0    0 -0.32762630572E+02  0.19973639510E+02  0.48344149998E+02  0.61721091017E+02  0.00000000000E+00 0.  1.
<mgrwt>
<rscale>  0 0.46427962E+03</rscale>
<asrwt>0</asrwt>
<pdfrwt beam="1">  1        1 0.29930542E-01 0.46427962E+03</pdfrwt>
<pdfrwt beam="2">  1       -1 0.42614555E-01 0.46427962E+03</pdfrwt>
<totfact> 0.83967434E+02</totfact>
</mgrwt>
</event>
<event>
 6    1  0.7457796E-006  0.2186108E+03  0.7546771E-02  0.1138573E+00
          2   -1    0    0  501    0  0.00000000000E+00  0.00000000000E+00  0.32328431635E+03  0.32328431635E+03  0.00000000000E+00 0. -1.
         -2   -1    0    0    0  501 -0.00000000000E+00 -0.00000000000E+00 -0.13568194820E+03  0.13568194820E+03  0.00000000000E+00 0.  1.
          5    1    1    2  502    0 -0.13007842361E+03  0.88857679065E+01  0.30298412640E+02  0.13393818338E+03  0.47000000000E+01 0. -1.
         -5    1    1    2    0  502 -0.29444161039E+02  0.73074496951E+02  0.74350946820E+02  0.10842967314E+03  0.47000000000E+01 0. -1.
        -11    1    1    2    0    0  0.10765001244E+03 -0.76392161237E+01  0.58351025273E+02  0.12268547164E+03  0.00000000000E+00 0.  1.
         11    1    1    2    0    0  0.51872572202E+02 -0.74321048734E+02  0.24601983421E+02  0.93912936383E+02  0.00000000000E+00 0. -1.
<mgrwt>
<rscale>  0 0.21382423E+03</rscale>
<asrwt>0</asrwt>
<pdfrwt beam="1">  1        2 0.49736049E-01 0.21861082E+03</pdfrwt>
<pdfrwt beam="2">  1       -2 0.20874146E-01 0.21861082E+03</pdfrwt>
<totfact> 0.19522029E+03</totfact>
</mgrwt>
</event>
<event>
 6    1  0.7457796E-006  0.1650925E+03  0.7546771E-02  0.1195322E+00
         -2   -1    0    0    0  501 -0.00000000000E+00  0.00000000000E+00  0.24323625288E+02  0.24323625288E+02  0.00000000000E+00 0.  1.
          2   -1    0    0  501    0  0.00000000000E+00 -0.00000000000E+00 -0.89154813753E+03  0.89154813753E+03  0.00000000000E+00 0. -1.
          5    1    1    2  502    0  0.61033517013E+02  0.98305506841E+02 -0.39726771874E+03  0.41380284343E+03  0.47000000000E+01 0. -1.
         -5    1    1    2    0  502 -0.25006520205E+02  0.15806737193E+02 -0.23117015065E+02  0.37837354281E+02  0.47000000000E+01 0.  1.
        -11    1    1    2    0    0 -0.17577506147E+02 -0.10245418242E+03 -0.36197775162E+03  0.37660817952E+03  0.00000000000E+00 0. -1.
         11    1    1    2    0    0 -0.18449490661E+02 -0.11658061617E+02 -0.84862026819E+02  0.87623385590E+02  0.00000000000E+00 0.  1.
<mgrwt>
<rscale>  0 0.15427041E+03</rscale>
<asrwt>0</asrwt>
<pdfrwt beam="2">  1        2 0.13716124E+00 0.16509253E+03</pdfrwt>
<pdfrwt beam="1">  1       -2 0.37420966E-02 0.16509253E+03</pdfrwt>
<totfact> 0.91082012E+03</totfact>
</mgrwt>
</event>
<event>
 6    1  0.7457796E-006  0.1685861E+03  0.7546771E-02  0.1185803E+00
          2   -1    0    0  501    0  0.00000000000E+00  0.00000000000E+00  0.18690177666E+03  0.18690177666E+03  0.00000000000E+00 0.  1.
         -2   -1    0    0    0  501 -0.00000000000E+00 -0.00000000000E+00 -0.14804657853E+03  0.14804657853E+03  0.00000000000E+00 0. -1.
          5    1    1    2  502    0  0.69597189716E+02  0.42198774612E+02  0.10914633707E+02  0.82254024972E+02  0.47000000000E+01 0. -1.
         -5    1    1    2    0  502 -0.39412709187E+02  0.66811991382E+02 -0.44808125715E+02  0.89705417718E+02  0.47000000000E+01 0. -1.
        -11    1    1    2    0    0 -0.12209016969E+02 -0.10765292978E+03  0.87841003578E+02  0.13947851195E+03  0.00000000000E+00 0.  1.
         11    1    1    2    0    0 -0.17975463560E+02 -0.13578362113E+01 -0.15092313435E+02  0.23510400554E+02  0.00000000000E+00 0. -1.
<mgrwt>
<rscale>  0 0.16259044E+03</rscale>
<asrwt>0</asrwt>
<pdfrwt beam="1">  1        2 0.28754120E-01 0.16858612E+03</pdfrwt>
<pdfrwt beam="2">  1       -2 0.22776397E-01 0.16858612E+03</pdfrwt>
<totfact> 0.30068146E+03</totfact>
</mgrwt>
</event>
<event>
 6    1  0.7457796E-006  0.1682103E+03  0.7546771E-02  0.1180802E+00
         -2   -1    0    0    0  501 -0.00000000000E+00  0.00000000000E+00  0.59984086248E+03  0.59984086248E+03  0.00000000000E+00 0. -1.
          2   -1    0    0  501    0  0.00000000000E+00 -0.00000000000E+00 -0.20541541018E+03  0.20541541018E+03  0.00000000000E+00 0.  1.
          5    1    1    2  502    0  0.80112429376E+02 -0.23227865079E+02  0.23459021048E+03  0.24902247270E+03  0.47000000000E+01 0.  1.
         -5    1    1    2    0  502  0.16496009959E+02  0.81012139694E+02  0.31778687183E+03  0.32839864651E+03  0.47000000000E+01 0.  1.
        -11    1    1    2    0    0 -0.88570160378E+02 -0.44912940658E+02 -0.17731727356E+03  0.20323203746E+03  0.00000000000E+00 0.  1.
         11    1    1    2    0    0 -0.80382789572E+01 -0.12871333957E+02  0.19365643542E+02  0.24603115986E+02  0.00000000000E+00 0. -1.
<mgrwt>
<rscale>  0 0.16719748E+03</rscale>
<asrwt>0</asrwt>
<pdfrwt beam="2">  1        2 0.31602371E-01 0.16821031E+03</pdfrwt>
<pdfrwt beam="1">  1       -2 0.92283208E-01 0.16821031E+03</pdfrwt>
<totfact> 0.17297256E+02</totfact>
</mgrwt>
</event>
<event>
 6    1  0.7457796E-006  0.1476259E+03  0.7546771E-02  0.1212222E+00
         -1   -1    0    0    0  501 -0.00000000000E+00  0.00000000000E+00  0.11011982185E+03  0.11011982185E+03  0.00000000000E+00 0.  1.
          1   -1    0    0  501    0  0.00000000000E+00 -0.00000000000E+00 -0.18574316692E+03  0.18574316692E+03  0.00000000000E+00 0. -1.
          5    1    1    2  502    0 -0.11329924305E+02  0.65716846590E+02  0.27993311024E+02  0.72476110357E+02  0.47000000000E+01 0. -1.
         -5    1    1    2    0  502  0.70974550703E+02 -0.14619171814E+02 -0.20141994732E+02  0.75358456618E+02  0.47000000000E+01 0. -1.
        -11    1    1    2    0    0 -0.75386971437E+02 -0.45776355742E+02 -0.31811308330E+02  0.93758357202E+02  0.00000000000E+00 0.  1.
         11    1    1    2    0    0  0.15742345040E+02 -0.53213190332E+01 -0.51663353030E+02  0.54270064584E+02  0.00000000000E+00 0. -1.
<mgrwt>
<rscale>  0 0.14082566E+03</rscale>
<asrwt>0</asrwt>
<pdfrwt beam="2">  1        1 0.28575872E-01 0.14762593E+03</pdfrwt>
<pdfrwt beam="1">  1       -1 0.16941511E-01 0.14762593E+03</pdfrwt>
<totfact> 0.41086875E+03</totfact>
</mgrwt>
</event>
<event>
 6    1  0.7457796E-006  0.4050559E+03  0.7546771E-02  0.1042043E+00
          2   -1    0    0  501    0  0.00000000000E+00  0.00000000000E+00  0.15522152671E+03  0.15522152671E+03  0.00000000000E+00 0. -1.
         -2   -1    0    0    0  501 -0.00000000000E+00 -0.00000000000E+00 -0.26425187236E+03  0.26425187236E+03  0.00000000000E+00 0.  1.
          5    1    1    2  502    0  0.11919577703E+03  0.10731842825E+03 -0.11651451455E+03  0.19829926981E+03  0.47000000000E+01 0.  1.
         -5    1    1    2    0  502  0.57914768738E+01 -0.18769345404E+02  0.13830777003E+02  0.24478764752E+02  0.47000000000E+01 0.  1.
        -11    1    1    2    0    0 -0.86855942323E+02 -0.55060204370E+02 -0.63027258062E+02  0.12061515693E+03  0.00000000000E+00 0.  1.
         11    1    1    2    0    0 -0.38131311585E+02 -0.33488878475E+02  0.56680649961E+02  0.76080207575E+02  0.00000000000E+00 0. -1.
<mgrwt>
<rscale>  0 0.40505594E+03</rscale>
<asrwt>0</asrwt>
<pdfrwt beam="1">  1        2 0.23880235E-01 0.40505594E+03</pdfrwt>
<pdfrwt beam="2">  1       -2 0.40654134E-01 0.40505594E+03</pdfrwt>
<totfact> 0.13178734E+03</totfact>
</mgrwt>
</event>
<event>
 6    1  0.1322715E-005  0.2136123E+03  0.7546771E-02  0.1142384E+00
          1   -1    0    0  501    0  0.00000000000E+00  0.00000000000E+00  0.56319600556E+03  0.56319600556E+03  0.00000000000E+00 0. -1.
         -1   -1    0    0    0  501 -0.00000000000E+00 -0.00000000000E+00 -0.75569475499E+02  0.75569475499E+02  0.00000000000E+00 0.  1.
          5    1    1    2  502    0 -0.28655620908E+02 -0.93345532531E+02  0.18736584005E+03  0.21133523386E+03  0.47000000000E+01 0.  1.
         -5    1    1    2    0  502 -0.73094419298E+02 -0.46840769751E+02  0.26388476624E+02  0.90858645939E+02  0.47000000000E+01 0.  1.
        -11    1    1    2    0    0  0.70471804812E+02  0.14452806488E+03  0.20287558994E+03  0.25886896648E+03  0.00000000000E+00 0.  1.
         11    1    1    2    0    0  0.31278235394E+02 -0.43417625936E+01  0.70996623450E+02  0.77702634788E+02  0.00000000000E+00 0. -1.
<mgrwt>
<rscale>  0 0.20896973E+03</rscale>
<asrwt>0</asrwt>
<pdfrwt beam="1">  1        1 0.86645537E-01 0.21361234E+03</pdfrwt>
<pdfrwt beam="2">  1       -1 0.11626073E-01 0.21361234E+03</pdfrwt>
<totfact> 0.18399927E+03</totfact>
</mgrwt>
</event>
<event>
 6    1  0.7457796E-006  0.1507389E+03  0.7546771E-02  0.1222209E+00
          1   -1    0    0  501    0  0.00000000000E+00  0.00000000000E+00  0.13089669804E+03  0.13089669804E+03  0.00000000000E+00 0. -1.
         -1   -1    0    0    0  501 -0.00000000000E+00 -0.00000000000E+00 -0.11374939286E+03  0.11374939286E+03  0.00000000000E+00 0.  1.
          5    1    1    2  502    0  0.22116486175E+02 -0.46727241728E+02  0.57728480456E+02  0.77635311141E+02  0.47000000000E+01 0. -1.
         -5    1    1    2    0  502 -0.40643340770E+02  0.45740403655E+02 -0.41336401125E+02  0.73992254550E+02  0.47000000000E+01 0.  1.
        -11    1    1    2    0    0 -0.11896501652E+02  0.23141221392E+02 -0.33301632676E+02  0.42261585606E+02  0.00000000000E+00 0.  1.
         11    1    1    2    0    0  0.30423356247E+02 -0.22154383319E+02  0.34056858527E+02  0.50756939608E+02  0.00000000000E+00 0. -1.
<mgrwt>
<rscale>  0 0.13360042E+03</rscale>
<asrwt>0</asrwt>
<pdfrwt beam="1">  1        1 0.20137954E-01 0.15073891E+03</pdfrwt>
<pdfrwt beam="2">  1       -1 0.17499906E-01 0.15073891E+03</pdfrwt>
<totfact> 0.60759631E+03</totfact>
</mgrwt>
</event>
<event>
 6    1  0.7457796E-006  0.1280226E+03  0.7546771E-02  0.1243847E+00
         -2   -1    0    0    0  501 -0.00000000000E+00  0.00000000000E+00  0.10395865002E+03  0.10395865002E+03  0.00000000000E+00 0.  1.
          2   -1    0    0  501    0  0.00000000000E+00 -0.00000000000E+00 -0.15288104815E+03  0.15288104815E+03  0.00000000000E+00 0. -1.
          5    1    1    2  502    0  0.89042299866E+01 -0.11273161322E+02 -0.48947301303E+02  0.51227900432E+02  0.47000000000E+01 0. -1.
         -5    1    1    2    0  502  0.55035159915E+01 -0.12332738223E+02  0.78988113316E+02  0.80272019818E+02  0.47000000000E+01 0. -1.
        -11    1    1    2    0    0  0.50884767018E+01 -0.24954093169E+02  0.54302199768E+01  0.26040096966E+02  0.00000000000E+00 0.  1.
         11    1    1    2    0    0 -0.19496222680E+02  0.48559992713E+02 -0.84393430122E+02  0.99299680960E+02  0.00000000000E+00 0. -1.
<mgrwt>
<rscale>  0 0.11954642E+03</rscale>
<asrwt>0</asrwt>
<pdfrwt beam="2">  1        2 0.23520161E-01 0.12802257E+03</pdfrwt>
<pdfrwt beam="1">  1       -2 0.15993638E-01 0.12802257E+03</pdfrwt>
<totfact> 0.66992644E+03</totfact>
</mgrwt>
</event>
<event>
 6    1  0.7457796E-006  0.1268906E+03  0.7546771E-02  0.1249052E+00
          2   -1    0    0  501    0  0.00000000000E+00  0.00000000000E+00  0.51811318101E+03  0.51811318101E+03  0.00000000000E+00 0.  1.
         -2   -1    0    0    0  501 -0.00000000000E+00 -0.00000000000E+00 -0.22896889711E+02  0.22896889711E+02  0.00000000000E+00 0. -1.
          5    1    1    2  502    0 -0.23463056318E+02  0.31118448371E+02  0.24731479718E+02  0.46396216763E+02  0.47000000000E+01 0. -1.
         -5    1    1    2    0  502  0.43521315452E+02 -0.39608056098E+02  0.24030474288E+03  0.24744971703E+03  0.47000000000E+01 0. -1.
        -11    1    1    2    0    0  0.31415665408E+02 -0.65661560882E+01  0.12558376558E+03  0.12961998540E+03  0.00000000000E+00 0.  1.
         11    1    1    2    0    0 -0.51473924543E+02  0.15055763815E+02  0.10459630313E+03  0.11754415153E+03  0.00000000000E+00 0. -1.
<mgrwt>
<rscale>  0 0.11646122E+03</rscale>
<asrwt>0</asrwt>
<pdfrwt beam="1">  1        2 0.79709712E-01 0.12689064E+03</pdfrwt>
<pdfrwt beam="2">  1       -2 0.35225988E-02 0.12689064E+03</pdfrwt>
<totfact> 0.18647750E+04</totfact>
</mgrwt>
</event>
<event>
 6    1  0.7457796E-006  0.1537366E+03  0.7546771E-02  0.1204984E+00
         -1   -1    0    0    0  501 -0.00000000000E+00  0.00000000000E+00  0.12240104386E+03  0.12240104386E+03  0.00000000000E+00 0.  1.
          1   -1    0    0  501    0  0.00000000000E+00 -0.00000000000E+00 -0.16661059806E+03  0.16661059806E+03  0.00000000000E+00 0. -1.
          5    1    1    2  502    0  0.83646126528E+01 -0.73093203372E+02 -0.40338559639E+02  0.84034948193E+02  0.47000000000E+01 0.  1.
         -5    1    1    2    0  502 -0.53567371618E+02 -0.41509015932E+01  0.44231354326E+02  0.69750956923E+02  0.47000000000E+01 0.  1.
        -11    1    1    2    0    0 -0.14310507571E+02  0.53801602469E+00 -0.34292645590E+02  0.37162691368E+02  0.00000000000E+00 0. -1.
         11    1    1    2    0    0  0.59513266536E+02  0.76706088941E+02 -0.13809703302E+02  0.98063045433E+02  0.00000000000E+00 0.  1.
<mgrwt>
<rscale>  0 0.14638733E+03</rscale>
<asrwt>0</asrwt>
<pdfrwt beam="2">  1        1 0.25632400E-01 0.15373663E+03</pdfrwt>
<pdfrwt beam="1">  1       -1 0.18830930E-01 0.15373663E+03</pdfrwt>
<totfact> 0.39872613E+03</totfact>
</mgrwt>
</event>
<event>
 6    1  0.7457796E-006  0.1323282E+03  0.7546771E-02  0.1237342E+00
          1   -1    0    0  501    0  0.00000000000E+00  0.00000000000E+00  0.76944746344E+02  0.76944746344E+02  0.00000000000E+00 0. -1.
         -1   -1    0    0    0  501 -0.00000000000E+00 -0.00000000000E+00 -0.17863454437E+03  0.17863454437E+03  0.00000000000E+00 0.  1.
          5    1    1    2  502    0  0.46497236183E+01 -0.83918866292E+02 -0.36208393095E+02  0.91635876053E+02  0.47000000000E+01 0. -1.
         -5    1    1    2    0  502  0.13610584192E+02  0.44601530520E+02 -0.36100184518E+02  0.59159596424E+02  0.47000000000E+01 0. -1.
        -11    1    1    2    0    0  0.30006253264E+02 -0.95871742593E+01 -0.13434579455E+02  0.34245832890E+02  0.00000000000E+00 0. -1.
         11    1    1    2    0    0 -0.48266561074E+02  0.48904510031E+02 -0.15946640963E+02  0.70537985351E+02  0.00000000000E+00 0.  1.
<mgrwt>
<rscale>  0 0.12355702E+03</rscale>
<asrwt>0</asrwt>
<pdfrwt beam="1">  1        1 0.11837653E-01 0.13232817E+03</pdfrwt>
<pdfrwt beam="2">  1       -1 0.27482238E-01 0.13232817E+03</pdfrwt>
<totfact> 0.57572825E+03</totfact>
</mgrwt>
</event>
<event>
 6    1  0.7457796E-006  0.1632172E+03  0.7546771E-02  0.1191788E+00
          2   -1    0    0  501    0  0.00000000000E+00  0.00000000000E+00  0.93809715450E+02  0.93809715450E+02  0.00000000000E+00 0. -1.
         -2   -1    0    0    0  501 -0.00000000000E+00 -0.00000000000E+00 -0.31560207136E+03  0.31560207136E+03  0.00000000000E+00 0.  1.
          5    1    1    2  502    0 -0.91995595365E+01 -0.28540172357E+02  0.48636136569E+00  0.30356216516E+02  0.47000000000E+01 0. -1.
         -5    1    1    2    0  502  0.10364250575E+03 -0.17238114809E+02 -0.21350781237E+03  0.23800545696E+03  0.47000000000E+01 0. -1.
        -11    1    1    2    0    0 -0.85489449673E+00  0.29214904188E+02  0.26716872907E+02  0.39598393519E+02  0.00000000000E+00 0. -1.
         11    1    1    2    0    0 -0.93588051714E+02  0.16563382977E+02 -0.35487777814E+02  0.10145171982E+03  0.00000000000E+00 0.  1.
<mgrwt>
<rscale>  0 0.15729230E+03</rscale>
<asrwt>0</asrwt>
<pdfrwt beam="1">  1        2 0.14432264E-01 0.16321718E+03</pdfrwt>
<pdfrwt beam="2">  1       -2 0.48554165E-01 0.16321718E+03</pdfrwt>
<totfact> 0.16294336E+03</totfact>
</mgrwt>
</event>
<event>
 6    1  0.7457796E-006  0.2708831E+03  0.7546771E-02  0.1102543E+00
          1   -1    0    0  501    0  0.00000000000E+00  0.00000000000E+00  0.10768403479E+03  0.10768403479E+03  0.00000000000E+00 0. -1.
         -1   -1    0    0    0  501 -0.00000000000E+00 -0.00000000000E+00 -0.66055557719E+03  0.66055557719E+03  0.00000000000E+00 0.  1.
          5    1    1    2  502    0 -0.15667861282E+03  0.73562911118E+02 -0.13330910230E+03  0.21852481864E+03  0.47000000000E+01 0. -1.
         -5    1    1    2    0  502 -0.69185453276E+02  0.85225019315E+01 -0.19482932683E+03  0.20697781663E+03  0.47000000000E+01 0. -1.
        -11    1    1    2    0    0  0.17254487348E+03 -0.57155712428E+02 -0.10651093696E+03  0.21067294207E+03  0.00000000000E+00 0.  1.
         11    1    1    2    0    0  0.53319192607E+02 -0.24929700622E+02 -0.11822217632E+03  0.13206403464E+03  0.00000000000E+00 0. -1.
<mgrwt>
<rscale>  0 0.26780357E+03</rscale>
<asrwt>0</asrwt>
<pdfrwt beam="1">  1        1 0.16566775E-01 0.27088312E+03</pdfrwt>
<pdfrwt beam="2">  1       -1 0.10162393E+00 0.27088312E+03</pdfrwt>
<totfact> 0.31864878E+02</totfact>
</mgrwt>
</event>
<event>
 6    1  0.7457796E-006  0.2593766E+03  0.7546771E-02  0.1110203E+00
          2   -1    0    0  501    0  0.00000000000E+00  0.00000000000E+00  0.12869137222E+04  0.12869137222E+04  0.00000000000E+00 0. -1.
         -2   -1    0    0    0  501 -0.00000000000E+00 -0.00000000000E+00 -0.59706677588E+02  0.59706677588E+02  0.00000000000E+00 0.  1.
          5    1    1    2  502    0 -0.88956615031E+02  0.10974418680E+03  0.29359567772E+03  0.32584901085E+03  0.47000000000E+01 0.  1.
         -5    1    1    2    0  502 -0.83864604625E+02  0.37854556232E+02  0.50531085084E+02  0.10507958839E+03  0.47000000000E+01 0.  1.
        -11    1    1    2    0    0 -0.70772440444E+01 -0.16984740666E+02  0.99397805869E+02  0.10108655999E+03  0.00000000000E+00 0.  1.
         11    1    1    2    0    0  0.17989846370E+03 -0.13061400236E+03  0.78368247589E+03  0.81460524051E+03  0.00000000000E+00 0. -1.
<mgrwt>
<rscale>  0 0.25497142E+03</rscale>
<asrwt>0</asrwt>
<pdfrwt beam="1">  1        2 0.19798670E+00 0.25937662E+03</pdfrwt>
<pdfrwt beam="2">  1       -2 0.91856437E-02 0.25937662E+03</pdfrwt>
<totfact> 0.13577966E+03</totfact>
</mgrwt>
</event>
<event>
 6    1  0.7457796E-006  0.3209456E+03  0.7546771E-02  0.1075215E+00
         -1   -1    0    0    0  501 -0.00000000000E+00  0.00000000000E+00  0.22875971230E+02  0.22875971230E+02  0.00000000000E+00 0.  1.
          1   -1    0    0  501    0  0.00000000000E+00 -0.00000000000E+00 -0.11257016406E+04  0.11257016406E+04  0.00000000000E+00 0. -1.
          5    1    1    2  502    0  0.11672706937E+03 -0.28379804767E+02 -0.26470456281E+03  0.29072533020E+03  0.47000000000E+01 0.  1.
         -5    1    1    2    0  502 -0.37654470818E+01  0.37066819524E+02 -0.20370204352E+03  0.20713459449E+03  0.47000000000E+01 0.  1.
        -11    1    1    2    0    0 -0.66367836305E+02  0.39372975231E+02 -0.30950918118E+03  0.31898409696E+03  0.00000000000E+00 0.  1.
         11    1    1    2    0    0 -0.46593785988E+02 -0.48059989989E+02 -0.32490988181E+03  0.33173359015E+03  0.00000000000E+00 0. -1.
<mgrwt>
<rscale>  0 0.32094559E+03</rscale>
<asrwt>0</asrwt>
<pdfrwt beam="2">  1        1 0.17318480E+00 0.32094559E+03</pdfrwt>
<pdfrwt beam="1">  1       -1 0.35193816E-02 0.32094559E+03</pdfrwt>
<totfact> 0.38566443E+03</totfact>
</mgrwt>
</event>
<event>
 6    1  0.7457796E-006  0.3096833E+03  0.7546771E-02  0.1080498E+00
         -1   -1    0    0    0  501 -0.00000000000E+00  0.00000000000E+00  0.11118709266E+03  0.11118709266E+03  0.00000000000E+00 0.  1.
          1   -1    0    0  501    0  0.00000000000E+00 -0.00000000000E+00 -0.21563598350E+03  0.21563598350E+03  0.00000000000E+00 0. -1.
          5    1    1    2  502    0 -0.76242011065E+02 -0.41412890461E+02 -0.10647202745E+02  0.87540417373E+02  0.47000000000E+01 0.  1.
         -5    1    1    2    0  502  0.28767062551E+02 -0.72766457126E+00  0.50325340580E+02  0.58161871428E+02  0.47000000000E+01 0.  1.
        -11    1    1    2    0    0  0.40246813581E+02 -0.16072856190E+02 -0.29712432811E+02  0.52544946218E+02  0.00000000000E+00 0.  1.
         11    1    1    2    0    0  0.72281349326E+01  0.58213411222E+02 -0.11441459586E+03  0.12857584115E+03  0.00000000000E+00 0. -1.
<mgrwt>
<rscale>  0 0.30968331E+03</rscale>
<asrwt>0</asrwt>
<pdfrwt beam="2">  1        1 0.33174767E-01 0.30968331E+03</pdfrwt>
<pdfrwt beam="1">  1       -1 0.17105707E-01 0.30968331E+03</pdfrwt>
<totfact> 0.34636804E+03</totfact>
</mgrwt>
</event>
<event>
 6    1  0.7457796E-006  0.1576779E+03  0.7546771E-02  0.1199291E+00
         -2   -1    0    0    0  501 -0.00000000000E+00  0.00000000000E+00  0.57893560563E+02  0.57893560563E+02  0.00000000000E+00 0.  1.
          2   -1    0    0  501    0  0.00000000000E+00 -0.00000000000E+00 -0.42535559453E+03  0.42535559453E+03  0.00000000000E+00 0. -1.
          5    1    1    2  502    0  0.47597477518E+02 -0.26978655353E+02 -0.11238319415E+03  0.12508173343E+03  0.47000000000E+01 0.  1.
         -5    1    1    2    0  502  0.46992367020E+02  0.43679038246E+02  0.67910806435E+01  0.64686549734E+02  0.47000000000E+01 0.  1.
        -11    1    1    2    0    0 -0.10332776013E+02 -0.34014886935E+02 -0.31216596849E+02  0.47310196704E+02  0.00000000000E+00 0.  1.
         11    1    1    2    0    0 -0.84257068525E+02  0.17314504043E+02 -0.23065332362E+03  0.24617067523E+03  0.00000000000E+00 0. -1.
<mgrwt>
<rscale>  0 0.15096583E+03</rscale>
<asrwt>0</asrwt>
<pdfrwt beam="2">  1        2 0.65439320E-01 0.15767786E+03</pdfrwt>
<pdfrwt beam="1">  1       -2 0.89067019E-02 0.15767786E+03</pdfrwt>
<totfact> 0.57619878E+03</totfact>
</mgrwt>
</event>
<event>
 6    1  0.7457796E-006  0.1827115E+03  0.7546771E-02  0.1171689E+00
          1   -1    0    0  501    0  0.00000000000E+00  0.00000000000E+00  0.40671899089E+03  0.40671899089E+03  0.00000000000E+00 0. -1.
         -1   -1    0    0    0  501 -0.00000000000E+00 -0.00000000000E+00 -0.72100738411E+02  0.72100738411E+02  0.00000000000E+00 0.  1.
          5    1    1    2  502    0  0.11726004895E+03  0.39014652052E+02  0.16861528399E+03  0.20910587306E+03  0.47000000000E+01 0.  1.
         -5    1    1    2    0  502  0.15309083126E+02 -0.52588784634E+02  0.38677046635E+02  0.67215714173E+02  0.47000000000E+01 0.  1.
        -11    1    1    2    0    0 -0.84446221896E+02  0.38582655680E+01  0.23641176107E+02  0.87777877700E+02  0.00000000000E+00 0.  1.
         11    1    1    2    0    0 -0.48122910177E+02  0.97158670137E+01  0.10368474574E+03  0.11472026436E+03  0.00000000000E+00 0. -1.
<mgrwt>
<rscale>  0 0.17604227E+03</rscale>
<asrwt>0</asrwt>
<pdfrwt beam="1">  1        1 0.62572151E-01 0.18271155E+03</pdfrwt>
<pdfrwt beam="2">  1       -1 0.11092422E-01 0.18271155E+03</pdfrwt>
<totfact> 0.30217699E+03</totfact>
</mgrwt>
</event>
<event>
 6    1  0.7457796E-006  0.1393927E+03  0.7546771E-02  0.1226235E+00
          2   -1    0    0  501    0  0.00000000000E+00  0.00000000000E+00  0.45394143253E+03  0.45394143253E+03  0.00000000000E+00 0. -1.
         -2   -1    0    0    0  501 -0.00000000000E+00 -0.00000000000E+00 -0.44712267826E+02  0.44712267826E+02  0.00000000000E+00 0.  1.
          5    1    1    2  502    0 -0.83949748389E+02  0.40662119455E+02  0.53578595332E+02  0.10767415702E+03  0.47000000000E+01 0.  1.
         -5    1    1    2    0  502  0.42985304215E+02  0.54212588628E+01  0.47810043595E+02  0.64691704991E+02  0.47000000000E+01 0.  1.
        -11    1    1    2    0    0 -0.18187244393E+02 -0.99075347930E+01  0.15584314635E+02  0.25919220029E+02  0.00000000000E+00 0.  1.
         11    1    1    2    0    0  0.59151688568E+02 -0.36175843524E+02  0.29225621114E+03  0.30036861831E+03  0.00000000000E+00 0. -1.
<mgrwt>
<rscale>  0 0.13082595E+03</rscale>
<asrwt>0</asrwt>
<pdfrwt beam="1">  1        2 0.69837140E-01 0.13939273E+03</pdfrwt>
<pdfrwt beam="2">  1       -2 0.68788107E-02 0.13939273E+03</pdfrwt>
<totfact> 0.79479447E+03</totfact>
</mgrwt>
</event>
<event>
 6    1  0.7457796E-006  0.1406875E+03  0.7546771E-02  0.1223603E+00
         -3   -1    0    0    0  501 -0.00000000000E+00  0.00000000000E+00  0.10709347308E+03  0.10709347308E+03  0.00000000000E+00 0.  1.
          3   -1    0    0  501    0  0.00000000000E+00 -0.00000000000E+00 -0.18314557647E+03  0.18314557647E+03  0.00000000000E+00 0. -1.
          5    1    1    2  502    0  0.20557082766E+02  0.32841201051E+02  0.29086125541E+02  0.48674745375E+02  0.47000000000E+01 0.  1.
         -5    1    1    2    0  502 -0.84826315670E+02 -0.38691621167E+02 -0.75266362999E+01  0.93655142052E+02  0.47000000000E+01 0.  1.
        -11    1    1    2    0    0  0.60080905103E+02  0.37809417501E+02 -0.38939417822E+02  0.80966323061E+02  0.00000000000E+00 0.  1.
         11    1    1    2    0    0  0.41883278015E+01 -0.31958997385E+02 -0.58672174815E+02  0.66942839058E+02  0.00000000000E+00 0. -1.
<mgrwt>
<rscale>  0 0.13263133E+03</rscale>
<asrwt>0</asrwt>
<pdfrwt beam="2">  1        3 0.28176242E-01 0.14068754E+03</pdfrwt>
<pdfrwt beam="1">  1       -3 0.16475919E-01 0.14068754E+03</pdfrwt>
<totfact> 0.88339249E+02</totfact>
</mgrwt>
</event>
<event>
 6    1  0.7457796E-006  0.1353063E+03  0.7546771E-02  0.1232361E+00
         -2   -1    0    0    0  501 -0.00000000000E+00  0.00000000000E+00  0.49801406431E+02  0.49801406431E+02  0.00000000000E+00 0. -1.
          2   -1    0    0  501    0  0.00000000000E+00 -0.00000000000E+00 -0.30716472774E+03  0.30716472774E+03  0.00000000000E+00 0.  1.
          5    1    1    2  502    0 -0.78968839561E+01 -0.63923394373E+02 -0.10543785506E+01  0.64589185151E+02  0.47000000000E+01 0. -1.
         -5    1    1    2    0  502  0.26255660942E+02  0.15491064776E+02 -0.98995681690E+02  0.10368976716E+03  0.47000000000E+01 0. -1.
        -11    1    1    2    0    0 -0.82343494041E+01  0.63069643029E+02 -0.52786058722E+02  0.82655625200E+02  0.00000000000E+00 0. -1.
         11    1    1    2    0    0 -0.10124427582E+02 -0.14637313431E+02 -0.10452720235E+03  0.10603155667E+03  0.00000000000E+00 0.  1.
<mgrwt>
<rscale>  0 0.12674889E+03</rscale>
<asrwt>0</asrwt>
<pdfrwt beam="2">  1        2 0.47256113E-01 0.13530629E+03</pdfrwt>
<pdfrwt beam="1">  1       -2 0.76617547E-02 0.13530629E+03</pdfrwt>
<totfact> 0.10199344E+04</totfact>
</mgrwt>
</event>
<event>
 6    1  0.7457796E-006  0.1796257E+03  0.7546771E-02  0.1173619E+00
         -3   -1    0    0    0  501 -0.00000000000E+00  0.00000000000E+00  0.54523799929E+03  0.54523799929E+03  0.00000000000E+00 0.  1.
          3   -1    0    0  501    0  0.00000000000E+00 -0.00000000000E+00 -0.59352057477E+02  0.59352057477E+02  0.00000000000E+00 0. -1.
          5    1    1    2  502    0 -0.10128668822E+03 -0.67419945857E+02  0.35800034963E+03  0.37814122050E+03  0.47000000000E+01 0.  1.
         -5    1    1    2    0  502 -0.16853459354E+02  0.15599980813E+02  0.12040997698E+01  0.23472075959E+02  0.47000000000E+01 0.  1.
        -11    1    1    2    0    0 -0.65536021082E-01  0.39637250782E+02  0.28277322382E+02  0.48690069887E+02  0.00000000000E+00 0.  1.
         11    1    1    2    0    0  0.11820568359E+03  0.12182714262E+02  0.98404170039E+02  0.15428669042E+03  0.00000000000E+00 0. -1.
<mgrwt>
<rscale>  0 0.17411918E+03</rscale>
<asrwt>0</asrwt>
<pdfrwt beam="2">  1        3 0.91310861E-02 0.17962573E+03</pdfrwt>
<pdfrwt beam="1">  1       -3 0.83882766E-01 0.17962573E+03</pdfrwt>
<totfact> 0.27807124E+02</totfact>
</mgrwt>
</event>
<event>
 6    1  0.7457796E-006  0.1287147E+03  0.7546771E-02  0.1242742E+00
          1   -1    0    0  501    0  0.00000000000E+00  0.00000000000E+00  0.33881665764E+03  0.33881665764E+03  0.00000000000E+00 0.  1.
         -1   -1    0    0    0  501 -0.00000000000E+00 -0.00000000000E+00 -0.39251119864E+02  0.39251119864E+02  0.00000000000E+00 0. -1.
          5    1    1    2  502    0  0.27503249399E+02  0.56802204807E+02  0.11552438485E+03  0.13172278730E+03  0.47000000000E+01 0.  1.
         -5    1    1    2    0  502  0.26337020713E+01 -0.50838722589E+02  0.19212589948E+02  0.54614336155E+02  0.47000000000E+01 0.  1.
        -11    1    1    2    0    0  0.81488636085E+01 -0.38389473608E+02  0.35150031939E+02  0.52684726509E+02  0.00000000000E+00 0. -1.
         11    1    1    2    0    0 -0.38285815079E+02  0.32425991391E+02  0.12967853104E+03  0.13904592755E+03  0.00000000000E+00 0.  1.
<mgrwt>
<rscale>  0 0.12021559E+03</rscale>
<asrwt>0</asrwt>
<pdfrwt beam="1">  1        1 0.52125638E-01 0.12871469E+03</pdfrwt>
<pdfrwt beam="2">  1       -1 0.60386340E-02 0.12871469E+03</pdfrwt>
<totfact> 0.93764784E+03</totfact>
</mgrwt>
</event>
<event>
 6    1  0.7457796E-006  0.1277729E+03  0.7546771E-02  0.1245679E+00
         -2   -1    0    0    0  501 -0.00000000000E+00  0.00000000000E+00  0.54931970033E+02  0.54931970033E+02  0.00000000000E+00 0.  1.
          2   -1    0    0  501    0  0.00000000000E+00 -0.00000000000E+00 -0.22459440240E+03  0.22459440240E+03  0.00000000000E+00 0. -1.
          5    1    1    2  502    0 -0.43902507378E+02 -0.32129812541E+02 -0.40248949796E+02  0.67836737596E+02  0.47000000000E+01 0.  1.
         -5    1    1    2    0  502  0.69001243974E+02  0.23738883669E+02 -0.58839788512E+02  0.93855830826E+02  0.47000000000E+01 0.  1.
        -11    1    1    2    0    0 -0.12718406715E+02 -0.40247943525E+02 -0.44275110522E+02  0.61171400500E+02  0.00000000000E+00 0. -1.
         11    1    1    2    0    0 -0.12380329882E+02  0.48638872397E+02 -0.26298583541E+02  0.56662403517E+02  0.00000000000E+00 0.  1.
<mgrwt>
<rscale>  0 0.11844811E+03</rscale>
<asrwt>0</asrwt>
<pdfrwt beam="2">  1        2 0.34552985E-01 0.12777288E+03</pdfrwt>
<pdfrwt beam="1">  1       -2 0.84510722E-02 0.12777288E+03</pdfrwt>
<totfact> 0.12171172E+04</totfact>
</mgrwt>
</event>
<event>
 6    1  0.7457796E-006  0.1276217E+03  0.7546771E-02  0.1245350E+00
         -1   -1    0    0    0  501 -0.00000000000E+00  0.00000000000E+00  0.36201109014E+03  0.36201109014E+03  0.00000000000E+00 0.  1.
          1   -1    0    0  501    0  0.00000000000E+00 -0.00000000000E+00 -0.35791481141E+02  0.35791481141E+02  0.00000000000E+00 0. -1.
          5    1    1    2  502    0  0.57996248285E+02 -0.40823948858E+02  0.14026207163E+03  0.15724407255E+03  0.47000000000E+01 0. -1.
         -5    1    1    2    0  502 -0.32612079171E+02  0.45011861679E+02  0.85343023882E+02  0.10195654528E+03  0.47000000000E+01 0. -1.
        -11    1    1    2    0    0  0.16147322191E+01  0.40758205438E+02  0.29924757586E+02  0.50589819008E+02  0.00000000000E+00 0. -1.
         11    1    1    2    0    0 -0.26998901333E+02 -0.44946118259E+02  0.70689755900E+02  0.88012134441E+02  0.00000000000E+00 0.  1.
<mgrwt>
<rscale>  0 0.11864442E+03</rscale>
<asrwt>0</asrwt>
<pdfrwt beam="2">  1        1 0.55063820E-02 0.12762171E+03</pdfrwt>
<pdfrwt beam="1">  1       -1 0.55694011E-01 0.12762171E+03</pdfrwt>
<totfact> 0.46441482E+03</totfact>
</mgrwt>
</event>
<event>
 6    1  0.7457796E-006  0.2382672E+03  0.7546771E-02  0.1123635E+00
         -1   -1    0    0    0  501 -0.00000000000E+00  0.00000000000E+00  0.10451817235E+03  0.10451817235E+03  0.00000000000E+00 0.  1.
          1   -1    0    0  501    0  0.00000000000E+00 -0.00000000000E+00 -0.50960629002E+03  0.50960629002E+03  0.00000000000E+00 0. -1.
          5    1    1    2  502    0  0.19101786569E+02  0.46726643070E+02 -0.35791123579E+02  0.62059261595E+02  0.47000000000E+01 0. -1.
         -5    1    1    2    0  502 -0.15474298675E+03  0.10409534015E+03 -0.18689135122E+03  0.26406760300E+03  0.47000000000E+01 0. -1.
        -11    1    1    2    0    0  0.11491854800E+03 -0.61488528483E+02 -0.94728348775E+02  0.16112284714E+03  0.00000000000E+00 0. -1.
         11    1    1    2    0    0  0.20722652186E+02 -0.89333454740E+02 -0.87677294093E+02  0.12687475064E+03  0.00000000000E+00 0.  1.
<mgrwt>
<rscale>  0 0.23432078E+03</rscale>
<asrwt>0</asrwt>
<pdfrwt beam="2">  1        1 0.78400965E-01 0.23826718E+03</pdfrwt>
<pdfrwt beam="1">  1       -1 0.16079719E-01 0.23826718E+03</pdfrwt>
<totfact> 0.12645465E+03</totfact>
</mgrwt>
</event>
<event>
 6    1  0.7457796E-006  0.1486881E+03  0.7546771E-02  0.1211721E+00
          2   -1    0    0  501    0  0.00000000000E+00  0.00000000000E+00  0.65987573548E+03  0.65987573548E+03  0.00000000000E+00 0. -1.
         -2   -1    0    0    0  501 -0.00000000000E+00 -0.00000000000E+00 -0.27637060405E+02  0.27637060405E+02  0.00000000000E+00 0.  1.
          5    1    1    2  502    0  0.91095320823E+00 -0.43798917578E+02  0.24668188622E+02  0.50495391341E+02  0.47000000000E+01 0. -1.
         -5    1    1    2    0  502  0.36009158913E+02 -0.27760128290E+02  0.34406011938E+03  0.34708318887E+03  0.47000000000E+01 0. -1.
        -11    1    1    2    0    0 -0.25775329305E+02  0.15405661909E+02  0.12581412889E+02  0.32557548585E+02  0.00000000000E+00 0.  1.
         11    1    1    2    0    0 -0.11144782817E+02  0.56153383959E+02  0.25092895419E+03  0.25737666709E+03  0.00000000000E+00 0. -1.
<mgrwt>
<rscale>  0 0.14120206E+03</rscale>
<asrwt>0</asrwt>
<pdfrwt beam="1">  1        2 0.10151933E+00 0.14868814E+03</pdfrwt>
<pdfrwt beam="2">  1       -2 0.42518559E-02 0.14868814E+03</pdfrwt>
<totfact> 0.10851045E+04</totfact>
</mgrwt>
</event>
<event>
 6    1  0.7457796E-006  0.1579791E+03  0.7546771E-02  0.1198815E+00
         -2   -1    0    0    0  501 -0.00000000000E+00  0.00000000000E+00  0.53984528548E+02  0.53984528548E+02  0.00000000000E+00 0.  1.
          2   -1    0    0  501    0  0.00000000000E+00 -0.00000000000E+00 -0.39475941812E+03  0.39475941812E+03  0.00000000000E+00 0. -1.
          5    1    1    2  502    0  0.39517583275E+02 -0.20952575539E+01  0.78678580572E+01  0.40620471225E+02  0.47000000000E+01 0.  1.
         -5    1    1    2    0  502  0.29270665070E+02 -0.65731141817E+02 -0.17543285761E+03  0.18967375245E+03  0.47000000000E+01 0.  1.
        -11    1    1    2    0    0 -0.15107902370E+02  0.59291102974E+02 -0.36296565448E+02  0.71141579047E+02  0.00000000000E+00 0.  1.
         11    1    1    2    0    0 -0.53680345975E+02  0.85352963970E+01 -0.13691332457E+03  0.14730814395E+03  0.00000000000E+00 0. -1.
<mgrwt>
<rscale>  0 0.15135734E+03</rscale>
<asrwt>0</asrwt>
<pdfrwt beam="2">  1        2 0.60732218E-01 0.15797911E+03</pdfrwt>
<pdfrwt beam="1">  1       -2 0.83053121E-02 0.15797911E+03</pdfrwt>
<totfact> 0.69636253E+03</totfact>
</mgrwt>
</event>
<event>
 6    1  0.7457796E-006  0.2437067E+03  0.7546771E-02  0.1120012E+00
         -1   -1    0    0    0  501 -0.00000000000E+00  0.00000000000E+00  0.12163541592E+04  0.12163541592E+04  0.00000000000E+00 0.  1.
          1   -1    0    0  501    0  0.00000000000E+00 -0.00000000000E+00 -0.45731194049E+02  0.45731194049E+02  0.00000000000E+00 0. -1.
          5    1    1    2  502    0  0.14106620979E+03 -0.41170573242E+02  0.36888279494E+03  0.39710363641E+03  0.47000000000E+01 0.  1.
         -5    1    1    2    0  502  0.66088472046E+02  0.70407775098E+02  0.24326973461E+03  0.26177699423E+03  0.47000000000E+01 0.  1.
        -11    1    1    2    0    0 -0.54805821541E+02 -0.12836374630E+02  0.27766203859E+03  0.28331018030E+03  0.00000000000E+00 0.  1.
         11    1    1    2    0    0 -0.15234886030E+03 -0.16400827226E+02  0.28080839703E+03  0.31989454233E+03  0.00000000000E+00 0. -1.
<mgrwt>
<rscale>  0 0.23967144E+03</rscale>
<asrwt>0</asrwt>
<pdfrwt beam="2">  1        1 0.70355692E-02 0.24370672E+03</pdfrwt>
<pdfrwt beam="1">  1       -1 0.18713138E+00 0.24370672E+03</pdfrwt>
<totfact> 0.21222370E+02</totfact>
</mgrwt>
</event>
<event>
 6    1  0.7457796E-006  0.1251470E+03  0.7546771E-02  0.1250441E+00
          1   -1    0    0  501    0  0.00000000000E+00  0.00000000000E+00  0.65489800913E+02  0.65489800913E+02  0.00000000000E+00 0. -1.
         -1   -1    0    0    0  501 -0.00000000000E+00 -0.00000000000E+00 -0.18379441473E+03  0.18379441473E+03  0.00000000000E+00 0.  1.
          5    1    1    2  502    0 -0.21534934932E+02  0.40589132664E+02 -0.89552106116E+02  0.10076160391E+03  0.47000000000E+01 0. -1.
         -5    1    1    2    0  502  0.27140643616E+02 -0.44644051981E+02  0.11321874141E+01  0.52469779507E+02  0.47000000000E+01 0. -1.
        -11    1    1    2    0    0  0.27246655584E+01  0.28300008326E+02  0.23464796772E+02  0.36863409516E+02  0.00000000000E+00 0. -1.
         11    1    1    2    0    0 -0.83303742424E+01 -0.24245089009E+02 -0.53349491889E+02  0.59189422711E+02  0.00000000000E+00 0.  1.
<mgrwt>
<rscale>  0 0.11565539E+03</rscale>
<asrwt>0</asrwt>
<pdfrwt beam="1">  1        1 0.10075354E-01 0.12514701E+03</pdfrwt>
<pdfrwt beam="2">  1       -1 0.28276064E-01 0.12514701E+03</pdfrwt>
<totfact> 0.67621722E+03</totfact>
</mgrwt>
</event>
<event>
 6    1  0.7457796E-006  0.2674782E+03  0.7546771E-02  0.1102732E+00
          4   -1    0    0  501    0  0.00000000000E+00  0.00000000000E+00  0.24651877823E+02  0.24651877823E+02  0.00000000000E+00 0. -1.
         -4   -1    0    0    0  501 -0.00000000000E+00 -0.00000000000E+00 -0.72554884649E+03  0.72554884649E+03  0.00000000000E+00 0.  1.
          5    1    1    2  502    0  0.46729813801E+02  0.69432445868E+02 -0.40113407761E+03  0.40979894858E+03  0.47000000000E+01 0.  1.
         -5    1    1    2    0  502  0.10060552670E+02 -0.23788773745E+02 -0.13848803298E+02  0.29681641281E+02  0.47000000000E+01 0.  1.
        -11    1    1    2    0    0  0.15933160511E+02 -0.46249106821E+02 -0.11721285534E+03  0.12701062532E+03  0.00000000000E+00 0. -1.
         11    1    1    2    0    0 -0.72723526982E+02  0.60543469786E+00 -0.16870123241E+03  0.18370950913E+03  0.00000000000E+00 0.  1.
<mgrwt>
<rscale>  0 0.26747816E+03</rscale>
<asrwt>0</asrwt>
<pdfrwt beam="1">  1        4 0.37925970E-02 0.26747816E+03</pdfrwt>
<pdfrwt beam="2">  1       -4 0.11162289E+00 0.26747816E+03</pdfrwt>
<totfact> 0.45723687E+02</totfact>
</mgrwt>
</event>
<event>
 6    1  0.7457796E-006  0.4034342E+03  0.7546771E-02  0.1042597E+00
          1   -1    0    0  501    0  0.00000000000E+00  0.00000000000E+00  0.58598373271E+02  0.58598373271E+02  0.00000000000E+00 0. -1.
         -1   -1    0    0    0  501 -0.00000000000E+00 -0.00000000000E+00 -0.69438432349E+03  0.69438432349E+03  0.00000000000E+00 0.  1.
          5    1    1    2  502    0 -0.11998984398E+03 -0.12647889233E+03 -0.21531514552E+03  0.27708694439E+03  0.47000000000E+01 0. -1.
         -5    1    1    2    0  502  0.25853323752E+02 -0.15113940674E+02 -0.82709154810E+02  0.88089271998E+02  0.47000000000E+01 0. -1.
        -11    1    1    2    0    0  0.15678166731E+02  0.66110952264E+02 -0.64621685806E+02  0.93767932673E+02  0.00000000000E+00 0.  1.
         11    1    1    2    0    0  0.78458353494E+02  0.75481880740E+02 -0.27313996409E+03  0.29403854770E+03  0.00000000000E+00 0. -1.
<mgrwt>
<rscale>  0 0.40343422E+03</rscale>
<asrwt>0</asrwt>
<pdfrwt beam="1">  1        1 0.90151344E-02 0.40343422E+03</pdfrwt>
<pdfrwt beam="2">  1       -1 0.10682836E+00 0.40343422E+03</pdfrwt>
<totfact> 0.64186181E+02</totfact>
</mgrwt>
</event>
<event>
 6    1  0.7457796E-006  0.1285859E+03  0.7546771E-02  0.1237329E+00
         -1   -1    0    0    0  501 -0.00000000000E+00  0.00000000000E+00  0.77682201916E+03  0.77682201916E+03  0.00000000000E+00 0.  1.
          1   -1    0    0  501    0  0.00000000000E+00 -0.00000000000E+00 -0.29945035525E+02  0.29945035525E+02  0.00000000000E+00 0. -1.
          5    1    1    2  502    0 -0.18337599357E+02 -0.45477994826E+02  0.19536081754E+03  0.20147569231E+03  0.47000000000E+01 0. -1.
         -5    1    1    2    0  502  0.74697599176E+02  0.19116193879E+02  0.44762382115E+03  0.45424039390E+03  0.47000000000E+01 0.  1.
        -11    1    1    2    0    0  0.22430561703E+01 -0.24535118778E+02  0.52403936572E+02  0.57906613808E+02  0.00000000000E+00 0.  1.
         11    1    1    2    0    0 -0.58603055990E+02  0.50896919725E+02  0.51488408375E+02  0.93144354664E+02  0.00000000000E+00 0. -1.
<mgrwt>
<rscale>  0 0.12356506E+03</rscale>
<asrwt>0</asrwt>
<pdfrwt beam="2">  1        1 0.46069291E-02 0.12858593E+03</pdfrwt>
<pdfrwt beam="1">  1       -1 0.11951106E+00 0.12858593E+03</pdfrwt>
<totfact> 0.12181404E+03</totfact>
</mgrwt>
</event>
<event>
 6    1  0.7457796E-006  0.1383864E+03  0.7546771E-02  0.1227101E+00
         -2   -1    0    0    0  501 -0.00000000000E+00  0.00000000000E+00  0.28058525032E+03  0.28058525032E+03  0.00000000000E+00 0.  1.
          2   -1    0    0  501    0  0.00000000000E+00 -0.00000000000E+00 -0.57561374384E+02  0.57561374384E+02  0.00000000000E+00 0. -1.
          5    1    1    2  502    0  0.52128496200E+02 -0.48411114727E+02  0.15402079141E+03  0.16972186168E+03  0.47000000000E+01 0.  1.
         -5    1    1    2    0  502 -0.42267586597E+02 -0.10137687365E+02  0.99437740211E+01  0.44836260143E+02  0.47000000000E+01 0.  1.
        -11    1    1    2    0    0  0.26391700962E+02 -0.74169322488E+01 -0.78726444541E+00  0.27425399704E+02  0.00000000000E+00 0.  1.
         11    1    1    2    0    0 -0.36252610565E+02  0.65965734340E+02  0.59846574956E+02  0.96163103183E+02  0.00000000000E+00 0. -1.
<mgrwt>
<rscale>  0 0.13023914E+03</rscale>
<asrwt>0</asrwt>
<pdfrwt beam="2">  1        2 0.88555962E-02 0.13838645E+03</pdfrwt>
<pdfrwt beam="1">  1       -2 0.43166961E-01 0.13838645E+03</pdfrwt>
<totfact> 0.36736657E+03</totfact>
</mgrwt>
</event>
<event>
 6    1  0.7457796E-006  0.1725381E+03  0.7546771E-02  0.1181226E+00
          2   -1    0    0  501    0  0.00000000000E+00  0.00000000000E+00  0.71700941314E+03  0.71700941314E+03  0.00000000000E+00 0.  1.
         -2   -1    0    0    0  501 -0.00000000000E+00 -0.00000000000E+00 -0.37365802443E+02  0.37365802443E+02  0.00000000000E+00 0. -1.
          5    1    1    2  502    0 -0.19248550930E+02 -0.45515871852E+02  0.50531916493E+02  0.70836190523E+02  0.47000000000E+01 0. -1.
         -5    1    1    2    0  502 -0.98699141807E+02  0.60834586359E+02  0.25215548562E+03  0.27757313707E+03  0.47000000000E+01 0. -1.
        -11    1    1    2    0    0  0.11365767343E+03 -0.35327626829E+02  0.36070440090E+03  0.37983387523E+03  0.00000000000E+00 0.  1.
         11    1    1    2    0    0  0.42900193084E+01  0.20008912322E+02  0.16251807681E+02  0.26132012760E+02  0.00000000000E+00 0. -1.
<mgrwt>
<rscale>  0 0.16680015E+03</rscale>
<asrwt>0</asrwt>
<pdfrwt beam="1">  1        2 0.11030913E+00 0.17253810E+03</pdfrwt>
<pdfrwt beam="2">  1       -2 0.57485855E-02 0.17253810E+03</pdfrwt>
<totfact> 0.62913965E+03</totfact>
</mgrwt>
</event>
<event>
 6    1  0.7457796E-006  0.1269822E+03  0.7546771E-02  0.1245791E+00
          1   -1    0    0  501    0  0.00000000000E+00  0.00000000000E+00  0.66801774396E+02  0.66801774396E+02  0.00000000000E+00 0. -1.
         -1   -1    0    0    0  501 -0.00000000000E+00 -0.00000000000E+00 -0.20450120988E+03  0.20450120988E+03  0.00000000000E+00 0.  1.
          5    1    1    2  502    0 -0.62093558364E+02  0.16518785554E+02 -0.26894170824E+02  0.69813083951E+02  0.47000000000E+01 0. -1.
         -5    1    1    2    0  502  0.41678792223E+02 -0.25618602640E+02 -0.91179677158E+02  0.10358213190E+03  0.47000000000E+01 0. -1.
        -11    1    1    2    0    0  0.63455620321E+01  0.50765979392E+02 -0.16763230619E+02  0.53837317187E+02  0.00000000000E+00 0.  1.
         11    1    1    2    0    0  0.14069204109E+02 -0.41666162306E+02 -0.28623568874E+01  0.44070451240E+02  0.00000000000E+00 0. -1.
<mgrwt>
<rscale>  0 0.11838182E+03</rscale>
<asrwt>0</asrwt>
<pdfrwt beam="1">  1        1 0.10277196E-01 0.12698215E+03</pdfrwt>
<pdfrwt beam="2">  1       -1 0.31461724E-01 0.12698215E+03</pdfrwt>
<totfact> 0.55142557E+03</totfact>
</mgrwt>
</event>
<event>
 6    1  0.7457796E-006  0.2567686E+03  0.7546771E-02  0.1111367E+00
          1   -1    0    0  501    0  0.00000000000E+00  0.00000000000E+00  0.15810494634E+04  0.15810494634E+04  0.00000000000E+00 0.  1.
         -1   -1    0    0    0  501 -0.00000000000E+00 -0.00000000000E+00 -0.40079392536E+02  0.40079392536E+02  0.00000000000E+00 0. -1.
          5    1    1    2  502    0 -0.16892224153E+03  0.11974216490E+03  0.58717391519E+03  0.62263007189E+03  0.47000000000E+01 0.  1.
         -5    1    1    2    0  502 -0.12659085570E+02  0.11943960897E+02  0.31109113661E+03  0.31161305481E+03  0.47000000000E+01 0.  1.
        -11    1    1    2    0    0  0.12765128810E+03 -0.58872254996E+02  0.28362965710E+03  0.31655422308E+03  0.00000000000E+00 0. -1.
         11    1    1    2    0    0  0.53930039002E+02 -0.72813870802E+02  0.35907536196E+03  0.37033150616E+03  0.00000000000E+00 0.  1.
<mgrwt>
<rscale>  0 0.25309017E+03</rscale>
<asrwt>0</asrwt>
<pdfrwt beam="1">  1        1 0.24323833E+00 0.25676860E+03</pdfrwt>
<pdfrwt beam="2">  1       -1 0.61660616E-02 0.25676860E+03</pdfrwt>
<totfact> 0.81236507E+02</totfact>
</mgrwt>
</event>
<event>
 6    1  0.7457796E-006  0.3575150E+03  0.7546771E-02  0.1103975E+00
          1   -1    0    0  501    0  0.00000000000E+00  0.00000000000E+00  0.10590447166E+03  0.10590447166E+03  0.00000000000E+00 0. -1.
         -1   -1    0    0    0  501 -0.00000000000E+00 -0.00000000000E+00 -0.51490428758E+03  0.51490428758E+03  0.00000000000E+00 0.  1.
          5    1    1    2  502    0  0.10691822589E+01 -0.15053617301E+03 -0.23607021279E+02  0.15245216952E+03  0.47000000000E+01 0. -1.
         -5    1    1    2    0  502  0.57557062802E+02  0.14020053356E+03 -0.27215518846E+03  0.31154380381E+03  0.47000000000E+01 0.  1.
        -11    1    1    2    0    0 -0.32011383093E+02 -0.39367787854E+02 -0.41363694530E+02  0.65463780774E+02  0.00000000000E+00 0. -1.
         11    1    1    2    0    0 -0.26614861968E+02  0.49703427305E+02 -0.71873911658E+02  0.91349005142E+02  0.00000000000E+00 0.  1.
<mgrwt>
<rscale>  0 0.26534213E+03</rscale>
<asrwt>0</asrwt>
<pdfrwt beam="1">  1        1 0.16292995E-01 0.35751500E+03</pdfrwt>
<pdfrwt beam="2">  1       -1 0.79216045E-01 0.35751500E+03</pdfrwt>
<totfact> 0.55690073E+02</totfact>
</mgrwt>
</event>
<event>
 6    1  0.7457796E-006  0.1342415E+03  0.7546771E-02  0.1234081E+00
         -1   -1    0    0    0  501 -0.00000000000E+00  0.00000000000E+00  0.14503780397E+03  0.14503780397E+03  0.00000000000E+00 0.  1.
          1   -1    0    0  501    0  0.00000000000E+00 -0.00000000000E+00 -0.12594291039E+03  0.12594291039E+03  0.00000000000E+00 0. -1.
          5    1    1    2  502    0 -0.31597582084E+01 -0.18072262961E+02 -0.34817935636E+02  0.39635456379E+02  0.47000000000E+01 0. -1.
         -5    1    1    2    0  502 -0.79484642245E+01 -0.29642398281E+02  0.10984746657E+03  0.11415080276E+03  0.47000000000E+01 0. -1.
        -11    1    1    2    0    0 -0.34252757276E+01  0.39693058753E+02  0.16322803795E+02  0.43054678616E+02  0.00000000000E+00 0.  1.
         11    1    1    2    0    0  0.14533498161E+02  0.80216024887E+01 -0.72257441139E+02  0.74139776606E+02  0.00000000000E+00 0. -1.
<mgrwt>
<rscale>  0 0.12563433E+03</rscale>
<asrwt>0</asrwt>
<pdfrwt beam="2">  1        1 0.19375832E-01 0.13424151E+03</pdfrwt>
<pdfrwt beam="1">  1       -1 0.22313508E-01 0.13424151E+03</pdfrwt>
<totfact> 0.42892650E+03</totfact>
</mgrwt>
</event>
<event>
 6    1  0.7457796E-006  0.1379355E+03  0.7546771E-02  0.1227785E+00
         -1   -1    0    0    0  501 -0.00000000000E+00  0.00000000000E+00  0.10353156945E+03  0.10353156945E+03  0.00000000000E+00 0.  1.
          1   -1    0    0  501    0  0.00000000000E+00 -0.00000000000E+00 -0.14681204568E+03  0.14681204568E+03  0.00000000000E+00 0. -1.
          5    1    1    2  502    0  0.77148624599E+02 -0.23211695695E+01  0.10278331121E+02  0.78006616362E+02  0.47000000000E+01 0.  1.
         -5    1    1    2    0  502 -0.37148040010E+02 -0.40153281991E+02 -0.26233678231E+02  0.60848654914E+02  0.47000000000E+01 0.  1.
        -11    1    1    2    0    0  0.14788847377E+02 -0.14797261811E+02  0.10792301863E+02  0.23540236689E+02  0.00000000000E+00 0.  1.
         11    1    1    2    0    0 -0.54789431966E+02  0.57271713372E+02 -0.38117430984E+02  0.87948107157E+02  0.00000000000E+00 0. -1.
<mgrwt>
<rscale>  0 0.12977809E+03</rscale>
<asrwt>0</asrwt>
<pdfrwt beam="2">  1        1 0.22586469E-01 0.13793554E+03</pdfrwt>
<pdfrwt beam="1">  1       -1 0.15927934E-01 0.13793554E+03</pdfrwt>
<totfact> 0.60614183E+03</totfact>
</mgrwt>
</event>
<event>
 6    1  0.7457796E-006  0.1231516E+03  0.7546771E-02  0.1250079E+00
         -1   -1    0    0    0  501 -0.00000000000E+00  0.00000000000E+00  0.93041269416E+02  0.93041269416E+02  0.00000000000E+00 0.  1.
          1   -1    0    0  501    0  0.00000000000E+00 -0.00000000000E+00 -0.13051386139E+03  0.13051386139E+03  0.00000000000E+00 0. -1.
          5    1    1    2  502    0  0.34895209068E+02  0.66217345197E+01 -0.60340261776E+02  0.70175210546E+02  0.47000000000E+01 0. -1.
         -5    1    1    2    0  502 -0.39229044920E+02  0.27056473238E+02  0.30196688212E+02  0.56611842298E+02  0.47000000000E+01 0.  1.
        -11    1    1    2    0    0 -0.21874804257E+02  0.24390734489E+02 -0.16125025004E+01  0.32802669929E+02  0.00000000000E+00 0.  1.
         11    1    1    2    0    0  0.26208640109E+02 -0.58068942247E+02 -0.57165159045E+01  0.63965408027E+02  0.00000000000E+00 0. -1.
<mgrwt>
<rscale>  0 0.11586462E+03</rscale>
<asrwt>0</asrwt>
<pdfrwt beam="2">  1        1 0.20079056E-01 0.12315162E+03</pdfrwt>
<pdfrwt beam="1">  1       -1 0.14314041E-01 0.12315162E+03</pdfrwt>
<totfact> 0.82472839E+03</totfact>
</mgrwt>
</event>
<event>
 6    1  0.7457796E-006  0.3191859E+03  0.7546771E-02  0.1076025E+00
          1   -1    0    0  501    0  0.00000000000E+00  0.00000000000E+00  0.56621426551E+03  0.56621426551E+03  0.00000000000E+00 0. -1.
         -1   -1    0    0    0  501 -0.00000000000E+00 -0.00000000000E+00 -0.44982801543E+02  0.44982801543E+02  0.00000000000E+00 0.  1.
          5    1    1    2  502    0 -0.13844512309E+03  0.20776772100E+02  0.19937100648E+03  0.24365880774E+03  0.47000000000E+01 0.  1.
         -5    1    1    2    0  502  0.23514561528E+02 -0.15228743917E+02  0.60286945233E+02  0.66644242142E+02  0.47000000000E+01 0.  1.
        -11    1    1    2    0    0  0.48180405673E+02  0.37210082776E+02  0.16548713451E+03  0.17632904877E+03  0.00000000000E+00 0. -1.
         11    1    1    2    0    0  0.66750155889E+02 -0.42758110959E+02  0.96086377743E+02  0.12456496840E+03  0.00000000000E+00 0.  1.
<mgrwt>
<rscale>  0 0.31918586E+03</rscale>
<asrwt>0</asrwt>
<pdfrwt beam="1">  1        1 0.87109882E-01 0.31918586E+03</pdfrwt>
<pdfrwt beam="2">  1       -1 0.69204314E-02 0.31918586E+03</pdfrwt>
<totfact> 0.41038320E+03</totfact>
</mgrwt>
</event>
<event>
 6    1  0.7457796E-006  0.1425677E+03  0.7546771E-02  0.1223930E+00
         -1   -1    0    0    0  501 -0.00000000000E+00  0.00000000000E+00  0.56950770266E+02  0.56950770266E+02  0.00000000000E+00 0.  1.
          1   -1    0    0  501    0  0.00000000000E+00 -0.00000000000E+00 -0.33351987723E+03  0.33351987723E+03  0.00000000000E+00 0. -1.
          5    1    1    2  502    0  0.52204934736E+02 -0.19131252260E+02 -0.11645847407E+02  0.57000664782E+02  0.47000000000E+01 0. -1.
         -5    1    1    2    0  502 -0.67564024609E+02  0.48390823147E+02 -0.59614738311E+02  0.10238445297E+03  0.47000000000E+01 0.  1.
        -11    1    1    2    0    0 -0.22250580402E+02 -0.44265948544E+02 -0.17093611574E+03  0.17797111617E+03  0.00000000000E+00 0. -1.
         11    1    1    2    0    0  0.37609670274E+02  0.15006377656E+02 -0.34372405515E+02  0.53114413575E+02  0.00000000000E+00 0.  1.
<mgrwt>
<rscale>  0 0.13240511E+03</rscale>
<asrwt>0</asrwt>
<pdfrwt beam="2">  1        1 0.51310752E-01 0.14256768E+03</pdfrwt>
<pdfrwt beam="1">  1       -1 0.87616567E-02 0.14256768E+03</pdfrwt>
<totfact> 0.55037991E+03</totfact>
</mgrwt>
</event>
<event>
 6    1  0.7457796E-006  0.1697195E+03  0.7546771E-02  0.1184875E+00
          1   -1    0    0  501    0  0.00000000000E+00  0.00000000000E+00  0.75019183199E+03  0.75019183199E+03  0.00000000000E+00 0. -1.
         -1   -1    0    0    0  501 -0.00000000000E+00 -0.00000000000E+00 -0.34578114523E+02  0.34578114523E+02  0.00000000000E+00 0.  1.
          5    1    1    2  502    0  0.67049594495E+02 -0.90126288892E+02  0.15228482150E+03  0.18929118556E+03  0.47000000000E+01 0.  1.
         -5    1    1    2    0  502 -0.41080886168E+02 -0.21685508779E+02  0.15340348138E+03  0.16035154691E+03  0.47000000000E+01 0.  1.
        -11    1    1    2    0    0  0.31005861173E+02  0.50767275190E+02  0.21481582467E+03  0.22290024268E+03  0.00000000000E+00 0. -1.
         11    1    1    2    0    0 -0.56974569500E+02  0.61044522480E+02  0.19510958992E+03  0.21222697136E+03  0.00000000000E+00 0.  1.
<mgrwt>
<rscale>  0 0.16343241E+03</rscale>
<asrwt>0</asrwt>
<pdfrwt beam="1">  1        1 0.11541412E+00 0.16971948E+03</pdfrwt>
<pdfrwt beam="2">  1       -1 0.53197105E-02 0.16971948E+03</pdfrwt>
<totfact> 0.40054315E+03</totfact>
</mgrwt>
</event>
<event>
 6    1  0.7457796E-006  0.1899198E+03  0.7546771E-02  0.1174739E+00
          1   -1    0    0  501    0  0.00000000000E+00  0.00000000000E+00  0.24303418468E+03  0.24303418468E+03  0.00000000000E+00 0. -1.
         -1   -1    0    0    0  501 -0.00000000000E+00 -0.00000000000E+00 -0.11926701498E+03  0.11926701498E+03  0.00000000000E+00 0.  1.
          5    1    1    2  502    0  0.10143844322E+02 -0.80804115949E+02  0.73689186625E+02  0.10992901781E+03  0.47000000000E+01 0. -1.
         -5    1    1    2    0  502 -0.51370046050E+02  0.20588612821E+01 -0.61602993912E+02  0.80374992378E+02  0.47000000000E+01 0.  1.
        -11    1    1    2    0    0  0.54359905794E+02  0.96180833559E+01  0.73559913429E+02  0.91970472158E+02  0.00000000000E+00 0.  1.
         11    1    1    2    0    0 -0.13133704067E+02  0.69127171311E+02  0.38121063558E+02  0.80026717306E+02  0.00000000000E+00 0. -1.
<mgrwt>
<rscale>  0 0.17301558E+03</rscale>
<asrwt>0</asrwt>
<pdfrwt beam="1">  1        1 0.37389874E-01 0.18991983E+03</pdfrwt>
<pdfrwt beam="2">  1       -1 0.18348772E-01 0.18991983E+03</pdfrwt>
<totfact> 0.26154824E+03</totfact>
</mgrwt>
</event>
<event>
 6    1  0.7457796E-006  0.1405692E+03  0.7546771E-02  0.1223432E+00
         -1   -1    0    0    0  501 -0.00000000000E+00  0.00000000000E+00  0.17116357565E+03  0.17116357565E+03  0.00000000000E+00 0.  1.
          1   -1    0    0  501    0  0.00000000000E+00 -0.00000000000E+00 -0.98957525638E+02  0.98957525638E+02  0.00000000000E+00 0. -1.
          5    1    1    2  502    0 -0.17777717490E+02  0.20652556779E+02  0.72857424337E+02  0.77928618759E+02  0.47000000000E+01 0.  1.
         -5    1    1    2    0  502  0.80102876548E+02 -0.48208394833E+01 -0.31453369316E-01  0.80385336436E+02  0.47000000000E+01 0.  1.
        -11    1    1    2    0    0 -0.49070069814E+02 -0.19506999534E+02  0.41714528911E+02  0.67294106018E+02  0.00000000000E+00 0.  1.
         11    1    1    2    0    0 -0.13255089244E+02  0.36752822388E+01 -0.42334449871E+02  0.44513040070E+02  0.00000000000E+00 0. -1.
<mgrwt>
<rscale>  0 0.13274961E+03</rscale>
<asrwt>0</asrwt>
<pdfrwt beam="2">  1        1 0.15224235E-01 0.14056915E+03</pdfrwt>
<pdfrwt beam="1">  1       -1 0.26332858E-01 0.14056915E+03</pdfrwt>
<totfact> 0.44689224E+03</totfact>
</mgrwt>
</event>
<event>
 6    1  0.7457796E-006  0.1269801E+03  0.7546771E-02  0.1247242E+00
         -2   -1    0    0    0  501 -0.00000000000E+00  0.00000000000E+00  0.13106906523E+03  0.13106906523E+03  0.00000000000E+00 0.  1.
          2   -1    0    0  501    0  0.00000000000E+00 -0.00000000000E+00 -0.94714010407E+02  0.94714010407E+02  0.00000000000E+00 0. -1.
          5    1    1    2  502    0 -0.51406231740E+02  0.26710198133E+02 -0.71723319221E+00  0.58126067900E+02  0.47000000000E+01 0. -1.
         -5    1    1    2    0  502  0.42309980791E+02 -0.47122099956E+02  0.38898351646E+02  0.74470118434E+02  0.47000000000E+01 0. -1.
        -11    1    1    2    0    0 -0.22894956787E+02  0.46265238922E+02 -0.53899243936E+01  0.51900892707E+02  0.00000000000E+00 0.  1.
         11    1    1    2    0    0  0.31991207736E+02 -0.25853337099E+02  0.35638607640E+01  0.41285996598E+02  0.00000000000E+00 0. -1.
<mgrwt>
<rscale>  0 0.11752213E+03</rscale>
<asrwt>0</asrwt>
<pdfrwt beam="2">  1        2 0.14571386E-01 0.12698012E+03</pdfrwt>
<pdfrwt beam="1">  1       -2 0.20164472E-01 0.12698012E+03</pdfrwt>
<totfact> 0.78521812E+03</totfact>
</mgrwt>
</event>
<event>
 6    1  0.7457796E-006  0.1405053E+03  0.7546771E-02  0.1222473E+00
          2   -1    0    0  501    0  0.00000000000E+00  0.00000000000E+00  0.55441250029E+02  0.55441250029E+02  0.00000000000E+00 0. -1.
         -2   -1    0    0    0  501 -0.00000000000E+00 -0.00000000000E+00 -0.30820739939E+03  0.30820739939E+03  0.00000000000E+00 0.  1.
          5    1    1    2  502    0  0.24564911902E+02 -0.32852947610E+02 -0.10576113989E+03  0.11353527987E+03  0.47000000000E+01 0. -1.
         -5    1    1    2    0  502 -0.86108558352E+02  0.14703210065E+02 -0.73715882366E+02  0.11439838076E+03  0.47000000000E+01 0. -1.
        -11    1    1    2    0    0 -0.15898314979E+02 -0.20003363068E+02 -0.29122185555E+02  0.38742646331E+02  0.00000000000E+00 0.  1.
         11    1    1    2    0    0  0.77441961430E+02  0.38153100614E+02 -0.44166941550E+02  0.96972342461E+02  0.00000000000E+00 0. -1.
<mgrwt>
<rscale>  0 0.13341650E+03</rscale>
<asrwt>0</asrwt>
<pdfrwt beam="1">  1        2 0.85294234E-02 0.14050535E+03</pdfrwt>
<pdfrwt beam="2">  1       -2 0.47416521E-01 0.14050535E+03</pdfrwt>
<totfact> 0.32117626E+03</totfact>
</mgrwt>
</event>
<event>
 6    1  0.7457796E-006  0.2080761E+03  0.7546771E-02  0.1146909E+00
          2   -1    0    0  501    0  0.00000000000E+00  0.00000000000E+00  0.16586628742E+03  0.16586628742E+03  0.00000000000E+00 0. -1.
         -2   -1    0    0    0  501 -0.00000000000E+00 -0.00000000000E+00 -0.26367418948E+03  0.26367418948E+03  0.00000000000E+00 0.  1.
          5    1    1    2  502    0  0.76858655526E+02 -0.13199344629E+03 -0.11242630023E+03  0.18971369423E+03  0.47000000000E+01 0. -1.
         -5    1    1    2    0  502  0.44802790446E+02  0.18552265509E+02 -0.44043487016E+01  0.48917940213E+02  0.47000000000E+01 0. -1.
        -11    1    1    2    0    0 -0.37302942904E+02  0.41158735573E+02  0.50893236059E+02  0.75337059538E+02  0.00000000000E+00 0. -1.
         11    1    1    2    0    0 -0.84358503068E+02  0.72282445212E+02 -0.31870489190E+02  0.11557178292E+03  0.00000000000E+00 0.  1.
<mgrwt>
<rscale>  0 0.20339086E+03</rscale>
<asrwt>0</asrwt>
<pdfrwt beam="1">  1        2 0.25517891E-01 0.20807608E+03</pdfrwt>
<pdfrwt beam="2">  1       -2 0.40565260E-01 0.20807608E+03</pdfrwt>
<totfact> 0.12110946E+03</totfact>
</mgrwt>
</event>
<event>
 6    1  0.7457796E-006  0.1513887E+03  0.7546771E-02  0.1207291E+00
         -1   -1    0    0    0  501 -0.00000000000E+00  0.00000000000E+00  0.34634916916E+02  0.34634916916E+02  0.00000000000E+00 0.  1.
          1   -1    0    0  501    0  0.00000000000E+00 -0.00000000000E+00 -0.61880724208E+03  0.61880724208E+03  0.00000000000E+00 0. -1.
          5    1    1    2  502    0 -0.32499163901E+02 -0.90472900379E+02 -0.81763167836E+02  0.12628874444E+03  0.47000000000E+01 0.  1.
         -5    1    1    2    0  502 -0.21341841400E+02  0.24176645929E+02 -0.13000200417E+03  0.13402460778E+03  0.47000000000E+01 0.  1.
        -11    1    1    2    0    0 -0.14732884864E+02 -0.13375642530E+02 -0.43577346699E+02  0.47905645333E+02  0.00000000000E+00 0.  1.
         11    1    1    2    0    0  0.68573890165E+02  0.79671896979E+02 -0.32882980646E+03  0.34522316144E+03  0.00000000000E+00 0. -1.
<mgrwt>
<rscale>  0 0.14458357E+03</rscale>
<asrwt>0</asrwt>
<pdfrwt beam="2">  1        1 0.95201113E-01 0.15138875E+03</pdfrwt>
<pdfrwt beam="1">  1       -1 0.53284488E-02 0.15138875E+03</pdfrwt>
<totfact> 0.52332146E+03</totfact>
</mgrwt>
</event>
<event>
 6    1  0.7457796E-006  0.1406267E+03  0.7546771E-02  0.1223106E+00
          2   -1    0    0  501    0  0.00000000000E+00  0.00000000000E+00  0.20810539265E+03  0.20810539265E+03  0.00000000000E+00 0.  1.
         -2   -1    0    0    0  501 -0.00000000000E+00 -0.00000000000E+00 -0.78865416786E+02  0.78865416786E+02  0.00000000000E+00 0. -1.
          5    1    1    2  502    0 -0.34383630060E+02 -0.85452577580E+02  0.57642446981E+02  0.10876175212E+03  0.47000000000E+01 0.  1.
         -5    1    1    2    0  502 -0.92046576696E+01  0.38002183702E+02 -0.83421053790E+01  0.40256333801E+02  0.47000000000E+01 0.  1.
        -11    1    1    2    0    0  0.36891347117E+02  0.32045065925E+02  0.10029218266E+03  0.11156334365E+03  0.00000000000E+00 0.  1.
         11    1    1    2    0    0  0.66969406136E+01  0.15405327953E+02 -0.20352548404E+02  0.26389379861E+02  0.00000000000E+00 0. -1.
<mgrwt>
<rscale>  0 0.13297556E+03</rscale>
<asrwt>0</asrwt>
<pdfrwt beam="1">  1        2 0.32016214E-01 0.14062669E+03</pdfrwt>
<pdfrwt beam="2">  1       -2 0.12133141E-01 0.14062669E+03</pdfrwt>
<totfact> 0.75343184E+03</totfact>
</mgrwt>
</event>
<event>
 6    1  0.7457796E-006  0.1505870E+03  0.7546771E-02  0.1210664E+00
          1   -1    0    0  501    0  0.00000000000E+00  0.00000000000E+00  0.41273592529E+03  0.41273592529E+03  0.00000000000E+00 0. -1.
         -1   -1    0    0    0  501 -0.00000000000E+00 -0.00000000000E+00 -0.57838911319E+02  0.57838911319E+02  0.00000000000E+00 0.  1.
          5    1    1    2  502    0 -0.47520231132E+01  0.22695476820E+02  0.73712430078E+02  0.77416269218E+02  0.47000000000E+01 0.  1.
         -5    1    1    2    0  502  0.88666249324E+02 -0.25772414735E+02  0.52177573639E+01  0.92602570819E+02  0.47000000000E+01 0.  1.
        -11    1    1    2    0    0 -0.75199636988E+02 -0.30211819564E+02  0.22418399875E+03  0.23838247574E+03  0.00000000000E+00 0.  1.
         11    1    1    2    0    0 -0.87145892225E+01  0.33288757479E+02  0.51782827783E+02  0.62173520835E+02  0.00000000000E+00 0. -1.
<mgrwt>
<rscale>  0 0.14199909E+03</rscale>
<asrwt>0</asrwt>
<pdfrwt beam="1">  1        1 0.63497833E-01 0.15058696E+03</pdfrwt>
<pdfrwt beam="2">  1       -1 0.88982943E-02 0.15058696E+03</pdfrwt>
<totfact> 0.41251683E+03</totfact>
</mgrwt>
</event>
<event>
 6    1  0.7457796E-006  0.1264033E+03  0.7546771E-02  0.1248879E+00
         -3   -1    0    0    0  501 -0.00000000000E+00  0.00000000000E+00  0.24692016924E+02  0.24692016924E+02  0.00000000000E+00 0.  1.
          3   -1    0    0  501    0  0.00000000000E+00 -0.00000000000E+00 -0.53684299985E+03  0.53684299985E+03  0.00000000000E+00 0. -1.
          5    1    1    2  502    0 -0.36132072595E+02  0.49363680608E+02 -0.68034746038E+02  0.91613952549E+02  0.47000000000E+01 0. -1.
         -5    1    1    2    0  502  0.18714557542E+02 -0.56378137542E+02 -0.13480045772E+03  0.14738379307E+03  0.47000000000E+01 0. -1.
        -11    1    1    2    0    0 -0.23992898136E+02  0.28348092015E+02 -0.20437758218E+03  0.20772450405E+03  0.00000000000E+00 0.  1.
         11    1    1    2    0    0  0.41410413189E+02 -0.21333635081E+02 -0.10493819697E+03  0.11481276710E+03  0.00000000000E+00 0. -1.
<mgrwt>
<rscale>  0 0.11656172E+03</rscale>
<asrwt>0</asrwt>
<pdfrwt beam="2">  1        3 0.82591225E-01 0.12640333E+03</pdfrwt>
<pdfrwt beam="1">  1       -3 0.37987721E-02 0.12640333E+03</pdfrwt>
<totfact> 0.11172091E+03</totfact>
</mgrwt>
</event>
<event>
 6    1  0.7457796E-006  0.4227499E+03  0.7546771E-02  0.1036175E+00
         -1   -1    0    0    0  501 -0.00000000000E+00  0.00000000000E+00  0.60099993303E+02  0.60099993303E+02  0.00000000000E+00 0.  1.
          1   -1    0    0  501    0  0.00000000000E+00 -0.00000000000E+00 -0.74341723751E+03  0.74341723751E+03  0.00000000000E+00 0. -1.
          5    1    1    2  502    0 -0.28814940481E+02 -0.37027297140E+01 -0.83070169197E+01  0.30579527994E+02  0.47000000000E+01 0.  1.
         -5    1    1    2    0  502  0.16375569489E+02  0.17114049986E+03 -0.21827144431E+03  0.27788800508E+03  0.47000000000E+01 0.  1.
        -11    1    1    2    0    0  0.12782848566E+01 -0.89411314798E+02 -0.12263377476E+03  0.15177305406E+03  0.00000000000E+00 0.  1.
         11    1    1    2    0    0  0.11161086135E+02 -0.78026455348E+02 -0.33410500822E+03  0.34327664368E+03  0.00000000000E+00 0. -1.
<mgrwt>
<rscale>  0 0.42274991E+03</rscale>
<asrwt>0</asrwt>
<pdfrwt beam="2">  1        1 0.11437188E+00 0.42274991E+03</pdfrwt>
<pdfrwt beam="1">  1       -1 0.92461529E-02 0.42274991E+03</pdfrwt>
<totfact> 0.17786023E+03</totfact>
</mgrwt>
</event>
<event>
 6    1  0.7457796E-006  0.1411161E+03  0.7546771E-02  0.1223063E+00
         -2   -1    0    0    0  501 -0.00000000000E+00  0.00000000000E+00  0.70185100664E+03  0.70185100664E+03  0.00000000000E+00 0.  1.
          2   -1    0    0  501    0  0.00000000000E+00 -0.00000000000E+00 -0.23697645139E+02  0.23697645139E+02  0.00000000000E+00 0. -1.
          5    1    1    2  502    0 -0.10065126228E+02  0.24244554467E+02  0.31359382907E+03  0.31472572952E+03  0.47000000000E+01 0. -1.
         -5    1    1    2    0  502 -0.40091777933E+02 -0.66359654749E+02  0.13745308436E+03  0.15788095147E+03  0.47000000000E+01 0. -1.
        -11    1    1    2    0    0 -0.12090123021E+02 -0.19802594111E+02  0.39558797949E+02  0.45860792660E+02  0.00000000000E+00 0.  1.
         11    1    1    2    0    0  0.62247027183E+02  0.61917694394E+02  0.18754765012E+03  0.20708117814E+03  0.00000000000E+00 0. -1.
<mgrwt>
<rscale>  0 0.13300569E+03</rscale>
<asrwt>0</asrwt>
<pdfrwt beam="2">  1        2 0.36457921E-02 0.14111611E+03</pdfrwt>
<pdfrwt beam="1">  1       -2 0.10797706E+00 0.14111611E+03</pdfrwt>
<totfact> 0.16580354E+03</totfact>
</mgrwt>
</event>
<event>
 6    1  0.7457796E-006  0.1491844E+03  0.7546771E-02  0.1211668E+00
         -2   -1    0    0    0  501 -0.00000000000E+00  0.00000000000E+00  0.14196628995E+03  0.14196628995E+03  0.00000000000E+00 0.  1.
          2   -1    0    0  501    0  0.00000000000E+00 -0.00000000000E+00 -0.13008876245E+03  0.13008876245E+03  0.00000000000E+00 0. -1.
          5    1    1    2  502    0 -0.97586131472E+02 -0.11348814839E+02  0.21167899280E+02  0.10060824327E+03  0.47000000000E+01 0.  1.
         -5    1    1    2    0  502  0.23309741711E+02  0.44637346491E+02  0.45937260199E+01  0.50784142004E+02  0.47000000000E+01 0.  1.
        -11    1    1    2    0    0  0.47733418772E+02  0.10495731341E+02 -0.40027356185E+02  0.63173007584E+02  0.00000000000E+00 0. -1.
         11    1    1    2    0    0  0.26542970989E+02 -0.43784262992E+02  0.26143258392E+02  0.57489659540E+02  0.00000000000E+00 0.  1.
<mgrwt>
<rscale>  0 0.14124149E+03</rscale>
<asrwt>0</asrwt>
<pdfrwt beam="2">  1        2 0.20013656E-01 0.14918443E+03</pdfrwt>
<pdfrwt beam="1">  1       -2 0.21840968E-01 0.14918443E+03</pdfrwt>
<totfact> 0.48068358E+03</totfact>
</mgrwt>
</event>
<event>
 6    1  0.7457796E-006  0.2189992E+03  0.7546771E-02  0.1137616E+00
          2   -1    0    0  501    0  0.00000000000E+00  0.00000000000E+00  0.90953448501E+03  0.90953448501E+03  0.00000000000E+00 0. -1.
         -2   -1    0    0    0  501 -0.00000000000E+00 -0.00000000000E+00 -0.99216375950E+02  0.99216375950E+02  0.00000000000E+00 0.  1.
          5    1    1    2  502    0  0.12752550651E+02 -0.12628738452E+02  0.10793636035E+02  0.21464043464E+02  0.47000000000E+01 0. -1.
         -5    1    1    2    0  502 -0.95263477825E+02  0.17519043580E+03  0.43307537975E+02  0.20411871998E+03  0.47000000000E+01 0.  1.
        -11    1    1    2    0    0  0.25789591668E+02 -0.13432813532E+03  0.44417644831E+03  0.46476001142E+03  0.00000000000E+00 0. -1.
         11    1    1    2    0    0  0.56721335505E+02 -0.28233562027E+02  0.31204048674E+03  0.31840808610E+03  0.00000000000E+00 0.  1.
<mgrwt>
<rscale>  0 0.21506636E+03</rscale>
<asrwt>0</asrwt>
<pdfrwt beam="1">  1        2 0.13992838E+00 0.21899919E+03</pdfrwt>
<pdfrwt beam="2">  1       -2 0.15264059E-01 0.21899919E+03</pdfrwt>
<totfact> 0.99903240E+02</totfact>
</mgrwt>
</event>
<event>
 6    1  0.7457796E-006  0.1509704E+03  0.7546771E-02  0.1203050E+00
          2   -1    0    0  501    0  0.00000000000E+00  0.00000000000E+00  0.27051303454E+03  0.27051303454E+03  0.00000000000E+00 0. -1.
         -2   -1    0    0    0  501 -0.00000000000E+00 -0.00000000000E+00 -0.77903183497E+02  0.77903183497E+02  0.00000000000E+00 0.  1.
          5    1    1    2  502    0  0.20143202364E+02  0.39051706063E+02  0.11939231166E+03  0.12730828108E+03  0.47000000000E+01 0.  1.
         -5    1    1    2    0  502  0.33542675922E+02  0.26405990053E+02 -0.26009328500E+02  0.50209188280E+02  0.47000000000E+01 0.  1.
        -11    1    1    2    0    0  0.12481544114E+02  0.24203014263E+02  0.25324071442E+02  0.37187140752E+02  0.00000000000E+00 0.  1.
         11    1    1    2    0    0 -0.66167422400E+02 -0.89660710380E+02  0.73902796445E+02  0.13371160793E+03  0.00000000000E+00 0. -1.
<mgrwt>
<rscale>  0 0.14792216E+03</rscale>
<asrwt>0</asrwt>
<pdfrwt beam="1">  1        2 0.41617390E-01 0.15097043E+03</pdfrwt>
<pdfrwt beam="2">  1       -2 0.11985105E-01 0.15097043E+03</pdfrwt>
<totfact> 0.58286236E+03</totfact>
</mgrwt>
</event>
<event>
 6    1  0.7457796E-006  0.1793610E+03  0.7546771E-02  0.1174274E+00
         -1   -1    0    0    0  501 -0.00000000000E+00  0.00000000000E+00  0.49469192828E+03  0.49469192828E+03  0.00000000000E+00 0.  1.
          1   -1    0    0  501    0  0.00000000000E+00 -0.00000000000E+00 -0.81998314469E+02  0.81998314469E+02  0.00000000000E+00 0. -1.
          5    1    1    2  502    0 -0.84540192146E+02 -0.66468995963E+00  0.10502878389E+03  0.13490967847E+03  0.47000000000E+01 0. -1.
         -5    1    1    2    0  502 -0.20941946689E+02  0.74233866801E+02  0.26936849144E+03  0.28023330690E+03  0.47000000000E+01 0. -1.
        -11    1    1    2    0    0  0.49498879474E+02 -0.48646175837E+02  0.64642659493E+02  0.94843359910E+02  0.00000000000E+00 0. -1.
         11    1    1    2    0    0  0.55983259361E+02 -0.24923001004E+02 -0.26346321007E+02  0.66703897475E+02  0.00000000000E+00 0.  1.
<mgrwt>
<rscale>  0 0.17347269E+03</rscale>
<asrwt>0</asrwt>
<pdfrwt beam="2">  1        1 0.12615126E-01 0.17936103E+03</pdfrwt>
<pdfrwt beam="1">  1       -1 0.76106449E-01 0.17936103E+03</pdfrwt>
<totfact> 0.84424216E+02</totfact>
</mgrwt>
</event>
<event>
 6    1  0.7457796E-006  0.1376054E+03  0.7546771E-02  0.1228343E+00
         -1   -1    0    0    0  501 -0.00000000000E+00  0.00000000000E+00  0.23896110466E+02  0.23896110466E+02  0.00000000000E+00 0.  1.
          1   -1    0    0  501    0  0.00000000000E+00 -0.00000000000E+00 -0.82155206273E+03  0.82155206273E+03  0.00000000000E+00 0. -1.
          5    1    1    2  502    0 -0.65736844238E+02 -0.10266582292E+02 -0.78547725112E+02  0.10304644837E+03  0.47000000000E+01 0. -1.
         -5    1    1    2    0  502  0.47350482502E+02 -0.44263451692E+02 -0.15421650512E+03  0.16735035644E+03  0.47000000000E+01 0. -1.
        -11    1    1    2    0    0 -0.33910145972E+02  0.40112824294E+02 -0.31389732069E+03  0.31826162918E+03  0.00000000000E+00 0.  1.
         11    1    1    2    0    0  0.52296507709E+02  0.14417209690E+02 -0.25099440134E+03  0.25678973920E+03  0.00000000000E+00 0. -1.
<mgrwt>
<rscale>  0 0.12940374E+03</rscale>
<asrwt>0</asrwt>
<pdfrwt beam="2">  1        1 0.12639262E+00 0.13760540E+03</pdfrwt>
<pdfrwt beam="1">  1       -1 0.36763247E-02 0.13760540E+03</pdfrwt>
<totfact> 0.59802569E+03</totfact>
</mgrwt>
</event>
<event>
 6    1  0.7457796E-006  0.1276123E+03  0.7546771E-02  0.1245062E+00
         -1   -1    0    0    0  501 -0.00000000000E+00  0.00000000000E+00  0.18940553556E+03  0.18940553556E+03  0.00000000000E+00 0.  1.
          1   -1    0    0  501    0  0.00000000000E+00 -0.00000000000E+00 -0.66138155021E+02  0.66138155021E+02  0.00000000000E+00 0. -1.
          5    1    1    2  502    0 -0.45273148008E+02 -0.61088256141E+02  0.45906072119E+02  0.88943186509E+02  0.47000000000E+01 0.  1.
         -5    1    1    2    0  502  0.28838062142E+02  0.41334805285E+02  0.17546583257E+02  0.53573991265E+02  0.47000000000E+01 0.  1.
        -11    1    1    2    0    0  0.36185264278E+02 -0.12428339271E+02 -0.44213058015E+01  0.38514736308E+02  0.00000000000E+00 0. -1.
         11    1    1    2    0    0 -0.19750178411E+02  0.32181790127E+02  0.64236030967E+02  0.74511776501E+02  0.00000000000E+00 0.  1.
<mgrwt>
<rscale>  0 0.11881640E+03</rscale>
<asrwt>0</asrwt>
<pdfrwt beam="2">  1        1 0.10175101E-01 0.12761233E+03</pdfrwt>
<pdfrwt beam="1">  1       -1 0.29139313E-01 0.12761233E+03</pdfrwt>
<totfact> 0.63576137E+03</totfact>
</mgrwt>
</event>
<event>
 6    1  0.7457796E-006  0.1559649E+03  0.7546771E-02  0.1194655E+00
         -2   -1    0    0    0  501 -0.00000000000E+00  0.00000000000E+00  0.41123544752E+03  0.41123544752E+03  0.00000000000E+00 0.  1.
          2   -1    0    0  501    0  0.00000000000E+00 -0.00000000000E+00 -0.10841087772E+03  0.10841087772E+03  0.00000000000E+00 0. -1.
          5    1    1    2  502    0  0.62084925941E+02  0.24263374079E+02  0.11825399336E+03  0.13582837074E+03  0.47000000000E+01 0. -1.
         -5    1    1    2    0  502  0.57836185538E+00 -0.82559140261E+02  0.21008989215E+03  0.22577909320E+03  0.47000000000E+01 0. -1.
        -11    1    1    2    0    0 -0.10081736596E+03  0.25406479768E+02 -0.64227948501E+01  0.10416757071E+03  0.00000000000E+00 0.  1.
         11    1    1    2    0    0  0.38154078168E+02  0.32889286413E+02 -0.19096520853E+02  0.53871290594E+02  0.00000000000E+00 0. -1.
<mgrwt>
<rscale>  0 0.15483479E+03</rscale>
<asrwt>0</asrwt>
<pdfrwt beam="2">  1        2 0.16678597E-01 0.15596489E+03</pdfrwt>
<pdfrwt beam="1">  1       -2 0.63266991E-01 0.15596489E+03</pdfrwt>
<totfact> 0.80321573E+02</totfact>
</mgrwt>
</event>
<event>
 6    1  0.1404303E-005  0.2119290E+03  0.7546771E-02  0.1143676E+00
          1   -1    0    0  501    0  0.00000000000E+00  0.00000000000E+00  0.14687398889E+04  0.14687398889E+04  0.00000000000E+00 0. -1.
         -1   -1    0    0    0  501 -0.00000000000E+00 -0.00000000000E+00 -0.28530143517E+02  0.28530143517E+02  0.00000000000E+00 0.  1.
          5    1    1    2  502    0 -0.49951666359E+02  0.74967404176E+02  0.35348959868E+03  0.36481812871E+03  0.47000000000E+01 0. -1.
         -5    1    1    2    0  502 -0.11437560694E+03 -0.27159576249E+02  0.30340023257E+03  0.32541237403E+03  0.47000000000E+01 0. -1.
        -11    1    1    2    0    0  0.37780380695E+02 -0.36247386546E+02  0.10988981604E+03  0.12172510779E+03  0.00000000000E+00 0.  1.
         11    1    1    2    0    0  0.12654689261E+03 -0.11560441381E+02  0.67343009809E+03  0.68531442189E+03  0.00000000000E+00 0. -1.
<mgrwt>
<rscale>  0 0.20735673E+03</rscale>
<asrwt>0</asrwt>
<pdfrwt beam="1">  1        1 0.22595992E+00 0.21192899E+03</pdfrwt>
<pdfrwt beam="2">  1       -1 0.43892540E-02 0.21192899E+03</pdfrwt>
<totfact> 0.16091406E+03</totfact>
</mgrwt>
</event>
<event>
 6    1  0.7457796E-006  0.1628027E+03  0.7546771E-02  0.1193659E+00
          2   -1    0    0  501    0  0.00000000000E+00  0.00000000000E+00  0.55404188333E+03  0.55404188333E+03  0.00000000000E+00 0. -1.
         -2   -1    0    0    0  501 -0.00000000000E+00 -0.00000000000E+00 -0.48845314124E+02  0.48845314124E+02  0.00000000000E+00 0.  1.
          5    1    1    2  502    0 -0.51535314943E+02  0.40435778589E+02  0.56692084365E+01  0.65917909559E+02  0.47000000000E+01 0. -1.
         -5    1    1    2    0  502 -0.52241898972E+02 -0.30237951062E+02  0.14004006707E+03  0.15256755906E+03  0.47000000000E+01 0. -1.
        -11    1    1    2    0    0  0.16059361737E+02  0.29739848486E+02  0.15067206081E+03  0.15441642269E+03  0.00000000000E+00 0. -1.
         11    1    1    2    0    0  0.87717852178E+02 -0.39937676013E+02  0.20881523289E+03  0.22998530615E+03  0.00000000000E+00 0.  1.
<mgrwt>
<rscale>  0 0.15568294E+03</rscale>
<asrwt>0</asrwt>
<pdfrwt beam="1">  1        2 0.85237209E-01 0.16280266E+03</pdfrwt>
<pdfrwt beam="2">  1       -2 0.75146641E-02 0.16280266E+03</pdfrwt>
<totfact> 0.56173852E+03</totfact>
</mgrwt>
</event>
<event>
 6    1  0.7457796E-006  0.2350980E+03  0.7546771E-02  0.1126059E+00
         -2   -1    0    0    0  501 -0.00000000000E+00  0.00000000000E+00  0.35190038923E+02  0.35190038923E+02  0.00000000000E+00 0.  1.
          2   -1    0    0  501    0  0.00000000000E+00 -0.00000000000E+00 -0.14700446374E+04  0.14700446374E+04  0.00000000000E+00 0. -1.
          5    1    1    2  502    0  0.10697557651E+02  0.13319482125E+03 -0.58098671125E+03  0.59617358781E+03  0.47000000000E+01 0.  1.
         -5    1    1    2    0  502 -0.38987423675E+02  0.63902050326E+02 -0.10542780832E+03  0.12938548608E+03  0.47000000000E+01 0.  1.
        -11    1    1    2    0    0  0.38968258756E+01 -0.19280762455E+03 -0.68307419198E+03  0.70977483549E+03  0.00000000000E+00 0.  1.
         11    1    1    2    0    0  0.24393040148E+02 -0.42892470289E+01 -0.65365886964E+02  0.69900766993E+02  0.00000000000E+00 0. -1.
<mgrwt>
<rscale>  0 0.23082740E+03</rscale>
<asrwt>0</asrwt>
<pdfrwt beam="2">  1        2 0.22616074E+00 0.23509802E+03</pdfrwt>
<pdfrwt beam="1">  1       -2 0.54138515E-02 0.23509802E+03</pdfrwt>
<totfact> 0.24549855E+03</totfact>
</mgrwt>
</event>
<event>
 6    1  0.7457796E-006  0.2104878E+03  0.7546771E-02  0.1144899E+00
         -4   -1    0    0    0  501 -0.00000000000E+00  0.00000000000E+00  0.17635682916E+03  0.17635682916E+03  0.00000000000E+00 0.  1.
          4   -1    0    0  501    0  0.00000000000E+00 -0.00000000000E+00 -0.34181182102E+03  0.34181182102E+03  0.00000000000E+00 0. -1.
          5    1    1    2  502    0 -0.12170149376E+03 -0.40463670963E+02 -0.23756401418E+03  0.27001354241E+03  0.47000000000E+01 0. -1.
         -5    1    1    2    0  502 -0.43491967489E+02  0.31558709109E+01  0.44310377285E+01  0.44082137568E+02  0.47000000000E+01 0. -1.
        -11    1    1    2    0    0  0.13230899282E+03 -0.11662295909E+02  0.54882486642E+02  0.14371418186E+03  0.00000000000E+00 0.  1.
         11    1    1    2    0    0  0.32884468433E+02  0.48970095961E+02  0.12795497950E+02  0.60358788344E+02  0.00000000000E+00 0. -1.
<mgrwt>
<rscale>  0 0.20584550E+03</rscale>
<asrwt>0</asrwt>
<pdfrwt beam="2">  1        4 0.52586434E-01 0.21048779E+03</pdfrwt>
<pdfrwt beam="1">  1       -4 0.27131820E-01 0.21048779E+03</pdfrwt>
<totfact> 0.80379312E+01</totfact>
</mgrwt>
</event>
<event>
 6    1  0.7457796E-006  0.1292452E+03  0.7546771E-02  0.1241164E+00
         -2   -1    0    0    0  501 -0.00000000000E+00  0.00000000000E+00  0.44722776956E+02  0.44722776956E+02  0.00000000000E+00 0.  1.
          2   -1    0    0  501    0  0.00000000000E+00 -0.00000000000E+00 -0.30719412412E+03  0.30719412412E+03  0.00000000000E+00 0. -1.
          5    1    1    2  502    0 -0.41526906120E+02  0.42181821551E+01 -0.85992610560E+02  0.95703166423E+02  0.47000000000E+01 0. -1.
         -5    1    1    2    0  502  0.64102360985E+02 -0.28099322533E+02 -0.24402301524E+02  0.74271440880E+02  0.47000000000E+01 0. -1.
        -11    1    1    2    0    0  0.35637660662E+02 -0.28939116902E+00 -0.69002757872E+02  0.77662778722E+02  0.00000000000E+00 0. -1.
         11    1    1    2    0    0 -0.58213115528E+02  0.24170531547E+02 -0.83073677209E+02  0.10427951505E+03  0.00000000000E+00 0.  1.
<mgrwt>
<rscale>  0 0.12117949E+03</rscale>
<asrwt>0</asrwt>
<pdfrwt beam="2">  1        2 0.47260635E-01 0.12924523E+03</pdfrwt>
<pdfrwt beam="1">  1       -2 0.68804272E-02 0.12924523E+03</pdfrwt>
<totfact> 0.11983991E+04</totfact>
</mgrwt>
</event>
<event>
 6    1  0.7457796E-006  0.2757961E+03  0.7546771E-02  0.1098007E+00
          1   -1    0    0  501    0  0.00000000000E+00  0.00000000000E+00  0.76329079003E+03  0.76329079003E+03  0.00000000000E+00 0. -1.
         -1   -1    0    0    0  501 -0.00000000000E+00 -0.00000000000E+00 -0.24913007066E+02  0.24913007066E+02  0.00000000000E+00 0.  1.
          5    1    1    2  502    0  0.94409947372E+02 -0.41305390496E+01  0.23824664750E+03  0.25634713683E+03  0.47000000000E+01 0.  1.
         -5    1    1    2    0  502 -0.28898843993E+02 -0.35295846941E+02  0.56098833030E+02  0.72457636331E+02  0.47000000000E+01 0.  1.
        -11    1    1    2    0    0 -0.55410574329E+02 -0.14009563717E+02  0.30098031429E+03  0.30635885692E+03  0.00000000000E+00 0. -1.
         11    1    1    2    0    0 -0.10100529051E+02  0.53435949708E+02  0.14305198814E+03  0.15304016701E+03  0.00000000000E+00 0.  1.
<mgrwt>
<rscale>  0 0.27579608E+03</rscale>
<asrwt>0</asrwt>
<pdfrwt beam="1">  1        1 0.11742933E+00 0.27579608E+03</pdfrwt>
<pdfrwt beam="2">  1       -1 0.38327709E-02 0.27579608E+03</pdfrwt>
<totfact> 0.64779068E+03</totfact>
</mgrwt>
</event>
<event>
 6    1  0.7457796E-006  0.2574068E+03  0.7546771E-02  0.1108711E+00
         -1   -1    0    0    0  501 -0.00000000000E+00  0.00000000000E+00  0.86853731736E+02  0.86853731736E+02  0.00000000000E+00 0.  1.
          1   -1    0    0  501    0  0.00000000000E+00 -0.00000000000E+00 -0.19071800966E+03  0.19071800966E+03  0.00000000000E+00 0. -1.
          5    1    1    2  502    0 -0.66901021094E+02  0.42910033106E+02 -0.62646471462E+02  0.10130986108E+03  0.47000000000E+01 0. -1.
         -5    1    1    2    0  502  0.25959426256E+02  0.71147933113E+01  0.32652668328E+02  0.42576975519E+02  0.47000000000E+01 0. -1.
        -11    1    1    2    0    0 -0.42836765972E+01 -0.59759539131E+02 -0.21128332598E+02  0.63529196758E+02  0.00000000000E+00 0.  1.
         11    1    1    2    0    0  0.45225271436E+02  0.97347127139E+01 -0.52742142194E+02  0.70155708045E+02  0.00000000000E+00 0. -1.
<mgrwt>
<rscale>  0 0.25740684E+03</rscale>
<asrwt>0</asrwt>
<pdfrwt beam="2">  1        1 0.29341232E-01 0.25740684E+03</pdfrwt>
<pdfrwt beam="1">  1       -1 0.13362113E-01 0.25740684E+03</pdfrwt>
<totfact> 0.59554404E+03</totfact>
</mgrwt>
</event>
<event>
 6    1  0.7457796E-006  0.1599986E+03  0.7546771E-02  0.1198109E+00
          4   -1    0    0  501    0  0.00000000000E+00  0.00000000000E+00  0.16308182779E+03  0.16308182779E+03  0.00000000000E+00 0. -1.
         -4   -1    0    0    0  501 -0.00000000000E+00 -0.00000000000E+00 -0.14328807278E+03  0.14328807278E+03  0.00000000000E+00 0.  1.
          5    1    1    2  502    0  0.71461759173E+02 -0.62703715958E+02 -0.58567029389E+02  0.11176191637E+03  0.47000000000E+01 0. -1.
         -5    1    1    2    0  502  0.25842675672E+02  0.40193198340E+02  0.21287675967E+02  0.52522302185E+02  0.47000000000E+01 0. -1.
        -11    1    1    2    0    0 -0.75092583252E+02 -0.22633892078E+02  0.24573724080E+02  0.82189154061E+02  0.00000000000E+00 0. -1.
         11    1    1    2    0    0 -0.22211851593E+02  0.45144409697E+02  0.32499384352E+02  0.59896527958E+02  0.00000000000E+00 0.  1.
<mgrwt>
<rscale>  0 0.15194013E+03</rscale>
<asrwt>0</asrwt>
<pdfrwt beam="1">  1        4 0.25089512E-01 0.15999861E+03</pdfrwt>
<pdfrwt beam="2">  1       -4 0.22044319E-01 0.15999861E+03</pdfrwt>
<totfact> 0.48137427E+02</totfact>
</mgrwt>
</event>
<event>
 6    1  0.7457796E-006  0.1498110E+03  0.7546771E-02  0.1209825E+00
          1   -1    0    0  501    0  0.00000000000E+00  0.00000000000E+00  0.23634465680E+03  0.23634465680E+03  0.00000000000E+00 0. -1.
         -1   -1    0    0    0  501 -0.00000000000E+00 -0.00000000000E+00 -0.35795396727E+03  0.35795396727E+03  0.00000000000E+00 0.  1.
          5    1    1    2  502    0 -0.11792830276E+02 -0.97133674379E+01  0.76674260445E+01  0.17728501771E+02  0.47000000000E+01 0.  1.
         -5    1    1    2    0  502 -0.73248958616E+01 -0.70610562310E+02 -0.33192145688E+03  0.33946052664E+03  0.47000000000E+01 0.  1.
        -11    1    1    2    0    0 -0.42394626912E+01  0.13983651650E+02 -0.68397373779E+01  0.16133739950E+02  0.00000000000E+00 0.  1.
         11    1    1    2    0    0  0.23357188829E+02  0.66340278098E+02  0.20948445774E+03  0.22097585570E+03  0.00000000000E+00 0. -1.
<mgrwt>
<rscale>  0 0.14263663E+03</rscale>
<asrwt>0</asrwt>
<pdfrwt beam="1">  1        1 0.36360716E-01 0.14981097E+03</pdfrwt>
<pdfrwt beam="2">  1       -1 0.55069841E-01 0.14981097E+03</pdfrwt>
<totfact> 0.41037851E+02</totfact>
</mgrwt>
</event>
<event>
 6    1  0.7457796E-006  0.2500647E+03  0.7546771E-02  0.1113264E+00
         -3   -1    0    0    0  501 -0.00000000000E+00  0.00000000000E+00  0.20307216000E+02  0.20307216000E+02  0.00000000000E+00 0.  1.
          3   -1    0    0  501    0  0.00000000000E+00 -0.00000000000E+00 -0.76982906305E+03  0.76982906305E+03  0.00000000000E+00 0. -1.
          5    1    1    2  502    0  0.10472736886E+02 -0.98986473431E+00  0.10867753077E+02  0.15838437644E+02  0.47000000000E+01 0. -1.
         -5    1    1    2    0  502  0.35550130308E+02  0.11679788264E+02 -0.30390175931E+03  0.30623291549E+03  0.47000000000E+01 0. -1.
        -11    1    1    2    0    0 -0.59999375363E+01 -0.47864538045E+02 -0.18921994912E+03  0.19527212397E+03  0.00000000000E+00 0. -1.
         11    1    1    2    0    0 -0.40022929657E+02  0.37174614515E+02 -0.26726789169E+03  0.27279280194E+03  0.00000000000E+00 0.  1.
<mgrwt>
<rscale>  0 0.25006467E+03</rscale>
<asrwt>0</asrwt>
<pdfrwt beam="2">  1        3 0.11843522E+00 0.25006467E+03</pdfrwt>
<pdfrwt beam="1">  1       -3 0.31241876E-02 0.25006467E+03</pdfrwt>
<totfact> 0.73531919E+02</totfact>
</mgrwt>
</event>
<event>
 6    1  0.7457796E-006  0.1608269E+03  0.7546771E-02  0.1195520E+00
         -1   -1    0    0    0  501 -0.00000000000E+00  0.00000000000E+00  0.13182107442E+03  0.13182107442E+03  0.00000000000E+00 0.  1.
          1   -1    0    0  501    0  0.00000000000E+00 -0.00000000000E+00 -0.21522685336E+03  0.21522685336E+03  0.00000000000E+00 0. -1.
          5    1    1    2  502    0  0.54166331582E+01  0.57168533209E+02  0.80774804618E+02  0.99218144334E+02  0.47000000000E+01 0.  1.
         -5    1    1    2    0  502 -0.27461226055E+02  0.41590850510E+02 -0.42992014420E+02  0.65987279732E+02  0.47000000000E+01 0.  1.
        -11    1    1    2    0    0  0.34273302057E+01  0.17399827203E+02 -0.12692568420E+02  0.21808298240E+02  0.00000000000E+00 0.  1.
         11    1    1    2    0    0  0.18617262691E+02 -0.11615921092E+03 -0.10849600072E+03  0.16003420548E+03  0.00000000000E+00 0. -1.
<mgrwt>
<rscale>  0 0.15410343E+03</rscale>
<asrwt>0</asrwt>
<pdfrwt beam="2">  1        1 0.33111823E-01 0.16082690E+03</pdfrwt>
<pdfrwt beam="1">  1       -1 0.20280166E-01 0.16082690E+03</pdfrwt>
<totfact> 0.25744354E+03</totfact>
</mgrwt>
</event>
<event>
 6    1  0.7457796E-006  0.1535180E+03  0.7546771E-02  0.1202024E+00
          1   -1    0    0  501    0  0.00000000000E+00  0.00000000000E+00  0.17532052628E+03  0.17532052628E+03  0.00000000000E+00 0. -1.
         -1   -1    0    0    0  501 -0.00000000000E+00 -0.00000000000E+00 -0.14143779924E+03  0.14143779924E+03  0.00000000000E+00 0.  1.
          5    1    1    2  502    0  0.75641772240E+02 -0.37416904775E+02 -0.52621008943E+02  0.99562859806E+02  0.47000000000E+01 0. -1.
         -5    1    1    2    0  502 -0.40185769875E+02 -0.44332009352E+02  0.74076847550E+01  0.60474680214E+02  0.47000000000E+01 0. -1.
        -11    1    1    2    0    0 -0.48501675788E+02  0.71465023849E+02  0.11521548866E+02  0.87134426470E+02  0.00000000000E+00 0.  1.
         11    1    1    2    0    0  0.13045673423E+02  0.10283890278E+02  0.67574502358E+02  0.69586359031E+02  0.00000000000E+00 0. -1.
<mgrwt>
<rscale>  0 0.14874463E+03</rscale>
<asrwt>0</asrwt>
<pdfrwt beam="1">  1        1 0.26972389E-01 0.15351798E+03</pdfrwt>
<pdfrwt beam="2">  1       -1 0.21759661E-01 0.15351798E+03</pdfrwt>
<totfact> 0.29620737E+03</totfact>
</mgrwt>
</event>
<event>
 6    1  0.7457796E-006  0.1301376E+03  0.7546771E-02  0.1240730E+00
         -1   -1    0    0    0  501 -0.00000000000E+00  0.00000000000E+00  0.78285680200E+02  0.78285680200E+02  0.00000000000E+00 0.  1.
          1   -1    0    0  501    0  0.00000000000E+00 -0.00000000000E+00 -0.17127465094E+03  0.17127465094E+03  0.00000000000E+00 0. -1.
          5    1    1    2  502    0  0.77725024124E+01 -0.68528949646E+02 -0.86468716033E+02  0.11070482187E+03  0.47000000000E+01 0.  1.
         -5    1    1    2    0  502 -0.11705324596E+02  0.32540703679E+02  0.14747224103E+02  0.37887763705E+02  0.47000000000E+01 0.  1.
        -11    1    1    2    0    0 -0.34271678280E+01  0.63799928344E+02 -0.30438842242E+02  0.70772165807E+02  0.00000000000E+00 0. -1.
         11    1    1    2    0    0  0.73599900116E+01 -0.27811682377E+02  0.91713634324E+01  0.30195579756E+02  0.00000000000E+00 0.  1.
<mgrwt>
<rscale>  0 0.12144622E+03</rscale>
<asrwt>0</asrwt>
<pdfrwt beam="2">  1        1 0.26349946E-01 0.13013756E+03</pdfrwt>
<pdfrwt beam="1">  1       -1 0.12043951E-01 0.13013756E+03</pdfrwt>
<totfact> 0.76881284E+03</totfact>
</mgrwt>
</event>
<event>
 6    1  0.7457796E-006  0.1361162E+03  0.7546771E-02  0.1231128E+00
         -2   -1    0    0    0  501 -0.00000000000E+00  0.00000000000E+00  0.11923304279E+02  0.11923304279E+02  0.00000000000E+00 0.  1.
          2   -1    0    0  501    0  0.00000000000E+00 -0.00000000000E+00 -0.12234563531E+04  0.12234563531E+04  0.00000000000E+00 0. -1.
          5    1    1    2  502    0 -0.26037104112E+02 -0.56337891873E+01 -0.28723507259E+02  0.39456307993E+02  0.47000000000E+01 0. -1.
         -5    1    1    2    0  502  0.26900079252E+02  0.59477663783E+02 -0.61676923100E+03  0.62023187685E+03  0.47000000000E+01 0. -1.
        -11    1    1    2    0    0 -0.38803807614E+02 -0.54560563874E+02 -0.37140155181E+03  0.37738800101E+03  0.00000000000E+00 0. -1.
         11    1    1    2    0    0  0.37940832474E+02  0.71668927776E+00 -0.19463875871E+03  0.19830347149E+03  0.00000000000E+00 0.  1.
<mgrwt>
<rscale>  0 0.12755585E+03</rscale>
<asrwt>0</asrwt>
<pdfrwt beam="2">  1        2 0.18822403E+00 0.13611622E+03</pdfrwt>
<pdfrwt beam="1">  1       -2 0.18343547E-02 0.13611622E+03</pdfrwt>
<totfact> 0.16367132E+04</totfact>
</mgrwt>
</event>
<event>
 6    1  0.7457796E-006  0.3704971E+03  0.7546771E-02  0.1054503E+00
          1   -1    0    0  501    0  0.00000000000E+00  0.00000000000E+00  0.55018285893E+03  0.55018285893E+03  0.00000000000E+00 0. -1.
         -1   -1    0    0    0  501 -0.00000000000E+00 -0.00000000000E+00 -0.62373863583E+02  0.62373863583E+02  0.00000000000E+00 0.  1.
          5    1    1    2  502    0  0.12090751291E+02 -0.20835370792E+02  0.21277134338E+02  0.32482385819E+02  0.47000000000E+01 0. -1.
         -5    1    1    2    0  502 -0.73580522387E+02  0.14230186626E+03  0.13227652504E+03  0.20780539813E+03  0.47000000000E+01 0. -1.
        -11    1    1    2    0    0 -0.18716587111E+02 -0.41451247695E+02  0.14210369499E+03  0.14920447949E+03  0.00000000000E+00 0. -1.
         11    1    1    2    0    0  0.80206358207E+02 -0.80015247773E+02  0.19215164097E+03  0.22306445907E+03  0.00000000000E+00 0.  1.
<mgrwt>
<rscale>  0 0.37049713E+03</rscale>
<asrwt>0</asrwt>
<pdfrwt beam="1">  1        1 0.84643513E-01 0.37049713E+03</pdfrwt>
<pdfrwt beam="2">  1       -1 0.95959794E-02 0.37049713E+03</pdfrwt>
<totfact> 0.25870927E+03</totfact>
</mgrwt>
</event>
<event>
 6    1  0.7457796E-006  0.2403372E+03  0.7546771E-02  0.1119568E+00
         -2   -1    0    0    0  501 -0.00000000000E+00  0.00000000000E+00  0.25775405345E+02  0.25775405345E+02  0.00000000000E+00 0.  1.
          2   -1    0    0  501    0  0.00000000000E+00 -0.00000000000E+00 -0.56024301892E+03  0.56024301892E+03  0.00000000000E+00 0. -1.
          5    1    1    2  502    0 -0.12616718108E+02  0.34602225610E+02 -0.55789132825E+01  0.37546103212E+02  0.47000000000E+01 0.  1.
         -5    1    1    2    0  502  0.72566558102E+00  0.12203501674E+02 -0.25621918304E+03  0.25655372108E+03  0.47000000000E+01 0.  1.
        -11    1    1    2    0    0 -0.20589641505E+02 -0.36697296148E+02 -0.24349534768E+03  0.24710445003E+03  0.00000000000E+00 0. -1.
         11    1    1    2    0    0  0.32480694032E+02 -0.10108431136E+02 -0.29174169572E+02  0.44814149943E+02  0.00000000000E+00 0.  1.
<mgrwt>
<rscale>  0 0.24033719E+03</rscale>
<asrwt>0</asrwt>
<pdfrwt beam="2">  1        2 0.86191239E-01 0.24033719E+03</pdfrwt>
<pdfrwt beam="1">  1       -2 0.39654467E-02 0.24033719E+03</pdfrwt>
<totfact> 0.15011984E+04</totfact>
</mgrwt>
</event>
<event>
 6    1  0.7457796E-006  0.2831344E+03  0.7546771E-02  0.1093989E+00
         -2   -1    0    0    0  501 -0.00000000000E+00  0.00000000000E+00  0.65641716870E+02  0.65641716870E+02  0.00000000000E+00 0.  1.
          2   -1    0    0  501    0  0.00000000000E+00 -0.00000000000E+00 -0.30531294749E+03  0.30531294749E+03  0.00000000000E+00 0. -1.
          5    1    1    2  502    0  0.93327530528E+02  0.16869713120E+02 -0.13506029627E+03  0.16509993581E+03  0.47000000000E+01 0. -1.
         -5    1    1    2    0  502 -0.83110924865E+01  0.11489718769E+02  0.21436583394E+02  0.26128624214E+02  0.47000000000E+01 0. -1.
        -11    1    1    2    0    0 -0.64416646914E+02 -0.72065303146E+01 -0.13425247707E+03  0.14908107217E+03  0.00000000000E+00 0. -1.
         11    1    1    2    0    0 -0.20599791128E+02 -0.21152901575E+02  0.82049593232E+01  0.30645032175E+02  0.00000000000E+00 0.  1.
<mgrwt>
<rscale>  0 0.28313436E+03</rscale>
<asrwt>0</asrwt>
<pdfrwt beam="2">  1        2 0.46971223E-01 0.28313436E+03</pdfrwt>
<pdfrwt beam="1">  1       -2 0.10098726E-01 0.28313436E+03</pdfrwt>
<totfact> 0.69667028E+03</totfact>
</mgrwt>
</event>
<event>
 6    1  0.7457796E-006  0.1286344E+03  0.7546771E-02  0.1241377E+00
         -2   -1    0    0    0  501 -0.00000000000E+00  0.00000000000E+00  0.14060333428E+02  0.14060333428E+02  0.00000000000E+00 0.  1.
          2   -1    0    0  501    0  0.00000000000E+00 -0.00000000000E+00 -0.99003206133E+03  0.99003206133E+03  0.00000000000E+00 0. -1.
          5    1    1    2  502    0 -0.26393843217E+02 -0.13279659999E+02 -0.23522187981E+02  0.38057425778E+02  0.47000000000E+01 0.  1.
         -5    1    1    2    0  502  0.55946515136E+02  0.20230046160E+02 -0.40443263281E+03  0.40881182934E+03  0.47000000000E+01 0.  1.
        -11    1    1    2    0    0 -0.59252325336E+02  0.17899977282E+02 -0.35586999609E+03  0.36121282004E+03  0.00000000000E+00 0.  1.
         11    1    1    2    0    0  0.29699653417E+02 -0.24850363443E+02 -0.19214691102E+03  0.19601031960E+03  0.00000000000E+00 0. -1.
<mgrwt>
<rscale>  0 0.12104869E+03</rscale>
<asrwt>0</asrwt>
<pdfrwt beam="2">  1        2 0.15231268E+00 0.12863438E+03</pdfrwt>
<pdfrwt beam="1">  1       -2 0.21631274E-02 0.12863438E+03</pdfrwt>
<totfact> 0.17453817E+04</totfact>
</mgrwt>
</event>
<event>
 6    1  0.7457796E-006  0.3588459E+03  0.7546771E-02  0.1059042E+00
          2   -1    0    0  501    0  0.00000000000E+00  0.00000000000E+00  0.23427657667E+03  0.23427657667E+03  0.00000000000E+00 0. -1.
         -2   -1    0    0    0  501 -0.00000000000E+00 -0.00000000000E+00 -0.13741276736E+03  0.13741276736E+03  0.00000000000E+00 0.  1.
          5    1    1    2  502    0 -0.18668137241E+02  0.13522147258E+02 -0.83229149934E+01  0.24954132494E+02  0.47000000000E+01 0.  1.
         -5    1    1    2    0  502  0.91841588569E+02 -0.13202018873E+03  0.26555979798E+02  0.16306905803E+03  0.47000000000E+01 0.  1.
        -11    1    1    2    0    0 -0.31165670698E+02  0.89854811833E+02  0.63815420066E+01  0.95320041534E+02  0.00000000000E+00 0.  1.
         11    1    1    2    0    0 -0.42007780630E+02  0.28643229642E+02  0.72249202502E+02  0.88346111969E+02  0.00000000000E+00 0. -1.
<mgrwt>
<rscale>  0 0.35884589E+03</rscale>
<asrwt>0</asrwt>
<pdfrwt beam="1">  1        2 0.36042550E-01 0.35884589E+03</pdfrwt>
<pdfrwt beam="2">  1       -2 0.21140426E-01 0.35884589E+03</pdfrwt>
<totfact> 0.27468950E+03</totfact>
</mgrwt>
</event>
<event>
 6    1  0.7457796E-006  0.1136707E+03  0.7546771E-02  0.1264209E+00
         -1   -1    0    0    0  501 -0.00000000000E+00  0.00000000000E+00  0.65290824934E+02  0.65290824934E+02  0.00000000000E+00 0.  1.
          1   -1    0    0  501    0  0.00000000000E+00 -0.00000000000E+00 -0.25122438851E+03  0.25122438851E+03  0.00000000000E+00 0. -1.
          5    1    1    2  502    0 -0.56554480980E+02  0.30711165547E+01 -0.24200826129E+02  0.61770632676E+02  0.47000000000E+01 0. -1.
         -5    1    1    2    0  502  0.47693555783E+02 -0.84310897451E+01  0.18461344232E+02  0.52044882250E+02  0.47000000000E+01 0.  1.
        -11    1    1    2    0    0  0.37038269989E+02  0.35447542226E+02 -0.91196082759E+02  0.10461877080E+03  0.00000000000E+00 0.  1.
         11    1    1    2    0    0 -0.28177344792E+02 -0.30087569036E+02 -0.88997998918E+02  0.98080927715E+02  0.00000000000E+00 0. -1.
<mgrwt>
<rscale>  0 0.10805816E+03</rscale>
<asrwt>0</asrwt>
<pdfrwt beam="2">  1        1 0.38649906E-01 0.11367071E+03</pdfrwt>
<pdfrwt beam="1">  1       -1 0.10044742E-01 0.11367071E+03</pdfrwt>
<totfact> 0.62561945E+03</totfact>
</mgrwt>
</event>
<event>
 6    1  0.7457796E-006  0.1310013E+03  0.7546771E-02  0.1236659E+00
          3   -1    0    0  501    0  0.00000000000E+00  0.00000000000E+00  0.25635276449E+03  0.25635276449E+03  0.00000000000E+00 0. -1.
         -3   -1    0    0    0  501 -0.00000000000E+00 -0.00000000000E+00 -0.58064119889E+02  0.58064119889E+02  0.00000000000E+00 0.  1.
          5    1    1    2  502    0 -0.54143684367E+02 -0.63706186018E+01  0.40534201962E+02  0.68097245663E+02  0.47000000000E+01 0.  1.
         -5    1    1    2    0  502  0.59441928323E+02  0.45213437900E+02  0.29370864574E+02  0.80388652777E+02  0.47000000000E+01 0.  1.
        -11    1    1    2    0    0 -0.39519555559E+02 -0.14782561783E+02  0.14514030136E+02  0.44620359426E+02  0.00000000000E+00 0.  1.
         11    1    1    2    0    0  0.34221311603E+02 -0.24060257515E+02  0.11386954793E+03  0.12131062651E+03  0.00000000000E+00 0. -1.
<mgrwt>
<rscale>  0 0.12398830E+03</rscale>
<asrwt>0</asrwt>
<pdfrwt beam="1">  1        3 0.39438886E-01 0.13100131E+03</pdfrwt>
<pdfrwt beam="2">  1       -3 0.89329416E-02 0.13100131E+03</pdfrwt>
<totfact> 0.12995720E+03</totfact>
</mgrwt>
</event>
<event>
 6    1  0.7616408E-006  0.2008033E+03  0.7546771E-02  0.1153388E+00
          1   -1    0    0  501    0  0.00000000000E+00  0.00000000000E+00  0.24682002568E+03  0.24682002568E+03  0.00000000000E+00 0. -1.
         -1   -1    0    0    0  501 -0.00000000000E+00 -0.00000000000E+00 -0.16858541249E+03  0.16858541249E+03  0.00000000000E+00 0.  1.
          5    1    1    2  502    0 -0.45767039540E+01 -0.76175150561E+02 -0.67205665792E+02  0.10179534025E+03  0.47000000000E+01 0. -1.
         -5    1    1    2    0  502  0.65848327574E+02 -0.68538806016E+02  0.35358116600E+02  0.10151776487E+03  0.47000000000E+01 0. -1.
        -11    1    1    2    0    0 -0.18697965967E+02  0.71394487474E+02  0.83681169284E+00  0.73807093336E+02  0.00000000000E+00 0.  1.
         11    1    1    2    0    0 -0.42573657653E+02  0.73319469103E+02  0.10924535069E+03  0.13828523972E+03  0.00000000000E+00 0. -1.
<mgrwt>
<rscale>  0 0.19573564E+03</rscale>
<asrwt>0</asrwt>
<pdfrwt beam="1">  1        1 0.37972312E-01 0.20080327E+03</pdfrwt>
<pdfrwt beam="2">  1       -1 0.25936217E-01 0.20080327E+03</pdfrwt>
<totfact> 0.14594204E+03</totfact>
</mgrwt>
</event>
<event>
 6    1  0.7457796E-006  0.1440135E+03  0.7546771E-02  0.1219615E+00
          2   -1    0    0  501    0  0.00000000000E+00  0.00000000000E+00  0.22154131378E+03  0.22154131378E+03  0.00000000000E+00 0. -1.
         -2   -1    0    0    0  501 -0.00000000000E+00 -0.00000000000E+00 -0.79416424441E+02  0.79416424441E+02  0.00000000000E+00 0.  1.
          5    1    1    2  502    0 -0.19614265993E+02  0.57134555800E+02 -0.28663002911E+02  0.67027864599E+02  0.47000000000E+01 0.  1.
         -5    1    1    2    0  502 -0.40159082446E+02 -0.17853471754E+02  0.70025323740E+02  0.82807815582E+02  0.47000000000E+01 0.  1.
        -11    1    1    2    0    0  0.18907629477E+02 -0.13715789253E+02 -0.13590474614E+02  0.27024476452E+02  0.00000000000E+00 0.  1.
         11    1    1    2    0    0  0.40865718962E+02 -0.25565294792E+02  0.11435304312E+03  0.12409758159E+03  0.00000000000E+00 0. -1.
<mgrwt>
<rscale>  0 0.13542935E+03</rscale>
<asrwt>0</asrwt>
<pdfrwt beam="1">  1        2 0.34083279E-01 0.14401350E+03</pdfrwt>
<pdfrwt beam="2">  1       -2 0.12217912E-01 0.14401350E+03</pdfrwt>
<totfact> 0.69766672E+03</totfact>
</mgrwt>
</event>
<event>
 6    1  0.7457796E-006  0.4303498E+03  0.7546771E-02  0.1033750E+00
          1   -1    0    0  501    0  0.00000000000E+00  0.00000000000E+00  0.66190365838E+03  0.66190365838E+03  0.00000000000E+00 0. -1.
         -1   -1    0    0    0  501 -0.00000000000E+00 -0.00000000000E+00 -0.69950108180E+02  0.69950108180E+02  0.00000000000E+00 0.  1.
          5    1    1    2  502    0  0.40788698812E+02  0.44544318011E+02  0.19838043450E+03  0.20742420546E+03  0.47000000000E+01 0. -1.
         -5    1    1    2    0  502 -0.30283566863E+02 -0.34806672187E+02 -0.18900071318E+02  0.50078953129E+02  0.47000000000E+01 0.  1.
        -11    1    1    2    0    0 -0.92877216680E+02  0.56361281662E+02  0.11279286936E+03  0.15660460666E+03  0.00000000000E+00 0.  1.
         11    1    1    2    0    0  0.82372084730E+02 -0.66098927487E+02  0.29968031766E+03  0.31774600131E+03  0.00000000000E+00 0. -1.
<mgrwt>
<rscale>  0 0.43034978E+03</rscale>
<asrwt>0</asrwt>
<pdfrwt beam="1">  1        1 0.10183133E+00 0.43034978E+03</pdfrwt>
<pdfrwt beam="2">  1       -1 0.10761556E-01 0.43034978E+03</pdfrwt>
<totfact> 0.16668959E+03</totfact>
</mgrwt>
</event>
<event>
 6    1  0.7457796E-006  0.2401118E+03  0.7546771E-02  0.1119718E+00
         -1   -1    0    0    0  501 -0.00000000000E+00  0.00000000000E+00  0.52528768681E+02  0.52528768681E+02  0.00000000000E+00 0.  1.
          1   -1    0    0  501    0  0.00000000000E+00 -0.00000000000E+00 -0.27439089791E+03  0.27439089791E+03  0.00000000000E+00 0. -1.
          5    1    1    2  502    0  0.37605574873E+02 -0.24154280390E+02  0.21781070417E+02  0.49941100821E+02  0.47000000000E+01 0.  1.
         -5    1    1    2    0  502  0.11745810206E+01 -0.28668130813E+01 -0.11010784630E+03  0.11025164885E+03  0.47000000000E+01 0.  1.
        -11    1    1    2    0    0 -0.54469523738E+02  0.24507676894E+02 -0.40079625461E+02  0.71930046713E+02  0.00000000000E+00 0.  1.
         11    1    1    2    0    0  0.15689367844E+02  0.25134165769E+01 -0.93455727881E+02  0.94796870201E+02  0.00000000000E+00 0. -1.
<mgrwt>
<rscale>  0 0.24011177E+03</rscale>
<asrwt>0</asrwt>
<pdfrwt beam="2">  1        1 0.42213984E-01 0.24011177E+03</pdfrwt>
<pdfrwt beam="1">  1       -1 0.80813492E-02 0.24011177E+03</pdfrwt>
<totfact> 0.81888520E+03</totfact>
</mgrwt>
</event>
<event>
 6    1  0.7457796E-006  0.2351523E+03  0.7546771E-02  0.1123065E+00
         -1   -1    0    0    0  501 -0.00000000000E+00  0.00000000000E+00  0.62425471910E+03  0.62425471910E+03  0.00000000000E+00 0.  1.
          1   -1    0    0  501    0  0.00000000000E+00 -0.00000000000E+00 -0.22145048903E+02  0.22145048903E+02  0.00000000000E+00 0. -1.
          5    1    1    2  502    0 -0.33341101473E+01  0.12591759467E+02 -0.43610035014E+01  0.14518162710E+02  0.47000000000E+01 0. -1.
         -5    1    1    2    0  502 -0.29226012535E+02 -0.55902858827E+02  0.29199070834E+03  0.29876404267E+03  0.47000000000E+01 0.  1.
        -11    1    1    2    0    0  0.23492913558E+02  0.65151174755E+02  0.29331881618E+03  0.30138434014E+03  0.00000000000E+00 0. -1.
         11    1    1    2    0    0  0.90672091243E+01 -0.21840075395E+02  0.21161149186E+02  0.31733222488E+02  0.00000000000E+00 0.  1.
<mgrwt>
<rscale>  0 0.23515230E+03</rscale>
<asrwt>0</asrwt>
<pdfrwt beam="2">  1        1 0.34069311E-02 0.23515230E+03</pdfrwt>
<pdfrwt beam="1">  1       -1 0.96039174E-01 0.23515230E+03</pdfrwt>
<totfact> 0.31151176E+03</totfact>
</mgrwt>
</event>
<event>
 6    1  0.7457796E-006  0.1359309E+03  0.7546771E-02  0.1231593E+00
         -1   -1    0    0    0  501 -0.00000000000E+00  0.00000000000E+00  0.50893110918E+03  0.50893110918E+03  0.00000000000E+00 0. -1.
          1   -1    0    0  501    0  0.00000000000E+00 -0.00000000000E+00 -0.31923902704E+02  0.31923902704E+02  0.00000000000E+00 0.  1.
          5    1    1    2  502    0 -0.75585875682E+02  0.20393342385E+02  0.33206238377E+03  0.34119881262E+03  0.47000000000E+01 0.  1.
         -5    1    1    2    0  502  0.22227317693E+02 -0.22267340432E+02  0.23764706125E+02  0.39708177482E+02  0.47000000000E+01 0.  1.
        -11    1    1    2    0    0  0.36344588453E+02  0.18931440712E+02  0.49852001637E+01  0.41281724503E+02  0.00000000000E+00 0.  1.
         11    1    1    2    0    0  0.17013969536E+02 -0.17057442666E+02  0.11619491641E+03  0.11866629728E+03  0.00000000000E+00 0. -1.
<mgrwt>
<rscale>  0 0.12725088E+03</rscale>
<asrwt>0</asrwt>
<pdfrwt beam="2">  1        1 0.49113700E-02 0.13593093E+03</pdfrwt>
<pdfrwt beam="1">  1       -1 0.78297087E-01 0.13593093E+03</pdfrwt>
<totfact> 0.28095770E+03</totfact>
</mgrwt>
</event>
<event>
 6    1  0.7457796E-006  0.1319930E+03  0.7546771E-02  0.1237915E+00
         -1   -1    0    0    0  501 -0.00000000000E+00  0.00000000000E+00  0.10419704189E+03  0.10419704189E+03  0.00000000000E+00 0.  1.
          1   -1    0    0  501    0  0.00000000000E+00 -0.00000000000E+00 -0.12998740785E+03  0.12998740785E+03  0.00000000000E+00 0. -1.
          5    1    1    2  502    0  0.49545236201E+01 -0.67072060064E+02 -0.35691881368E+02  0.76283739690E+02  0.47000000000E+01 0.  1.
         -5    1    1    2    0  502  0.31904403607E+02  0.46106103105E+02  0.12741425127E+02  0.57689666556E+02  0.47000000000E+01 0.  1.
        -11    1    1    2    0    0 -0.32063747428E+02 -0.99656769497E+01  0.36725640750E+02  0.49761142518E+02  0.00000000000E+00 0.  1.
         11    1    1    2    0    0 -0.47951797982E+01  0.30931633908E+02 -0.39565550468E+02  0.50449900984E+02  0.00000000000E+00 0. -1.
<mgrwt>
<rscale>  0 0.12319652E+03</rscale>
<asrwt>0</asrwt>
<pdfrwt beam="2">  1        1 0.19998063E-01 0.13199299E+03</pdfrwt>
<pdfrwt beam="1">  1       -1 0.16030314E-01 0.13199299E+03</pdfrwt>
<totfact> 0.69795706E+03</totfact>
</mgrwt>
</event>
<event>
 6    1  0.7457796E-006  0.1333901E+03  0.7546771E-02  0.1236473E+00
          1   -1    0    0  501    0  0.00000000000E+00  0.00000000000E+00  0.65576337938E+02  0.65576337938E+02  0.00000000000E+00 0. -1.
         -1   -1    0    0    0  501 -0.00000000000E+00 -0.00000000000E+00 -0.20792475883E+03  0.20792475883E+03  0.00000000000E+00 0.  1.
          5    1    1    2  502    0 -0.65882133361E+02  0.46915200265E+02 -0.77968569860E+02  0.11243967004E+03  0.47000000000E+01 0.  1.
         -5    1    1    2    0  502  0.39835158616E+02 -0.82912514517E+01  0.21069585735E+01  0.41013582958E+02  0.47000000000E+01 0.  1.
        -11    1    1    2    0    0 -0.32401822764E+01 -0.61499903697E+02 -0.50286980413E+02  0.79507970261E+02  0.00000000000E+00 0.  1.
         11    1    1    2    0    0  0.29287157022E+02  0.22875954884E+02 -0.16199829187E+02  0.40539873507E+02  0.00000000000E+00 0. -1.
<mgrwt>
<rscale>  0 0.12410627E+03</rscale>
<asrwt>0</asrwt>
<pdfrwt beam="1">  1        1 0.10088668E-01 0.13339009E+03</pdfrwt>
<pdfrwt beam="2">  1       -1 0.31988424E-01 0.13339009E+03</pdfrwt>
<totfact> 0.55136538E+03</totfact>
</mgrwt>
</event>
<event>
 6    1  0.7457796E-006  0.1688726E+03  0.7546771E-02  0.1195960E+00
         -2   -1    0    0    0  501 -0.00000000000E+00  0.00000000000E+00  0.48276305448E+03  0.48276305448E+03  0.00000000000E+00 0.  1.
          2   -1    0    0  501    0  0.00000000000E+00 -0.00000000000E+00 -0.12365341573E+03  0.12365341573E+03  0.00000000000E+00 0. -1.
          5    1    1    2  502    0  0.17545440645E+01 -0.34931941397E+02  0.11479498349E+02  0.37110481498E+02  0.47000000000E+01 0. -1.
         -5    1    1    2    0  502 -0.60985727415E+02  0.36586061734E+02  0.42431999454E+03  0.43026427533E+03  0.47000000000E+01 0.  1.
        -11    1    1    2    0    0 -0.17912710236E+02  0.17451265273E+02  0.45207448482E+01  0.25413559011E+02  0.00000000000E+00 0.  1.
         11    1    1    2    0    0  0.77143893587E+02 -0.19105385609E+02 -0.81210598993E+02  0.11362815437E+03  0.00000000000E+00 0. -1.
<mgrwt>
<rscale>  0 0.15373220E+03</rscale>
<asrwt>0</asrwt>
<pdfrwt beam="2">  1        2 0.19023603E-01 0.16887263E+03</pdfrwt>
<pdfrwt beam="1">  1       -2 0.74271238E-01 0.16887263E+03</pdfrwt>
<totfact> 0.49199004E+02</totfact>
</mgrwt>
</event>
<event>
 6    1  0.7457796E-006  0.1349230E+03  0.7546771E-02  0.1227851E+00
         -2   -1    0    0    0  501 -0.00000000000E+00  0.00000000000E+00  0.44558726351E+03  0.44558726351E+03  0.00000000000E+00 0.  1.
          2   -1    0    0  501    0  0.00000000000E+00 -0.00000000000E+00 -0.63765489987E+02  0.63765489987E+02  0.00000000000E+00 0. -1.
          5    1    1    2  502    0  0.17705521279E+02 -0.27210347264E+02  0.29969740731E+02  0.44431563572E+02  0.47000000000E+01 0. -1.
         -5    1    1    2    0  502 -0.78715830914E+02  0.15941118444E+02  0.33952943705E+03  0.34893069500E+03  0.47000000000E+01 0.  1.
        -11    1    1    2    0    0  0.83201232796E+02  0.20432689435E+02 -0.58603202334E+01  0.85873647236E+02  0.00000000000E+00 0. -1.
         11    1    1    2    0    0 -0.22190923161E+02 -0.91634606143E+01  0.18182915982E+02  0.30116847690E+02  0.00000000000E+00 0.  1.
<mgrwt>
<rscale>  0 0.12973405E+03</rscale>
<asrwt>0</asrwt>
<pdfrwt beam="2">  1        2 0.98100757E-02 0.13492303E+03</pdfrwt>
<pdfrwt beam="1">  1       -2 0.68551885E-01 0.13492303E+03</pdfrwt>
<totfact> 0.12735242E+03</totfact>
</mgrwt>
</event>
<event>
 6    1  0.7457796E-006  0.2532281E+03  0.7546771E-02  0.1112750E+00
         -1   -1    0    0    0  501 -0.00000000000E+00  0.00000000000E+00  0.24656811038E+03  0.24656811038E+03  0.00000000000E+00 0.  1.
          1   -1    0    0  501    0  0.00000000000E+00 -0.00000000000E+00 -0.25315694397E+03  0.25315694397E+03  0.00000000000E+00 0. -1.
          5    1    1    2  502    0  0.81634254409E+02  0.14478745014E+03  0.16273180369E+02  0.16707622096E+03  0.47000000000E+01 0.  1.
         -5    1    1    2    0  502 -0.29850677675E+02  0.69270767382E+02 -0.44542977616E+02  0.87724962390E+02  0.47000000000E+01 0.  1.
        -11    1    1    2    0    0  0.29865568922E+02 -0.95093528915E+02  0.91499085311E+01  0.10009221885E+03  0.00000000000E+00 0.  1.
         11    1    1    2    0    0 -0.81649145656E+02 -0.11896468860E+03  0.12531055125E+02  0.14483165215E+03  0.00000000000E+00 0. -1.
<mgrwt>
<rscale>  0 0.25087917E+03</rscale>
<asrwt>0</asrwt>
<pdfrwt beam="2">  1        1 0.38947222E-01 0.25322808E+03</pdfrwt>
<pdfrwt beam="1">  1       -1 0.37933556E-01 0.25322808E+03</pdfrwt>
<totfact> 0.73938726E+02</totfact>
</mgrwt>
</event>
<event>
 6    1  0.7457796E-006  0.3625637E+03  0.7546771E-02  0.1057573E+00
         -1   -1    0    0    0  501 -0.00000000000E+00  0.00000000000E+00  0.52860338458E+02  0.52860338458E+02  0.00000000000E+00 0.  1.
          1   -1    0    0  501    0  0.00000000000E+00 -0.00000000000E+00 -0.62169698597E+03  0.62169698597E+03  0.00000000000E+00 0. -1.
          5    1    1    2  502    0  0.18370232025E+01 -0.99539745361E+01  0.14596247521E+02  0.18373804860E+02  0.47000000000E+01 0. -1.
         -5    1    1    2    0  502  0.59680916467E+02 -0.11787955220E+03 -0.25747542986E+03  0.28943580911E+03  0.47000000000E+01 0. -1.
        -11    1    1    2    0    0  0.32958495946E+01  0.42246223958E+02 -0.18370785305E+03  0.18853164545E+03  0.00000000000E+00 0. -1.
         11    1    1    2    0    0 -0.64813789265E+02  0.85587302781E+02 -0.14224961214E+03  0.17821606501E+03  0.00000000000E+00 0.  1.
<mgrwt>
<rscale>  0 0.36256372E+03</rscale>
<asrwt>0</asrwt>
<pdfrwt beam="2">  1        1 0.95645691E-01 0.36256372E+03</pdfrwt>
<pdfrwt beam="1">  1       -1 0.81323597E-02 0.36256372E+03</pdfrwt>
<totfact> 0.28179130E+03</totfact>
</mgrwt>
</event>
<event>
 6    1  0.7457796E-006  0.3142607E+03  0.7546771E-02  0.1079742E+00
         -4   -1    0    0    0  501 -0.00000000000E+00  0.00000000000E+00  0.46940389772E+03  0.46940389772E+03  0.00000000000E+00 0.  1.
          4   -1    0    0  501    0  0.00000000000E+00 -0.00000000000E+00 -0.20587546194E+03  0.20587546194E+03  0.00000000000E+00 0. -1.
          5    1    1    2  502    0  0.10766959763E+03 -0.90219965096E+01  0.70009173450E+02  0.12883133564E+03  0.47000000000E+01 0.  1.
         -5    1    1    2    0  502  0.14748867135E+03  0.14329228880E+03  0.10711809409E+03  0.23190938810E+03  0.47000000000E+01 0.  1.
        -11    1    1    2    0    0 -0.14428383487E+03 -0.55635701060E+02  0.89315669532E+02  0.17857896030E+03  0.00000000000E+00 0.  1.
         11    1    1    2    0    0 -0.11087443411E+03 -0.78634591230E+02 -0.29145012955E+01  0.13595967562E+03  0.00000000000E+00 0. -1.
<mgrwt>
<rscale>  0 0.31126268E+03</rscale>
<asrwt>0</asrwt>
<pdfrwt beam="2">  1        4 0.31673148E-01 0.31426072E+03</pdfrwt>
<pdfrwt beam="1">  1       -4 0.72215984E-01 0.31426072E+03</pdfrwt>
<totfact> 0.31710623E+01</totfact>
</mgrwt>
</event>
<event>
 6    1  0.7457796E-006  0.1271329E+03  0.7546771E-02  0.1246784E+00
          3   -1    0    0  501    0  0.00000000000E+00  0.00000000000E+00  0.42459469337E+03  0.42459469337E+03  0.00000000000E+00 0. -1.
         -3   -1    0    0    0  501 -0.00000000000E+00 -0.00000000000E+00 -0.28752206813E+02  0.28752206813E+02  0.00000000000E+00 0.  1.
          5    1    1    2  502    0  0.11879257803E+02  0.57698333595E+02  0.10880802903E+03  0.12382040077E+03  0.47000000000E+01 0. -1.
         -5    1    1    2    0  502  0.92607323245E+01 -0.67236039012E+02  0.12749970821E+03  0.14451543758E+03  0.47000000000E+01 0. -1.
        -11    1    1    2    0    0  0.27783413370E+02  0.94990590628E+01  0.11555011098E+03  0.11922239021E+03  0.00000000000E+00 0. -1.
         11    1    1    2    0    0 -0.48923403497E+02  0.38646354899E-01  0.43984638338E+02  0.65788671616E+02  0.00000000000E+00 0.  1.
<mgrwt>
<rscale>  0 0.11779217E+03</rscale>
<asrwt>0</asrwt>
<pdfrwt beam="1">  1        3 0.65322256E-01 0.12713290E+03</pdfrwt>
<pdfrwt beam="2">  1       -3 0.44234167E-02 0.12713290E+03</pdfrwt>
<totfact> 0.14529836E+03</totfact>
</mgrwt>
</event>
<event>
 6    1  0.7457796E-006  0.1511618E+03  0.7546771E-02  0.1207650E+00
          2   -1    0    0  501    0  0.00000000000E+00  0.00000000000E+00  0.22384315925E+03  0.22384315925E+03  0.00000000000E+00 0. -1.
         -2   -1    0    0    0  501 -0.00000000000E+00 -0.00000000000E+00 -0.93701453373E+02  0.93701453373E+02  0.00000000000E+00 0.  1.
          5    1    1    2  502    0 -0.37034771118E+02  0.10081815351E+02  0.16811507850E+02  0.42165555477E+02  0.47000000000E+01 0. -1.
         -5    1    1    2    0  502  0.62492387224E+02 -0.91179919383E+02  0.70095102714E+01  0.11086162273E+03  0.47000000000E+01 0. -1.
        -11    1    1    2    0    0  0.69913288727E+01 -0.13556272550E+02 -0.38067852934E+01  0.15720776670E+02  0.00000000000E+00 0.  1.
         11    1    1    2    0    0 -0.32448944979E+02  0.94654376583E+02  0.11012747305E+03  0.14879665775E+03  0.00000000000E+00 0. -1.
<mgrwt>
<rscale>  0 0.14430538E+03</rscale>
<asrwt>0</asrwt>
<pdfrwt beam="1">  1        2 0.34437409E-01 0.15116176E+03</pdfrwt>
<pdfrwt beam="2">  1       -2 0.14415608E-01 0.15116176E+03</pdfrwt>
<totfact> 0.52972632E+03</totfact>
</mgrwt>
</event>
<event>
 6    1  0.7457796E-006  0.1302585E+03  0.7546771E-02  0.1240270E+00
          2   -1    0    0  501    0  0.00000000000E+00  0.00000000000E+00  0.38323101093E+03  0.38323101093E+03  0.00000000000E+00 0. -1.
         -2   -1    0    0    0  501 -0.00000000000E+00 -0.00000000000E+00 -0.38051030350E+02  0.38051030350E+02  0.00000000000E+00 0.  1.
          5    1    1    2  502    0 -0.71371441129E+01 -0.39672113886E+02  0.10954056810E+03  0.11681627243E+03  0.47000000000E+01 0.  1.
         -5    1    1    2    0  502 -0.24296673397E+02  0.58496746705E+02  0.19266948794E+02  0.66373963488E+02  0.47000000000E+01 0.  1.
        -11    1    1    2    0    0 -0.19108176058E+02  0.16224388876E+02  0.12794620594E+03  0.13037862095E+03  0.00000000000E+00 0.  1.
         11    1    1    2    0    0  0.50541993568E+02 -0.35049021694E+02  0.88426257747E+02  0.10771318441E+03  0.00000000000E+00 0. -1.
<mgrwt>
<rscale>  0 0.12173009E+03</rscale>
<asrwt>0</asrwt>
<pdfrwt beam="1">  1        2 0.58958615E-01 0.13025854E+03</pdfrwt>
<pdfrwt beam="2">  1       -2 0.58540049E-02 0.13025854E+03</pdfrwt>
<totfact> 0.12124152E+04</totfact>
</mgrwt>
</event>
<event>
 6    1  0.7457796E-006  0.1799285E+03  0.7546771E-02  0.1173089E+00
         -2   -1    0    0    0  501 -0.00000000000E+00  0.00000000000E+00  0.89979928523E+02  0.89979928523E+02  0.00000000000E+00 0.  1.
          2   -1    0    0  501    0  0.00000000000E+00 -0.00000000000E+00 -0.32222271595E+03  0.32222271595E+03  0.00000000000E+00 0. -1.
          5    1    1    2  502    0 -0.86060093069E+01  0.82610429489E+02 -0.11860120133E+03  0.14486849696E+03  0.47000000000E+01 0. -1.
         -5    1    1    2    0  502 -0.56917115162E+02  0.28998198982E+02  0.10692502726E+02  0.64937455733E+02  0.47000000000E+01 0. -1.
        -11    1    1    2    0    0  0.39153125017E+02  0.53122402155E+00 -0.56396565407E+02  0.68657279201E+02  0.00000000000E+00 0. -1.
         11    1    1    2    0    0  0.26369999451E+02 -0.11213985249E+03 -0.67937523422E+02  0.13373941258E+03  0.00000000000E+00 0.  1.
<mgrwt>
<rscale>  0 0.17464415E+03</rscale>
<asrwt>0</asrwt>
<pdfrwt beam="2">  1        2 0.49572726E-01 0.17992846E+03</pdfrwt>
<pdfrwt beam="1">  1       -2 0.13843066E-01 0.17992846E+03</pdfrwt>
<totfact> 0.38674785E+03</totfact>
</mgrwt>
</event>
<event>
 6    1  0.7457796E-006  0.2241234E+03  0.7546771E-02  0.1158231E+00
          3   -1    0    0  501    0  0.00000000000E+00  0.00000000000E+00  0.23968932468E+02  0.23968932468E+02  0.00000000000E+00 0. -1.
         -3   -1    0    0    0  501 -0.00000000000E+00 -0.00000000000E+00 -0.12933503410E+04  0.12933503410E+04  0.00000000000E+00 0.  1.
          5    1    1    2  502    0 -0.69090114422E+02 -0.25895909311E+02 -0.39750608893E+03  0.40432316625E+03  0.47000000000E+01 0. -1.
         -5    1    1    2    0  502  0.14424220516E+03  0.32610118671E+02 -0.58480328850E+03  0.60322981511E+03  0.47000000000E+01 0.  1.
        -11    1    1    2    0    0 -0.65797439513E+02  0.31208644395E+02 -0.22438116904E+03  0.23590292823E+03  0.00000000000E+00 0. -1.
         11    1    1    2    0    0 -0.93546512254E+01 -0.37922853755E+02 -0.62690862029E+02  0.73863363845E+02  0.00000000000E+00 0.  1.
<mgrwt>
<rscale>  0 0.19025540E+03</rscale>
<asrwt>0</asrwt>
<pdfrwt beam="1">  1        3 0.36875275E-02 0.22412340E+03</pdfrwt>
<pdfrwt beam="2">  1       -3 0.19897701E+00 0.22412340E+03</pdfrwt>
<totfact> 0.14790155E+02</totfact>
</mgrwt>
</event>
<event>
 6    1  0.7457796E-006  0.3265605E+03  0.7546771E-02  0.1072669E+00
         -1   -1    0    0    0  501 -0.00000000000E+00  0.00000000000E+00  0.10989788411E+04  0.10989788411E+04  0.00000000000E+00 0.  1.
          1   -1    0    0  501    0  0.00000000000E+00 -0.00000000000E+00 -0.24259279662E+02  0.24259279662E+02  0.00000000000E+00 0. -1.
          5    1    1    2  502    0 -0.70000054740E+01  0.16639444050E+02  0.31617107268E+03  0.31672086823E+03  0.47000000000E+01 0.  1.
         -5    1    1    2    0  502  0.11829190933E+03 -0.42537947020E+02  0.40599183209E+03  0.42503401096E+03  0.47000000000E+01 0.  1.
        -11    1    1    2    0    0 -0.48003430693E+02  0.34186262603E+02  0.27399176844E+03  0.28025795097E+03  0.00000000000E+00 0.  1.
         11    1    1    2    0    0 -0.63288473159E+02 -0.82877596324E+01  0.78564888227E+02  0.10122529060E+03  0.00000000000E+00 0. -1.
<mgrwt>
<rscale>  0 0.32656047E+03</rscale>
<asrwt>0</asrwt>
<pdfrwt beam="2">  1        1 0.37321977E-02 0.32656047E+03</pdfrwt>
<pdfrwt beam="1">  1       -1 0.16907363E+00 0.32656047E+03</pdfrwt>
<totfact> 0.68582658E+02</totfact>
</mgrwt>
</event>
<event>
 6    1  0.7457796E-006  0.2377333E+03  0.7546771E-02  0.1121312E+00
         -4   -1    0    0    0  501 -0.00000000000E+00  0.00000000000E+00  0.37245042268E+02  0.37245042268E+02  0.00000000000E+00 0.  1.
          4   -1    0    0  501    0  0.00000000000E+00 -0.00000000000E+00 -0.37935994453E+03  0.37935994453E+03  0.00000000000E+00 0. -1.
          5    1    1    2  502    0 -0.10019347070E+02 -0.39013288063E+02 -0.17772412819E+03  0.18229201766E+03  0.47000000000E+01 0. -1.
         -5    1    1    2    0  502  0.45138932134E+01 -0.29247224239E+01  0.21260860991E+02  0.22428629991E+02  0.47000000000E+01 0. -1.
        -11    1    1    2    0    0 -0.29980980179E+02 -0.21204836421E+01 -0.12655271826E+03  0.13007284929E+03  0.00000000000E+00 0. -1.
         11    1    1    2    0    0  0.35486434036E+02  0.44058494129E+02 -0.59098916803E+02  0.81811489858E+02  0.00000000000E+00 0.  1.
<mgrwt>
<rscale>  0 0.23773327E+03</rscale>
<asrwt>0</asrwt>
<pdfrwt beam="2">  1        4 0.58363070E-01 0.23773327E+03</pdfrwt>
<pdfrwt beam="1">  1       -4 0.57300063E-02 0.23773327E+03</pdfrwt>
<totfact> 0.98871911E+02</totfact>
</mgrwt>
</event>
<event>
 6    1  0.7457796E-006  0.1408438E+03  0.7546771E-02  0.1222353E+00
         -1   -1    0    0    0  501 -0.00000000000E+00  0.00000000000E+00  0.23860225864E+02  0.23860225864E+02  0.00000000000E+00 0.  1.
          1   -1    0    0  501    0  0.00000000000E+00 -0.00000000000E+00 -0.68138090540E+03  0.68138090540E+03  0.00000000000E+00 0. -1.
          5    1    1    2  502    0 -0.49688778478E+01  0.16041277951E+02 -0.10388690553E+01  0.17469447452E+02  0.47000000000E+01 0. -1.
         -5    1    1    2    0  502  0.40616372076E+02 -0.70274977712E+02 -0.38419992070E+03  0.39270845578E+03  0.47000000000E+01 0. -1.
        -11    1    1    2    0    0 -0.15270901235E+02  0.60607201703E+01  0.13425366578E+01  0.16484391351E+02  0.00000000000E+00 0.  1.
         11    1    1    2    0    0 -0.20376592993E+02  0.48172979591E+02 -0.27362442644E+03  0.27857883668E+03  0.00000000000E+00 0. -1.
<mgrwt>
<rscale>  0 0.13350014E+03</rscale>
<asrwt>0</asrwt>
<pdfrwt beam="2">  1        1 0.10482783E+00 0.14084384E+03</pdfrwt>
<pdfrwt beam="1">  1       -1 0.36708041E-02 0.14084384E+03</pdfrwt>
<totfact> 0.78977246E+03</totfact>
</mgrwt>
</event>
<event>
 6    1  0.7457796E-006  0.2611713E+03  0.7546771E-02  0.1142073E+00
          2   -1    0    0  501    0  0.00000000000E+00  0.00000000000E+00  0.10929605108E+04  0.10929605108E+04  0.00000000000E+00 0. -1.
         -2   -1    0    0    0  501 -0.00000000000E+00 -0.00000000000E+00 -0.31841872103E+02  0.31841872103E+02  0.00000000000E+00 0.  1.
          5    1    1    2  502    0 -0.67719257041E+02  0.11296770136E+03  0.59943962238E+03  0.61375691459E+03  0.47000000000E+01 0. -1.
         -5    1    1    2    0  502  0.51200166390E+02 -0.59195661695E+02  0.71076467780E+02  0.10582786814E+03  0.47000000000E+01 0.  1.
        -11    1    1    2    0    0 -0.63940605795E+01 -0.74559873374E+02  0.30939618096E+03  0.31831753882E+03  0.00000000000E+00 0. -1.
         11    1    1    2    0    0  0.22913151231E+02  0.20787833709E+02  0.81206367585E+02  0.86900061369E+02  0.00000000000E+00 0.  1.
<mgrwt>
<rscale>  0 0.20936109E+03</rscale>
<asrwt>0</asrwt>
<pdfrwt beam="1">  1        2 0.16814774E+00 0.26117127E+03</pdfrwt>
<pdfrwt beam="2">  1       -2 0.48987504E-02 0.26117127E+03</pdfrwt>
<totfact> 0.46472766E+03</totfact>
</mgrwt>
</event>
<event>
 6    1  0.7457796E-006  0.1287603E+03  0.7546771E-02  0.1248440E+00
          1   -1    0    0  501    0  0.00000000000E+00  0.00000000000E+00  0.16701140338E+03  0.16701140338E+03  0.00000000000E+00 0. -1.
         -1   -1    0    0    0  501 -0.00000000000E+00 -0.00000000000E+00 -0.90048847917E+02  0.90048847917E+02  0.00000000000E+00 0.  1.
          5    1    1    2  502    0 -0.52411477819E+02  0.28404988473E+02 -0.54392753231E+02  0.80836056197E+02  0.47000000000E+01 0. -1.
         -5    1    1    2    0  502  0.23096136824E+02 -0.18568846330E+02  0.38598440799E+02  0.48889295580E+02  0.47000000000E+01 0. -1.
        -11    1    1    2    0    0  0.50881727344E+02  0.14563810786E+02  0.44656544240E+02  0.69247828165E+02  0.00000000000E+00 0.  1.
         11    1    1    2    0    0 -0.21566386348E+02 -0.24399952929E+02  0.48100323659E+02  0.58087071360E+02  0.00000000000E+00 0. -1.
<mgrwt>
<rscale>  0 0.11681858E+03</rscale>
<asrwt>0</asrwt>
<pdfrwt beam="1">  1        1 0.25694062E-01 0.12876027E+03</pdfrwt>
<pdfrwt beam="2">  1       -1 0.13853669E-01 0.12876027E+03</pdfrwt>
<totfact> 0.63831117E+03</totfact>
</mgrwt>
</event>
<event>
 6    1  0.7457796E-006  0.1830476E+03  0.7546771E-02  0.1170212E+00
          1   -1    0    0  501    0  0.00000000000E+00  0.00000000000E+00  0.84536162578E+02  0.84536162578E+02  0.00000000000E+00 0. -1.
         -1   -1    0    0    0  501 -0.00000000000E+00 -0.00000000000E+00 -0.50541543123E+03  0.50541543123E+03  0.00000000000E+00 0.  1.
          5    1    1    2  502    0  0.10519762283E+02 -0.56385370052E+02 -0.15593355192E+03  0.16621473451E+03  0.47000000000E+01 0.  1.
         -5    1    1    2    0  502 -0.12159430768E+03 -0.18059570141E+02 -0.22575609592E+03  0.25709770240E+03  0.47000000000E+01 0.  1.
        -11    1    1    2    0    0  0.16958476888E+02  0.63066459242E+02 -0.36961265449E+01  0.65411234288E+02  0.00000000000E+00 0. -1.
         11    1    1    2    0    0  0.94116068506E+02  0.11378480951E+02 -0.35493494258E+02  0.10122792260E+03  0.00000000000E+00 0.  1.
<mgrwt>
<rscale>  0 0.17753280E+03</rscale>
<asrwt>0</asrwt>
<pdfrwt beam="1">  1        1 0.13005564E-01 0.18304762E+03</pdfrwt>
<pdfrwt beam="2">  1       -1 0.77756217E-01 0.18304762E+03</pdfrwt>
<totfact> 0.77656233E+02</totfact>
</mgrwt>
</event>
<event>
 6    1  0.7457796E-006  0.4489788E+03  0.7546771E-02  0.1028027E+00
          2   -1    0    0  501    0  0.00000000000E+00  0.00000000000E+00  0.79778433072E+02  0.79778433072E+02  0.00000000000E+00 0. -1.
         -2   -1    0    0    0  501 -0.00000000000E+00 -0.00000000000E+00 -0.63169302953E+03  0.63169302953E+03  0.00000000000E+00 0.  1.
          5    1    1    2  502    0  0.11486543454E+01  0.99035881351E+01 -0.11721584887E+03  0.11773294225E+03  0.47000000000E+01 0. -1.
         -5    1    1    2    0  502 -0.12919567299E+03  0.13895679204E+03 -0.20002622240E+03  0.27574098647E+03  0.47000000000E+01 0. -1.
        -11    1    1    2    0    0  0.31249086488E+02  0.33242356683E+01 -0.55429675629E+02  0.63718167656E+02  0.00000000000E+00 0. -1.
         11    1    1    2    0    0  0.96797932157E+02 -0.15218461584E+03 -0.17924284957E+03  0.25427936623E+03  0.00000000000E+00 0.  1.
<mgrwt>
<rscale>  0 0.44897875E+03</rscale>
<asrwt>0</asrwt>
<pdfrwt beam="1">  1        2 0.12273606E-01 0.44897875E+03</pdfrwt>
<pdfrwt beam="2">  1       -2 0.97183539E-01 0.44897875E+03</pdfrwt>
<totfact> 0.45782331E+02</totfact>
</mgrwt>
</event>
<event>
 6    1  0.7457796E-006  0.1487562E+03  0.7546771E-02  0.1210902E+00
         -1   -1    0    0    0  501 -0.00000000000E+00  0.00000000000E+00  0.10512681927E+03  0.10512681927E+03  0.00000000000E+00 0. -1.
          1   -1    0    0  501    0  0.00000000000E+00 -0.00000000000E+00 -0.19406082868E+03  0.19406082868E+03  0.00000000000E+00 0.  1.
          5    1    1    2  502    0 -0.87516623420E+02 -0.90919413965E+01 -0.24981750051E+02  0.91586028458E+02  0.47000000000E+01 0.  1.
         -5    1    1    2    0  502  0.27295126715E+02 -0.44544165703E+02  0.22781522224E+02  0.57186487874E+02  0.47000000000E+01 0.  1.
        -11    1    1    2    0    0  0.39308593760E+02  0.12931658015E+02  0.10723900597E+02  0.42748045177E+02  0.00000000000E+00 0. -1.
         11    1    1    2    0    0  0.20912902944E+02  0.40704449084E+02 -0.97457682181E+02  0.10766708643E+03  0.00000000000E+00 0.  1.
<mgrwt>
<rscale>  0 0.14181938E+03</rscale>
<asrwt>0</asrwt>
<pdfrwt beam="2">  1        1 0.29855512E-01 0.14875625E+03</pdfrwt>
<pdfrwt beam="1">  1       -1 0.16173357E-01 0.14875625E+03</pdfrwt>
<totfact> 0.41881728E+03</totfact>
</mgrwt>
</event>
<event>
 6    1  0.7457796E-006  0.4750090E+03  0.7546771E-02  0.1020516E+00
         -1   -1    0    0    0  501 -0.00000000000E+00  0.00000000000E+00  0.74346027700E+03  0.74346027700E+03  0.00000000000E+00 0.  1.
          1   -1    0    0  501    0  0.00000000000E+00 -0.00000000000E+00 -0.75872763103E+02  0.75872763103E+02  0.00000000000E+00 0. -1.
          5    1    1    2  502    0  0.13596780916E+01  0.57157643487E+01  0.17096811773E+03  0.17113359100E+03  0.47000000000E+01 0.  1.
         -5    1    1    2    0  502 -0.17086160780E+03  0.69963578892E+02  0.34636315801E+03  0.39252785712E+03  0.47000000000E+01 0.  1.
        -11    1    1    2    0    0  0.11228506399E+03 -0.64434376151E+02  0.14894808213E+03  0.19734552338E+03  0.00000000000E+00 0.  1.
         11    1    1    2    0    0  0.57216865710E+02 -0.11244967090E+02  0.13081560183E+01  0.58326068603E+02  0.00000000000E+00 0. -1.
<mgrwt>
<rscale>  0 0.47500899E+03</rscale>
<asrwt>0</asrwt>
<pdfrwt beam="2">  1        1 0.11672733E-01 0.47500899E+03</pdfrwt>
<pdfrwt beam="1">  1       -1 0.11437850E+00 0.47500899E+03</pdfrwt>
<totfact> 0.38432235E+02</totfact>
</mgrwt>
</event>
<event>
 6    1  0.7457796E-006  0.1367155E+03  0.7546771E-02  0.1229328E+00
          1   -1    0    0  501    0  0.00000000000E+00  0.00000000000E+00  0.36759147147E+02  0.36759147147E+02  0.00000000000E+00 0. -1.
         -1   -1    0    0    0  501 -0.00000000000E+00 -0.00000000000E+00 -0.44978841318E+03  0.44978841318E+03  0.00000000000E+00 0.  1.
          5    1    1    2  502    0  0.24799477547E+02 -0.42123059673E+02 -0.36338355400E+02  0.61089543426E+02  0.47000000000E+01 0.  1.
         -5    1    1    2    0  502  0.30469159939E+02  0.38757944047E+02 -0.26812705142E+03  0.27266234363E+03  0.47000000000E+01 0.  1.
        -11    1    1    2    0    0 -0.36988344027E+02 -0.25049649061E+02 -0.63241805807E+01  0.45117821002E+02  0.00000000000E+00 0. -1.
         11    1    1    2    0    0 -0.18280293459E+02  0.28414764687E+02 -0.10223967863E+03  0.10767785227E+03  0.00000000000E+00 0.  1.
<mgrwt>
<rscale>  0 0.12874638E+03</rscale>
<asrwt>0</asrwt>
<pdfrwt beam="1">  1        1 0.56552533E-02 0.13671554E+03</pdfrwt>
<pdfrwt beam="2">  1       -1 0.69198219E-01 0.13671554E+03</pdfrwt>
<totfact> 0.29682521E+03</totfact>
</mgrwt>
</event>
<event>
 6    1  0.7457796E-006  0.1261841E+03  0.7546771E-02  0.1286277E+00
         -2   -1    0    0    0  501 -0.00000000000E+00  0.00000000000E+00  0.14046337690E+03  0.14046337690E+03  0.00000000000E+00 0. -1.
          2   -1    0    0  501    0  0.00000000000E+00 -0.00000000000E+00 -0.90540179793E+02  0.90540179793E+02  0.00000000000E+00 0.  1.
          5    1    1    2  502    0 -0.49277713773E+02  0.87169082760E+01  0.11287662942E+03  0.12356172965E+03  0.47000000000E+01 0. -1.
         -5    1    1    2    0  502  0.36909168610E+02  0.29813110168E+01 -0.10671021643E+02  0.38821844956E+02  0.47000000000E+01 0. -1.
        -11    1    1    2    0    0 -0.14099417123E+02  0.21429686521E+01 -0.20837368721E+02  0.25250382434E+02  0.00000000000E+00 0.  1.
         11    1    1    2    0    0  0.26467962286E+02 -0.13841187945E+02 -0.31445041947E+02  0.43369599656E+02  0.00000000000E+00 0. -1.
<mgrwt>
<rscale>  0 0.97208983E+02</rscale>
<asrwt>0</asrwt>
<pdfrwt beam="2">  1        2 0.13929258E-01 0.12618415E+03</pdfrwt>
<pdfrwt beam="1">  1       -2 0.21609750E-01 0.12618415E+03</pdfrwt>
<totfact> 0.73568881E+03</totfact>
</mgrwt>
</event>
<event>
 6    1  0.7457796E-006  0.1471315E+03  0.7546771E-02  0.1211999E+00
         -1   -1    0    0    0  501 -0.00000000000E+00  0.00000000000E+00  0.26386002873E+02  0.26386002873E+02  0.00000000000E+00 0.  1.
          1   -1    0    0  501    0  0.00000000000E+00 -0.00000000000E+00 -0.92128035299E+03  0.92128035299E+03  0.00000000000E+00 0. -1.
          5    1    1    2  502    0 -0.67013713844E+02  0.12182424387E+02 -0.25374963009E+03  0.26277407421E+03  0.47000000000E+01 0.  1.
         -5    1    1    2    0  502 -0.48481585133E+01  0.17118627184E+02  0.10739057402E+02  0.21306557477E+02  0.47000000000E+01 0.  1.
        -11    1    1    2    0    0 -0.17149853316E+02 -0.30530374059E+02 -0.17721072070E+03  0.18063737360E+03  0.00000000000E+00 0. -1.
         11    1    1    2    0    0  0.89011725674E+02  0.12293224874E+01 -0.47467305672E+03  0.48294835057E+03  0.00000000000E+00 0.  1.
<mgrwt>
<rscale>  0 0.14099267E+03</rscale>
<asrwt>0</asrwt>
<pdfrwt beam="2">  1        1 0.14173542E+00 0.14713146E+03</pdfrwt>
<pdfrwt beam="1">  1       -1 0.40593855E-02 0.14713146E+03</pdfrwt>
<totfact> 0.43315481E+03</totfact>
</mgrwt>
</event>
<event>
 6    1  0.7457796E-006  0.2819827E+03  0.7546771E-02  0.1135043E+00
          1   -1    0    0  501    0  0.00000000000E+00  0.00000000000E+00  0.38142841549E+03  0.38142841549E+03  0.00000000000E+00 0. -1.
         -1   -1    0    0    0  501 -0.00000000000E+00 -0.00000000000E+00 -0.11966010119E+03  0.11966010119E+03  0.00000000000E+00 0.  1.
          5    1    1    2  502    0  0.14652529995E+02 -0.11952865001E+03  0.80269263450E+02  0.14479999815E+03  0.47000000000E+01 0. -1.
         -5    1    1    2    0  502  0.19524406722E+02  0.14705709861E+03  0.13544420067E+00  0.14842203696E+03  0.47000000000E+01 0.  1.
        -11    1    1    2    0    0  0.14491452658E+02  0.12067888232E+02  0.33940581586E+01  0.19161308862E+02  0.00000000000E+00 0.  1.
         11    1    1    2    0    0 -0.48668389375E+02 -0.39596336834E+02  0.17796954850E+03  0.18870517271E+03  0.00000000000E+00 0. -1.
<mgrwt>
<rscale>  0 0.21845112E+03</rscale>
<asrwt>0</asrwt>
<pdfrwt beam="1">  1        1 0.58681294E-01 0.28198270E+03</pdfrwt>
<pdfrwt beam="2">  1       -1 0.18409247E-01 0.28198270E+03</pdfrwt>
<totfact> 0.14877209E+03</totfact>
</mgrwt>
</event>
<event>
 6    1  0.7457796E-006  0.3490661E+03  0.7546771E-02  0.1062999E+00
          2   -1    0    0  501    0  0.00000000000E+00  0.00000000000E+00  0.45210505362E+03  0.45210505362E+03  0.00000000000E+00 0. -1.
         -2   -1    0    0    0  501 -0.00000000000E+00 -0.00000000000E+00 -0.67377655401E+02  0.67377655401E+02  0.00000000000E+00 0.  1.
          5    1    1    2  502    0 -0.16913914514E+02 -0.14729997679E+03  0.24307068231E+03  0.28476097041E+03  0.47000000000E+01 0.  1.
         -5    1    1    2    0  502 -0.75078879971E+01  0.16025076100E+02 -0.13530219806E+01  0.18360068482E+02  0.47000000000E+01 0.  1.
        -11    1    1    2    0    0  0.57186466119E+02  0.63578303669E+02  0.91292490553E+02  0.12508721532E+03  0.00000000000E+00 0.  1.
         11    1    1    2    0    0 -0.32764663607E+02  0.67696597023E+02  0.51717247330E+02  0.91274454811E+02  0.00000000000E+00 0. -1.
<mgrwt>
<rscale>  0 0.34906606E+03</rscale>
<asrwt>0</asrwt>
<pdfrwt beam="1">  1        2 0.69554622E-01 0.34906606E+03</pdfrwt>
<pdfrwt beam="2">  1       -2 0.10365793E-01 0.34906606E+03</pdfrwt>
<totfact> 0.43821254E+03</totfact>
</mgrwt>
</event>
<event>
 6    1  0.7457796E-006  0.1483844E+03  0.7546771E-02  0.1211530E+00
         -1   -1    0    0    0  501 -0.00000000000E+00  0.00000000000E+00  0.77339568682E+02  0.77339568682E+02  0.00000000000E+00 0.  1.
          1   -1    0    0  501    0  0.00000000000E+00 -0.00000000000E+00 -0.24424486257E+03  0.24424486257E+03  0.00000000000E+00 0. -1.
          5    1    1    2  502    0  0.80968751582E+02 -0.43769510526E+01  0.54409054060E+01  0.81405097413E+02  0.47000000000E+01 0. -1.
         -5    1    1    2    0  502 -0.13467668834E+02 -0.38476273410E+02 -0.68439777697E+02  0.79799090788E+02  0.47000000000E+01 0. -1.
        -11    1    1    2    0    0 -0.24944869890E+02  0.99718706341E+01 -0.10315500022E+03  0.10659567913E+03  0.00000000000E+00 0. -1.
         11    1    1    2    0    0 -0.42556212857E+02  0.32881353829E+02 -0.75142137464E+00  0.53784563923E+02  0.00000000000E+00 0.  1.
<mgrwt>
<rscale>  0 0.14134534E+03</rscale>
<asrwt>0</asrwt>
<pdfrwt beam="2">  1        1 0.37576133E-01 0.14838441E+03</pdfrwt>
<pdfrwt beam="1">  1       -1 0.11898395E-01 0.14838441E+03</pdfrwt>
<totfact> 0.50817202E+03</totfact>
</mgrwt>
</event>
<event>
 6    1  0.7457796E-006  0.2157791E+03  0.7546771E-02  0.1140338E+00
         -2   -1    0    0    0  501 -0.00000000000E+00  0.00000000000E+00  0.44268585433E+03  0.44268585433E+03  0.00000000000E+00 0.  1.
          2   -1    0    0  501    0  0.00000000000E+00 -0.00000000000E+00 -0.99280261489E+02  0.99280261489E+02  0.00000000000E+00 0. -1.
          5    1    1    2  502    0  0.39923059606E+02 -0.86897360472E+02  0.68196162411E+02  0.11754917487E+03  0.47000000000E+01 0. -1.
         -5    1    1    2    0  502 -0.78864165614E+02 -0.84622952976E+02  0.14803578292E+03  0.18792893288E+03  0.47000000000E+01 0. -1.
        -11    1    1    2    0    0  0.50256103190E+02  0.17842963989E+03  0.12345207992E+03  0.22271782222E+03  0.00000000000E+00 0.  1.
         11    1    1    2    0    0 -0.11314997181E+02 -0.69093264389E+01  0.37215675969E+01  0.13770185853E+02  0.00000000000E+00 0. -1.
<mgrwt>
<rscale>  0 0.21155772E+03</rscale>
<asrwt>0</asrwt>
<pdfrwt beam="2">  1        2 0.15273887E-01 0.21577910E+03</pdfrwt>
<pdfrwt beam="1">  1       -2 0.68105515E-01 0.21577910E+03</pdfrwt>
<totfact> 0.76835895E+02</totfact>
</mgrwt>
</event>
<event>
 6    1  0.7457796E-006  0.1828766E+03  0.7546771E-02  0.1170422E+00
          2   -1    0    0  501    0  0.00000000000E+00  0.00000000000E+00  0.39612000380E+03  0.39612000380E+03  0.00000000000E+00 0. -1.
         -2   -1    0    0    0  501 -0.00000000000E+00 -0.00000000000E+00 -0.74974206043E+02  0.74974206043E+02  0.00000000000E+00 0.  1.
          5    1    1    2  502    0  0.75127395556E+02 -0.11788790328E+03  0.14363793254E+03  0.20048847590E+03  0.47000000000E+01 0. -1.
         -5    1    1    2    0  502  0.25771348806E+02  0.30487624603E+02  0.19934364573E+02  0.44867878980E+02  0.47000000000E+01 0. -1.
        -11    1    1    2    0    0 -0.10336670804E+03  0.35036884457E+02  0.10968856511E+03  0.15473797504E+03  0.00000000000E+00 0.  1.
         11    1    1    2    0    0  0.24679636772E+01  0.52363394219E+02  0.47884935538E+02  0.70999879932E+02  0.00000000000E+00 0. -1.
<mgrwt>
<rscale>  0 0.17731979E+03</rscale>
<asrwt>0</asrwt>
<pdfrwt beam="1">  1        2 0.60941538E-01 0.18287658E+03</pdfrwt>
<pdfrwt beam="2">  1       -2 0.11534493E-01 0.18287658E+03</pdfrwt>
<totfact> 0.41638726E+03</totfact>
</mgrwt>
</event>
<event>
 6    1  0.7457796E-006  0.3355494E+03  0.7546771E-02  0.1091509E+00
          2   -1    0    0  501    0  0.00000000000E+00  0.00000000000E+00  0.70245993126E+03  0.70245993126E+03  0.00000000000E+00 0. -1.
         -2   -1    0    0    0  501 -0.00000000000E+00 -0.00000000000E+00 -0.11239125598E+03  0.11239125598E+03  0.00000000000E+00 0.  1.
          5    1    1    2  502    0  0.31613782750E+02 -0.13577755250E+03  0.21471863819E+03  0.25604913319E+03  0.47000000000E+01 0. -1.
         -5    1    1    2    0  502 -0.14075694000E+03  0.24934992842E+02  0.13188515766E+01  0.14303181253E+03  0.47000000000E+01 0.  1.
        -11    1    1    2    0    0  0.11607352520E+03  0.80589767245E+02  0.34679012294E+03  0.37447451609E+03  0.00000000000E+00 0.  1.
         11    1    1    2    0    0 -0.69303679446E+01  0.30252792410E+02  0.27241062574E+02  0.41295725428E+02  0.00000000000E+00 0. -1.
<mgrwt>
<rscale>  0 0.28778949E+03</rscale>
<asrwt>0</asrwt>
<pdfrwt beam="1">  1        2 0.10807076E+00 0.33554941E+03</pdfrwt>
<pdfrwt beam="2">  1       -2 0.17290963E-01 0.33554941E+03</pdfrwt>
<totfact> 0.11274074E+03</totfact>
</mgrwt>
</event>
<event>
 6    1  0.7457796E-006  0.1626376E+03  0.7546771E-02  0.1193308E+00
         -2   -1    0    0    0  501 -0.00000000000E+00  0.00000000000E+00  0.84122950532E+02  0.84122950532E+02  0.00000000000E+00 0. -1.
          2   -1    0    0  501    0  0.00000000000E+00 -0.00000000000E+00 -0.35983443731E+03  0.35983443731E+03  0.00000000000E+00 0.  1.
          5    1    1    2  502    0  0.52340466761E+01 -0.35631933761E+02 -0.17944257647E+02  0.40510694028E+02  0.47000000000E+01 0. -1.
         -5    1    1    2    0  502  0.79738999113E+02  0.95695348404E+02 -0.16558866191E+02  0.12574654562E+03  0.47000000000E+01 0. -1.
        -11    1    1    2    0    0 -0.48023410112E+02 -0.79554412843E+02 -0.19084206943E+03  0.21226362850E+03  0.00000000000E+00 0.  1.
         11    1    1    2    0    0 -0.36949635677E+02  0.19490998200E+02 -0.50366293517E+02  0.65436519697E+02  0.00000000000E+00 0. -1.
<mgrwt>
<rscale>  0 0.15598274E+03</rscale>
<asrwt>0</asrwt>
<pdfrwt beam="2">  1        2 0.55359143E-01 0.16263765E+03</pdfrwt>
<pdfrwt beam="1">  1       -2 0.12941993E-01 0.16263765E+03</pdfrwt>
<totfact> 0.38160867E+03</totfact>
</mgrwt>
</event>
<event>
 6    1  0.7457796E-006  0.1537625E+03  0.7546771E-02  0.1217487E+00
         -2   -1    0    0    0  501 -0.00000000000E+00  0.00000000000E+00  0.14253382578E+03  0.14253382578E+03  0.00000000000E+00 0.  1.
          2   -1    0    0  501    0  0.00000000000E+00 -0.00000000000E+00 -0.13469037814E+03  0.13469037814E+03  0.00000000000E+00 0. -1.
          5    1    1    2  502    0 -0.57301504049E+02 -0.10933357733E+01 -0.16002767710E+02  0.59689499276E+02  0.47000000000E+01 0. -1.
         -5    1    1    2    0  502  0.62665353764E+02  0.34300606535E+02  0.78623460597E+02  0.10633539734E+03  0.47000000000E+01 0.  1.
        -11    1    1    2    0    0 -0.21848829080E+02 -0.55635548496E+02 -0.57866050491E+02  0.83193541745E+02  0.00000000000E+00 0. -1.
         11    1    1    2    0    0  0.16484979365E+02  0.22428277734E+02  0.30888052432E+01  0.28005765561E+02  0.00000000000E+00 0.  1.
<mgrwt>
<rscale>  0 0.13695404E+03</rscale>
<asrwt>0</asrwt>
<pdfrwt beam="2">  1        2 0.20721597E-01 0.15376253E+03</pdfrwt>
<pdfrwt beam="1">  1       -2 0.21928281E-01 0.15376253E+03</pdfrwt>
<totfact> 0.45983079E+03</totfact>
</mgrwt>
</event>
<event>
 6    1  0.7457796E-006  0.3195176E+03  0.7546771E-02  0.1075872E+00
         -2   -1    0    0    0  501 -0.00000000000E+00  0.00000000000E+00  0.28910143566E+02  0.28910143566E+02  0.00000000000E+00 0.  1.
          2   -1    0    0  501    0  0.00000000000E+00 -0.00000000000E+00 -0.88283433589E+03  0.88283433589E+03  0.00000000000E+00 0. -1.
          5    1    1    2  502    0  0.38584689024E+02  0.48634595432E+01 -0.58196574834E+02  0.70152425391E+02  0.47000000000E+01 0.  1.
         -5    1    1    2    0  502 -0.71366428106E+02 -0.91912770013E+02 -0.19704452826E+03  0.22888809595E+03  0.47000000000E+01 0.  1.
        -11    1    1    2    0    0 -0.28384487887E+02  0.51198124007E+02 -0.30666449036E+03  0.31220191656E+03  0.00000000000E+00 0. -1.
         11    1    1    2    0    0  0.61166226969E+02  0.35851186463E+02 -0.29201859887E+03  0.30050204155E+03  0.00000000000E+00 0.  1.
<mgrwt>
<rscale>  0 0.31951756E+03</rscale>
<asrwt>0</asrwt>
<pdfrwt beam="2">  1        2 0.13582068E+00 0.31951756E+03</pdfrwt>
<pdfrwt beam="1">  1       -2 0.44477141E-02 0.31951756E+03</pdfrwt>
<totfact> 0.73140090E+03</totfact>
</mgrwt>
</event>
<event>
 6    1  0.7457796E-006  0.1873371E+03  0.7546771E-02  0.1164563E+00
         -1   -1    0    0    0  501 -0.00000000000E+00  0.00000000000E+00  0.11409666566E+03  0.11409666566E+03  0.00000000000E+00 0.  1.
          1   -1    0    0  501    0  0.00000000000E+00 -0.00000000000E+00 -0.44294235051E+03  0.44294235051E+03  0.00000000000E+00 0. -1.
          5    1    1    2  502    0  0.36127404337E+01  0.88276509399E+02 -0.42908845497E+02  0.98331343055E+02  0.47000000000E+01 0. -1.
         -5    1    1    2    0  502 -0.71052065829E+02  0.33879826519E+02  0.41290997863E+02  0.89012781150E+02  0.47000000000E+01 0. -1.
        -11    1    1    2    0    0  0.37993453428E+02 -0.59581085905E+02 -0.57087300830E+02  0.90842546293E+02  0.00000000000E+00 0.  1.
         11    1    1    2    0    0  0.29445871967E+02 -0.62575250012E+02 -0.27014053639E+03  0.27885234568E+03  0.00000000000E+00 0. -1.
<mgrwt>
<rscale>  0 0.18338867E+03</rscale>
<asrwt>0</asrwt>
<pdfrwt beam="2">  1        1 0.68144977E-01 0.18733714E+03</pdfrwt>
<pdfrwt beam="1">  1       -1 0.17553333E-01 0.18733714E+03</pdfrwt>
<totfact> 0.13174414E+03</totfact>
</mgrwt>
</event>
<event>
 6    1  0.7457796E-006  0.1476797E+03  0.7546771E-02  0.1213449E+00
         -1   -1    0    0    0  501 -0.00000000000E+00  0.00000000000E+00  0.29927433486E+03  0.29927433486E+03  0.00000000000E+00 0.  1.
          1   -1    0    0  501    0  0.00000000000E+00 -0.00000000000E+00 -0.69392054047E+02  0.69392054047E+02  0.00000000000E+00 0. -1.
          5    1    1    2  502    0 -0.30739018686E+02  0.10300208073E+03  0.14476892831E+03  0.18037308144E+03  0.47000000000E+01 0. -1.
         -5    1    1    2    0  502  0.31386079632E+02 -0.24421129044E+02  0.50376727171E+02  0.64353571610E+02  0.47000000000E+01 0. -1.
        -11    1    1    2    0    0 -0.17761702379E+02 -0.54918317047E+02 -0.20669540303E+02  0.61308478329E+02  0.00000000000E+00 0. -1.
         11    1    1    2    0    0  0.17114641432E+02 -0.23662634637E+02  0.55406165635E+02  0.62631257530E+02  0.00000000000E+00 0.  1.
<mgrwt>
<rscale>  0 0.13991112E+03</rscale>
<asrwt>0</asrwt>
<pdfrwt beam="2">  1        1 0.10675701E-01 0.14767975E+03</pdfrwt>
<pdfrwt beam="1">  1       -1 0.46042205E-01 0.14767975E+03</pdfrwt>
<totfact> 0.27267891E+03</totfact>
</mgrwt>
</event>
<event>
 6    1  0.7457796E-006  0.1393896E+03  0.7546771E-02  0.1224282E+00
         -1   -1    0    0    0  501 -0.00000000000E+00  0.00000000000E+00  0.78638179880E+02  0.78638179880E+02  0.00000000000E+00 0.  1.
          1   -1    0    0  501    0  0.00000000000E+00 -0.00000000000E+00 -0.20396955963E+03  0.20396955963E+03  0.00000000000E+00 0. -1.
          5    1    1    2  502    0 -0.35229133601E+02  0.25102313608E+02 -0.42526566078E+02  0.60842557681E+02  0.47000000000E+01 0. -1.
         -5    1    1    2    0  502  0.87765307710E+02  0.72530873553E+01 -0.12747562700E+02  0.89106379505E+02  0.47000000000E+01 0. -1.
        -11    1    1    2    0    0 -0.21534735807E+02  0.26808077110E+02  0.19511486943E+01  0.34441614739E+02  0.00000000000E+00 0.  1.
         11    1    1    2    0    0 -0.31001438302E+02 -0.59163478073E+02 -0.72008399663E+02  0.98217187582E+02  0.00000000000E+00 0. -1.
<mgrwt>
<rscale>  0 0.13216209E+03</rscale>
<asrwt>0</asrwt>
<pdfrwt beam="2">  1        1 0.31379932E-01 0.13938958E+03</pdfrwt>
<pdfrwt beam="1">  1       -1 0.12098182E-01 0.13938958E+03</pdfrwt>
<totfact> 0.61705412E+03</totfact>
</mgrwt>
</event>
<event>
 6    1  0.7457796E-006  0.2348181E+03  0.7546771E-02  0.1126505E+00
          2   -1    0    0  501    0  0.00000000000E+00  0.00000000000E+00  0.82021581563E+03  0.82021581563E+03  0.00000000000E+00 0.  1.
         -2   -1    0    0    0  501 -0.00000000000E+00 -0.00000000000E+00 -0.62193760579E+02  0.62193760579E+02  0.00000000000E+00 0. -1.
          5    1    1    2  502    0 -0.41618524572E+02  0.16444322386E+02  0.38345408023E+02  0.59118335926E+02  0.47000000000E+01 0. -1.
         -5    1    1    2    0  502  0.16825357742E+02  0.18076484487E+03  0.36234559836E+03  0.40530907275E+03  0.47000000000E+01 0. -1.
        -11    1    1    2    0    0 -0.21244329444E+02 -0.13496128679E+03  0.25903657524E+03  0.29285801642E+03  0.00000000000E+00 0.  1.
         11    1    1    2    0    0  0.46037496274E+02 -0.62247880466E+02  0.98294473425E+02  0.12512415111E+03  0.00000000000E+00 0. -1.
<mgrwt>
<rscale>  0 0.23019091E+03</rscale>
<asrwt>0</asrwt>
<pdfrwt beam="1">  1        2 0.12618704E+00 0.23481809E+03</pdfrwt>
<pdfrwt beam="2">  1       -2 0.95682715E-02 0.23481809E+03</pdfrwt>
<totfact> 0.24367662E+03</totfact>
</mgrwt>
</event>
<event>
 6    1  0.7457796E-006  0.1252158E+03  0.7546771E-02  0.1249896E+00
         -2   -1    0    0    0  501 -0.00000000000E+00  0.00000000000E+00  0.25644649171E+02  0.25644649171E+02  0.00000000000E+00 0.  1.
          2   -1    0    0  501    0  0.00000000000E+00 -0.00000000000E+00 -0.54904759734E+03  0.54904759734E+03  0.00000000000E+00 0. -1.
          5    1    1    2  502    0  0.25426705215E+02 -0.25076522831E+02 -0.14881540360E+01  0.36050713417E+02  0.47000000000E+01 0.  1.
         -5    1    1    2    0  502 -0.24165295762E+02  0.32370457505E+02 -0.17937675952E+03  0.18392911650E+03  0.47000000000E+01 0.  1.
        -11    1    1    2    0    0  0.29948295249E+02 -0.37802582699E+02 -0.16643346194E+03  0.17328021497E+03  0.00000000000E+00 0.  1.
         11    1    1    2    0    0 -0.31209704702E+02  0.30508648026E+02 -0.17610457267E+03  0.18143220163E+03  0.00000000000E+00 0. -1.
<mgrwt>
<rscale>  0 0.11597088E+03</rscale>
<asrwt>0</asrwt>
<pdfrwt beam="2">  1        2 0.84468855E-01 0.12521585E+03</pdfrwt>
<pdfrwt beam="1">  1       -2 0.39453309E-02 0.12521585E+03</pdfrwt>
<totfact> 0.14773122E+04</totfact>
</mgrwt>
</event>
<event>
 6    1  0.7457796E-006  0.2716913E+03  0.7546771E-02  0.1102360E+00
          1   -1    0    0  501    0  0.00000000000E+00  0.00000000000E+00  0.22055535731E+03  0.22055535731E+03  0.00000000000E+00 0.  1.
         -1   -1    0    0    0  501 -0.00000000000E+00 -0.00000000000E+00 -0.34344297490E+03  0.34344297490E+03  0.00000000000E+00 0. -1.
          5    1    1    2  502    0 -0.17778895087E+03  0.86020093805E+02 -0.66596250927E+02  0.20848385604E+03  0.47000000000E+01 0. -1.
         -5    1    1    2    0  502 -0.56517850570E+02 -0.28700551374E+02 -0.73597770958E+02  0.97245621866E+02  0.47000000000E+01 0. -1.
        -11    1    1    2    0    0  0.17139908372E+03 -0.67099783897E+02  0.43974847208E+02  0.18924538062E+03  0.00000000000E+00 0. -1.
         11    1    1    2    0    0  0.62907717724E+02  0.97802414668E+01 -0.26668442917E+02  0.69023473688E+02  0.00000000000E+00 0.  1.
<mgrwt>
<rscale>  0 0.26812078E+03</rscale>
<asrwt>0</asrwt>
<pdfrwt beam="1">  1        1 0.33931594E-01 0.27169128E+03</pdfrwt>
<pdfrwt beam="2">  1       -1 0.52837380E-01 0.27169128E+03</pdfrwt>
<totfact> 0.48175266E+02</totfact>
</mgrwt>
</event>
<event>
 6    1  0.7457796E-006  0.1365001E+03  0.7546771E-02  0.1227212E+00
          1   -1    0    0  501    0  0.00000000000E+00  0.00000000000E+00  0.19428697648E+02  0.19428697648E+02  0.00000000000E+00 0. -1.
         -1   -1    0    0    0  501 -0.00000000000E+00 -0.00000000000E+00 -0.80127164168E+03  0.80127164168E+03  0.00000000000E+00 0.  1.
          5    1    1    2  502    0 -0.53848410325E+01 -0.33120349808E+02 -0.18995060850E+02  0.38844001095E+02  0.47000000000E+01 0. -1.
         -5    1    1    2    0  502 -0.16725846699E+02 -0.17082197971E+02 -0.42410973677E+03  0.42480903270E+03  0.47000000000E+01 0. -1.
        -11    1    1    2    0    0  0.80986220351E+01  0.74012681893E+02 -0.30221962901E+03  0.31125579339E+03  0.00000000000E+00 0.  1.
         11    1    1    2    0    0  0.14012065696E+02 -0.23810134114E+02 -0.36518517398E+02  0.45791512145E+02  0.00000000000E+00 0. -1.
<mgrwt>
<rscale>  0 0.13016453E+03</rscale>
<asrwt>0</asrwt>
<pdfrwt beam="1">  1        1 0.29890316E-02 0.13650009E+03</pdfrwt>
<pdfrwt beam="2">  1       -1 0.12327251E+00 0.13650009E+03</pdfrwt>
<totfact> 0.20598151E+03</totfact>
</mgrwt>
</event>
<event>
 6    1  0.7457796E-006  0.1127904E+03  0.7546771E-02  0.1271752E+00
         -1   -1    0    0    0  501 -0.00000000000E+00  0.00000000000E+00  0.34765653911E+03  0.34765653911E+03  0.00000000000E+00 0.  1.
          1   -1    0    0  501    0  0.00000000000E+00 -0.00000000000E+00 -0.29660427471E+02  0.29660427471E+02  0.00000000000E+00 0. -1.
          5    1    1    2  502    0  0.26515088609E+02  0.31821426563E+02  0.16810527910E+03  0.17319678974E+03  0.47000000000E+01 0. -1.
         -5    1    1    2    0  502 -0.46270470923E+02 -0.31669670985E+02  0.66481086068E+02  0.87096207406E+02  0.47000000000E+01 0.  1.
        -11    1    1    2    0    0 -0.19501109571E+02  0.23834213228E+02  0.54767717494E+02  0.62832044963E+02  0.00000000000E+00 0.  1.
         11    1    1    2    0    0  0.39256491885E+02 -0.23985968806E+02  0.28642028975E+02  0.54191924477E+02  0.00000000000E+00 0. -1.
<mgrwt>
<rscale>  0 0.10417558E+03</rscale>
<asrwt>0</asrwt>
<pdfrwt beam="2">  1        1 0.45631430E-02 0.11279043E+03</pdfrwt>
<pdfrwt beam="1">  1       -1 0.53485618E-01 0.11279043E+03</pdfrwt>
<totfact> 0.64059089E+03</totfact>
</mgrwt>
</event>
<event>
 6    1  0.7457796E-006  0.1586716E+03  0.7546771E-02  0.1198800E+00
          1   -1    0    0  501    0  0.00000000000E+00  0.00000000000E+00  0.28162257813E+03  0.28162257813E+03  0.00000000000E+00 0. -1.
         -1   -1    0    0    0  501 -0.00000000000E+00 -0.00000000000E+00 -0.12964883533E+03  0.12964883533E+03  0.00000000000E+00 0.  1.
          5    1    1    2  502    0 -0.98707516228E+01  0.59702246689E+02  0.16221618330E+02  0.62825320521E+02  0.47000000000E+01 0. -1.
         -5    1    1    2    0  502  0.77079754748E+02  0.11255385156E+02 -0.69649824434E+02  0.10460000158E+03  0.47000000000E+01 0. -1.
        -11    1    1    2    0    0 -0.73744446826E+02 -0.45770652087E+02  0.88022352155E+02  0.12361686984E+03  0.00000000000E+00 0.  1.
         11    1    1    2    0    0  0.65354437006E+01 -0.25186979757E+02  0.11737959675E+03  0.12022922152E+03  0.00000000000E+00 0. -1.
<mgrwt>
<rscale>  0 0.15136967E+03</rscale>
<asrwt>0</asrwt>
<pdfrwt beam="1">  1        1 0.43326550E-01 0.15867156E+03</pdfrwt>
<pdfrwt beam="2">  1       -1 0.19945975E-01 0.15867156E+03</pdfrwt>
<totfact> 0.18920919E+03</totfact>
</mgrwt>
</event>
<event>
 6    1  0.7457796E-006  0.1386060E+03  0.7546771E-02  0.1226505E+00
         -1   -1    0    0    0  501 -0.00000000000E+00  0.00000000000E+00  0.17297537415E+02  0.17297537415E+02  0.00000000000E+00 0.  1.
          1   -1    0    0  501    0  0.00000000000E+00 -0.00000000000E+00 -0.89149949046E+03  0.89149949046E+03  0.00000000000E+00 0. -1.
          5    1    1    2  502    0  0.24621844701E+02  0.19097347083E+02 -0.43662249119E+02  0.53846317424E+02  0.47000000000E+01 0.  1.
         -5    1    1    2    0  502 -0.83958110881E+02 -0.26614668516E+02 -0.46906140920E+03  0.47728188794E+03  0.47000000000E+01 0.  1.
        -11    1    1    2    0    0 -0.78722478446E+01  0.35583498889E+02 -0.12892936798E+03  0.13398111661E+03  0.00000000000E+00 0.  1.
         11    1    1    2    0    0  0.67208514025E+02 -0.28066177456E+02 -0.23254892675E+03  0.24368770590E+03  0.00000000000E+00 0. -1.
<mgrwt>
<rscale>  0 0.13064280E+03</rscale>
<asrwt>0</asrwt>
<pdfrwt beam="2">  1        1 0.13715375E+00 0.13860599E+03</pdfrwt>
<pdfrwt beam="1">  1       -1 0.26611599E-02 0.13860599E+03</pdfrwt>
<totfact> 0.84411695E+03</totfact>
</mgrwt>
</event>
<event>
 6    1  0.7457796E-006  0.1289458E+03  0.7546771E-02  0.1239357E+00
          2   -1    0    0  501    0  0.00000000000E+00  0.00000000000E+00  0.12684299288E+03  0.12684299288E+03  0.00000000000E+00 0. -1.
         -2   -1    0    0    0  501 -0.00000000000E+00 -0.00000000000E+00 -0.11602590162E+03  0.11602590162E+03  0.00000000000E+00 0.  1.
          5    1    1    2  502    0  0.12134102323E+02 -0.34233011379E+02  0.77088518560E+01  0.37425284290E+02  0.47000000000E+01 0. -1.
         -5    1    1    2    0  502 -0.35181227618E+02  0.80141985483E+02 -0.34982237123E+02  0.94373214039E+02  0.47000000000E+01 0.  1.
        -11    1    1    2    0    0 -0.99253815865E+01 -0.10602907527E+02  0.57278209129E+02  0.59090846065E+02  0.00000000000E+00 0.  1.
         11    1    1    2    0    0  0.32972506882E+02 -0.35306066577E+02 -0.19187732599E+02  0.51979550109E+02  0.00000000000E+00 0. -1.
<mgrwt>
<rscale>  0 0.12229609E+03</rscale>
<asrwt>0</asrwt>
<pdfrwt beam="1">  1        2 0.19514307E-01 0.12894575E+03</pdfrwt>
<pdfrwt beam="2">  1       -2 0.17850139E-01 0.12894575E+03</pdfrwt>
<totfact> 0.68893827E+03</totfact>
</mgrwt>
</event>
<event>
 6    1  0.7457796E-006  0.1250970E+03  0.7546771E-02  0.1250270E+00
          1   -1    0    0  501    0  0.00000000000E+00  0.00000000000E+00  0.25671852047E+03  0.25671852047E+03  0.00000000000E+00 0. -1.
         -1   -1    0    0    0  501 -0.00000000000E+00 -0.00000000000E+00 -0.59054342335E+02  0.59054342335E+02  0.00000000000E+00 0.  1.
          5    1    1    2  502    0  0.34795258788E+02  0.46594390481E+02  0.40460797271E+00  0.58343816862E+02  0.47000000000E+01 0.  1.
         -5    1    1    2    0  502 -0.34730868844E+02 -0.51478159342E+02  0.36044554942E+02  0.71955083773E+02  0.47000000000E+01 0.  1.
        -11    1    1    2    0    0  0.26305238141E+02 -0.32378478760E+02  0.10548488998E+03  0.11343453378E+03  0.00000000000E+00 0. -1.
         11    1    1    2    0    0 -0.26369628085E+02  0.37262247621E+02  0.55730125241E+02  0.72039428388E+02  0.00000000000E+00 0.  1.
<mgrwt>
<rscale>  0 0.11575418E+03</rscale>
<asrwt>0</asrwt>
<pdfrwt beam="1">  1        1 0.39495156E-01 0.12509701E+03</pdfrwt>
<pdfrwt beam="2">  1       -1 0.90852836E-02 0.12509701E+03</pdfrwt>
<totfact> 0.71412209E+03</totfact>
</mgrwt>
</event>
<event>
 6    1  0.7457796E-006  0.2352530E+03  0.7546771E-02  0.1122996E+00
          2   -1    0    0  501    0  0.00000000000E+00  0.00000000000E+00  0.57861481433E+03  0.57861481433E+03  0.00000000000E+00 0. -1.
         -2   -1    0    0    0  501 -0.00000000000E+00 -0.00000000000E+00 -0.23912272091E+02  0.23912272091E+02  0.00000000000E+00 0.  1.
          5    1    1    2  502    0  0.11918226457E+02  0.22311376016E+01 -0.10380572694E+02  0.16639362558E+02  0.47000000000E+01 0. -1.
         -5    1    1    2    0  502 -0.46736157167E+02  0.14468889635E+02  0.26615839047E+03  0.27065844892E+03  0.47000000000E+01 0. -1.
        -11    1    1    2    0    0  0.34973908132E+02  0.23143103734E+02  0.61210434421E+02  0.74199021439E+02  0.00000000000E+00 0.  1.
         11    1    1    2    0    0 -0.15597742214E+00 -0.39843130970E+02  0.23771429004E+03  0.24103025350E+03  0.00000000000E+00 0. -1.
<mgrwt>
<rscale>  0 0.23525301E+03</rscale>
<asrwt>0</asrwt>
<pdfrwt beam="1">  1        2 0.89017653E-01 0.23525301E+03</pdfrwt>
<pdfrwt beam="2">  1       -2 0.36788115E-02 0.23525301E+03</pdfrwt>
<totfact> 0.16171231E+04</totfact>
</mgrwt>
</event>
<event>
 6    1  0.7457796E-006  0.3635814E+03  0.7546771E-02  0.1057175E+00
         -1   -1    0    0    0  501 -0.00000000000E+00  0.00000000000E+00  0.46942925999E+02  0.46942925999E+02  0.00000000000E+00 0.  1.
          1   -1    0    0  501    0  0.00000000000E+00 -0.00000000000E+00 -0.70400081047E+03  0.70400081047E+03  0.00000000000E+00 0. -1.
          5    1    1    2  502    0  0.34682180415E+02 -0.23798912108E+01 -0.49572867546E+02  0.60729537436E+02  0.47000000000E+01 0. -1.
         -5    1    1    2    0  502 -0.52300163123E+02  0.14767072198E+03 -0.28530497768E+03  0.32551953779E+03  0.47000000000E+01 0. -1.
        -11    1    1    2    0    0  0.34818175145E+02 -0.52016745057E+02 -0.63454887170E+02  0.89132316208E+02  0.00000000000E+00 0.  1.
         11    1    1    2    0    0 -0.17200192437E+02 -0.93274085713E+02 -0.25872515207E+03  0.27556234504E+03  0.00000000000E+00 0. -1.
<mgrwt>
<rscale>  0 0.36358140E+03</rscale>
<asrwt>0</asrwt>
<pdfrwt beam="2">  1        1 0.10830781E+00 0.36358140E+03</pdfrwt>
<pdfrwt beam="1">  1       -1 0.72219887E-02 0.36358140E+03</pdfrwt>
<totfact> 0.28249431E+03</totfact>
</mgrwt>
</event>
<event>
 6    1  0.7457796E-006  0.1264859E+03  0.7546771E-02  0.1248003E+00
         -2   -1    0    0    0  501 -0.00000000000E+00  0.00000000000E+00  0.72284392635E+03  0.72284392635E+03  0.00000000000E+00 0.  1.
          2   -1    0    0  501    0  0.00000000000E+00 -0.00000000000E+00 -0.19435365877E+02  0.19435365877E+02  0.00000000000E+00 0. -1.
          5    1    1    2  502    0 -0.47644239997E+02  0.29313986973E+02  0.31097418289E+03  0.31600049978E+03  0.47000000000E+01 0. -1.
         -5    1    1    2    0  502  0.45688966001E+02 -0.48547392910E+02  0.22632981523E+03  0.23599069099E+03  0.47000000000E+01 0. -1.
        -11    1    1    2    0    0 -0.84355996785E+01  0.40177935887E+02  0.26781976275E+02  0.49017345167E+02  0.00000000000E+00 0. -1.
         11    1    1    2    0    0  0.10390873675E+02 -0.20944529951E+02  0.13932258608E+03  0.14127075629E+03  0.00000000000E+00 0.  1.
<mgrwt>
<rscale>  0 0.11707461E+03</rscale>
<asrwt>0</asrwt>
<pdfrwt beam="2">  1        2 0.29900569E-02 0.12648592E+03</pdfrwt>
<pdfrwt beam="1">  1       -2 0.11120674E+00 0.12648592E+03</pdfrwt>
<totfact> 0.20022863E+03</totfact>
</mgrwt>
</event>
<event>
 6    1  0.7457796E-006  0.2498126E+03  0.7546771E-02  0.1117585E+00
          2   -1    0    0  501    0  0.00000000000E+00  0.00000000000E+00  0.16493803843E+04  0.16493803843E+04  0.00000000000E+00 0. -1.
         -2   -1    0    0    0  501 -0.00000000000E+00 -0.00000000000E+00 -0.40374260619E+02  0.40374260619E+02  0.00000000000E+00 0.  1.
          5    1    1    2  502    0  0.21987647100E+02  0.62273711848E+02  0.30490254827E+03  0.31200821424E+03  0.47000000000E+01 0. -1.
         -5    1    1    2    0  502 -0.52140041397E+02  0.14363099173E+03  0.20422314581E+03  0.25510317322E+03  0.47000000000E+01 0.  1.
        -11    1    1    2    0    0 -0.29544698431E+02 -0.51377031302E+02  0.28935102043E+03  0.29535825970E+03  0.00000000000E+00 0.  1.
         11    1    1    2    0    0  0.59697092727E+02 -0.15452767228E+03  0.81052940922E+03  0.82728499780E+03  0.00000000000E+00 0. -1.
<mgrwt>
<rscale>  0 0.24334357E+03</rscale>
<asrwt>0</asrwt>
<pdfrwt beam="1">  1        2 0.25375078E+00 0.24981264E+03</pdfrwt>
<pdfrwt beam="2">  1       -2 0.62114260E-02 0.24981264E+03</pdfrwt>
<totfact> 0.15962861E+03</totfact>
</mgrwt>
</event>
<event>
 6    1  0.7457796E-006  0.1266975E+03  0.7546771E-02  0.1244588E+00
          2   -1    0    0  501    0  0.00000000000E+00  0.00000000000E+00  0.99596752266E+02  0.99596752266E+02  0.00000000000E+00 0. -1.
         -2   -1    0    0    0  501 -0.00000000000E+00 -0.00000000000E+00 -0.14125311187E+03  0.14125311187E+03  0.00000000000E+00 0.  1.
          5    1    1    2  502    0 -0.98934472544E+01 -0.26198289259E+02 -0.82165561508E+02  0.86933883824E+02  0.47000000000E+01 0.  1.
         -5    1    1    2    0  502  0.22025754763E+02  0.42936047420E+02  0.22096592693E+02  0.53282149446E+02  0.47000000000E+01 0.  1.
        -11    1    1    2    0    0  0.27012306151E+02  0.12426029093E+02  0.37815396886E+02  0.48104834728E+02  0.00000000000E+00 0. -1.
         11    1    1    2    0    0 -0.39144613659E+02 -0.29163787254E+02 -0.19402787670E+02  0.52528996134E+02  0.00000000000E+00 0.  1.
<mgrwt>
<rscale>  0 0.11910049E+03</rscale>
<asrwt>0</asrwt>
<pdfrwt beam="1">  1        2 0.15322577E-01 0.12669749E+03</pdfrwt>
<pdfrwt beam="2">  1       -2 0.21731248E-01 0.12669749E+03</pdfrwt>
<totfact> 0.65185609E+03</totfact>
</mgrwt>
</event>
<event>
 6    1  0.7457796E-006  0.1935224E+03  0.7546771E-02  0.1160004E+00
         -3   -1    0    0    0  501 -0.00000000000E+00  0.00000000000E+00  0.59391405268E+02  0.59391405268E+02  0.00000000000E+00 0.  1.
          3   -1    0    0  501    0  0.00000000000E+00 -0.00000000000E+00 -0.85649593368E+03  0.85649593368E+03  0.00000000000E+00 0. -1.
          5    1    1    2  502    0 -0.87386219053E+01 -0.70144541214E+02  0.35824102636E+01  0.70933376053E+02  0.47000000000E+01 0. -1.
         -5    1    1    2    0  502  0.35829846154E+02 -0.75087360070E+02 -0.15053530717E+03  0.17206062369E+03  0.47000000000E+01 0. -1.
        -11    1    1    2    0    0  0.17407260842E+02 -0.25123403239E+01 -0.43372069380E+02  0.46802360905E+02  0.00000000000E+00 0. -1.
         11    1    1    2    0    0 -0.44498485090E+02  0.14774424161E+03 -0.60677956212E+03  0.62609097830E+03  0.00000000000E+00 0.  1.
<mgrwt>
<rscale>  0 0.18829908E+03</rscale>
<asrwt>0</asrwt>
<pdfrwt beam="2">  1        3 0.13176860E+00 0.19352243E+03</pdfrwt>
<pdfrwt beam="1">  1       -3 0.91371396E-02 0.19352243E+03</pdfrwt>
<totfact> 0.98852727E+01</totfact>
</mgrwt>
</event>
<event>
 6    1  0.7457796E-006  0.2953069E+03  0.7546771E-02  0.1087610E+00
         -1   -1    0    0    0  501 -0.00000000000E+00  0.00000000000E+00  0.23123975127E+02  0.23123975127E+02  0.00000000000E+00 0.  1.
          1   -1    0    0  501    0  0.00000000000E+00 -0.00000000000E+00 -0.94281090724E+03  0.94281090724E+03  0.00000000000E+00 0. -1.
          5    1    1    2  502    0 -0.75400368701E+01  0.15127060090E+02 -0.80818703027E+01  0.19315453154E+02  0.47000000000E+01 0.  1.
         -5    1    1    2    0  502  0.10272859515E+03 -0.39323821467E+02 -0.55289456952E+03  0.56374996426E+03  0.47000000000E+01 0.  1.
        -11    1    1    2    0    0 -0.23212772335E+02  0.14890513444E+02 -0.14630363894E+02  0.31218708137E+02  0.00000000000E+00 0.  1.
         11    1    1    2    0    0 -0.71975785944E+02  0.93062479329E+01 -0.34408012839E+03  0.35165075681E+03  0.00000000000E+00 0. -1.
<mgrwt>
<rscale>  0 0.29530686E+03</rscale>
<asrwt>0</asrwt>
<pdfrwt beam="2">  1        1 0.14504780E+00 0.29530686E+03</pdfrwt>
<pdfrwt beam="1">  1       -1 0.35575354E-02 0.29530686E+03</pdfrwt>
<totfact> 0.51833172E+03</totfact>
</mgrwt>
</event>
<event>
 6    1  0.7457796E-006  0.1895865E+03  0.7546771E-02  0.1163663E+00
         -1   -1    0    0    0  501 -0.00000000000E+00  0.00000000000E+00  0.15778618301E+03  0.15778618301E+03  0.00000000000E+00 0.  1.
          1   -1    0    0  501    0  0.00000000000E+00 -0.00000000000E+00 -0.24211672333E+03  0.24211672333E+03  0.00000000000E+00 0. -1.
          5    1    1    2  502    0 -0.45725653117E+02 -0.10580457594E+03  0.71407831023E+02  0.13567096953E+03  0.47000000000E+01 0.  1.
         -5    1    1    2    0  502  0.25486568425E+02 -0.35293969283E+02 -0.36618613216E+02  0.57081014985E+02  0.47000000000E+01 0.  1.
        -11    1    1    2    0    0 -0.19549316458E+02  0.81599065094E+01 -0.45216682958E+02  0.49933037820E+02  0.00000000000E+00 0.  1.
         11    1    1    2    0    0  0.39788401149E+02  0.13293863871E+03 -0.73903075165E+02  0.15721788400E+03  0.00000000000E+00 0. -1.
<mgrwt>
<rscale>  0 0.18434542E+03</rscale>
<asrwt>0</asrwt>
<pdfrwt beam="2">  1        1 0.37248727E-01 0.18958649E+03</pdfrwt>
<pdfrwt beam="1">  1       -1 0.24274797E-01 0.18958649E+03</pdfrwt>
<totfact> 0.16662086E+03</totfact>
</mgrwt>
</event>
<event>
 6    1  0.7457796E-006  0.1264540E+03  0.7546771E-02  0.1247627E+00
         -1   -1    0    0    0  501 -0.00000000000E+00  0.00000000000E+00  0.36131678038E+02  0.36131678038E+02  0.00000000000E+00 0.  1.
          1   -1    0    0  501    0  0.00000000000E+00 -0.00000000000E+00 -0.36007603293E+03  0.36007603293E+03  0.00000000000E+00 0. -1.
          5    1    1    2  502    0 -0.11698269987E+02 -0.54624768087E+01 -0.15394122901E+03  0.15455316290E+03  0.47000000000E+01 0. -1.
         -5    1    1    2    0  502  0.13429247780E+02 -0.13519103230E+02  0.21124033204E+02  0.28834452082E+02  0.47000000000E+01 0. -1.
        -11    1    1    2    0    0  0.44591414798E+01  0.51307788899E+02 -0.67599351141E+02  0.84982618335E+02  0.00000000000E+00 0.  1.
         11    1    1    2    0    0 -0.61901192726E+01 -0.32326208860E+02 -0.12352780794E+03  0.12783747765E+03  0.00000000000E+00 0. -1.
<mgrwt>
<rscale>  0 0.11729507E+03</rscale>
<asrwt>0</asrwt>
<pdfrwt beam="2">  1        1 0.55396312E-01 0.12645398E+03</pdfrwt>
<pdfrwt beam="1">  1       -1 0.55587198E-02 0.12645398E+03</pdfrwt>
<totfact> 0.98167694E+03</totfact>
</mgrwt>
</event>
<event>
 6    1  0.7457796E-006  0.1447381E+03  0.7546771E-02  0.1225027E+00
         -2   -1    0    0    0  501 -0.00000000000E+00  0.00000000000E+00  0.28164329979E+02  0.28164329979E+02  0.00000000000E+00 0.  1.
          2   -1    0    0  501    0  0.00000000000E+00 -0.00000000000E+00 -0.52772886890E+03  0.52772886890E+03  0.00000000000E+00 0. -1.
          5    1    1    2  502    0 -0.12304797342E+01 -0.17471953364E+02  0.29041218646E+01  0.18365923841E+02  0.47000000000E+01 0. -1.
         -5    1    1    2    0  502  0.53242616628E+02  0.68653749468E+02 -0.29595603764E+03  0.30848043659E+03  0.47000000000E+01 0. -1.
        -11    1    1    2    0    0 -0.33905730855E+02 -0.35272266029E+02 -0.19724691662E+03  0.20322420489E+03  0.00000000000E+00 0. -1.
         11    1    1    2    0    0 -0.18106406039E+02 -0.15909530075E+02 -0.92657065267E+01  0.25822633566E+02  0.00000000000E+00 0.  1.
<mgrwt>
<rscale>  0 0.13165077E+03</rscale>
<asrwt>0</asrwt>
<pdfrwt beam="2">  1        2 0.81189067E-01 0.14473810E+03</pdfrwt>
<pdfrwt beam="1">  1       -2 0.43329733E-02 0.14473810E+03</pdfrwt>
<totfact> 0.13578889E+04</totfact>
</mgrwt>
</event>
<event>
 6    1  0.7457796E-006  0.3635968E+03  0.7546771E-02  0.1057169E+00
          1   -1    0    0  501    0  0.00000000000E+00  0.00000000000E+00  0.62829515605E+03  0.62829515605E+03  0.00000000000E+00 0. -1.
         -1   -1    0    0    0  501 -0.00000000000E+00 -0.00000000000E+00 -0.52603708631E+02  0.52603708631E+02  0.00000000000E+00 0.  1.
          5    1    1    2  502    0 -0.14571673023E+01 -0.73300126749E+01 -0.11702576536E+02  0.14659219623E+02  0.47000000000E+01 0.  1.
         -5    1    1    2    0  502  0.56450743357E+02 -0.12803479335E+03  0.31126372490E+03  0.34130161320E+03  0.47000000000E+01 0.  1.
        -11    1    1    2    0    0  0.15088506622E+02  0.19136112488E+02  0.10283640737E+02  0.26450086957E+02  0.00000000000E+00 0.  1.
         11    1    1    2    0    0 -0.70082082677E+02  0.11622869353E+03  0.26584665832E+03  0.29848794490E+03  0.00000000000E+00 0. -1.
<mgrwt>
<rscale>  0 0.36359678E+03</rscale>
<asrwt>0</asrwt>
<pdfrwt beam="1">  1        1 0.96660788E-01 0.36359678E+03</pdfrwt>
<pdfrwt beam="2">  1       -1 0.80928787E-02 0.36359678E+03</pdfrwt>
<totfact> 0.27969351E+03</totfact>
</mgrwt>
</event>
<event>
 6    1  0.7457796E-006  0.2325340E+03  0.7546771E-02  0.1126218E+00
          2   -1    0    0  501    0  0.00000000000E+00  0.00000000000E+00  0.92343665370E+02  0.92343665370E+02  0.00000000000E+00 0. -1.
         -2   -1    0    0    0  501 -0.00000000000E+00 -0.00000000000E+00 -0.57954839077E+03  0.57954839077E+03  0.00000000000E+00 0.  1.
          5    1    1    2  502    0  0.38646422879E+02 -0.20134788280E+02 -0.17757393617E+03  0.18290311235E+03  0.47000000000E+01 0. -1.
         -5    1    1    2    0  502  0.11609722867E+03 -0.10028652665E+03 -0.12045269796E+03  0.19510739704E+03  0.47000000000E+01 0. -1.
        -11    1    1    2    0    0 -0.35982364157E+02  0.93888601424E+02 -0.63373185718E+02  0.11885268476E+03  0.00000000000E+00 0.  1.
         11    1    1    2    0    0 -0.11876128739E+03  0.26532713511E+02 -0.12580490555E+03  0.17502886199E+03  0.00000000000E+00 0. -1.
<mgrwt>
<rscale>  0 0.23060042E+03</rscale>
<asrwt>0</asrwt>
<pdfrwt beam="1">  1        2 0.14206718E-01 0.23253402E+03</pdfrwt>
<pdfrwt beam="2">  1       -2 0.89161291E-01 0.23253402E+03</pdfrwt>
<totfact> 0.46438206E+02</totfact>
</mgrwt>
</event>
<event>
 6    1  0.7457796E-006  0.1385339E+03  0.7546771E-02  0.1226224E+00
         -3   -1    0    0    0  501 -0.00000000000E+00  0.00000000000E+00  0.27097438084E+03  0.27097438084E+03  0.00000000000E+00 0.  1.
          3   -1    0    0  501    0  0.00000000000E+00 -0.00000000000E+00 -0.58115607664E+02  0.58115607664E+02  0.00000000000E+00 0. -1.
          5    1    1    2  502    0  0.62841094434E+02 -0.34594961447E+02  0.74676433166E+02  0.10365555546E+03  0.47000000000E+01 0.  1.
         -5    1    1    2    0  502 -0.11696369767E+02  0.65415137992E+02  0.65448173071E+02  0.93388964565E+02  0.47000000000E+01 0.  1.
        -11    1    1    2    0    0 -0.62987538510E+01 -0.22614027820E+02 -0.18609576180E+02  0.29956382958E+02  0.00000000000E+00 0. -1.
         11    1    1    2    0    0 -0.44845970816E+02 -0.82061487245E+01  0.91343743117E+02  0.10208908552E+03  0.00000000000E+00 0.  1.
<mgrwt>
<rscale>  0 0.13083383E+03</rscale>
<asrwt>0</asrwt>
<pdfrwt beam="2">  1        3 0.89408629E-02 0.13853389E+03</pdfrwt>
<pdfrwt beam="1">  1       -3 0.41688365E-01 0.13853389E+03</pdfrwt>
<totfact> 0.11761505E+03</totfact>
</mgrwt>
</event>
<event>
 6    1  0.7457796E-006  0.4329330E+03  0.7546771E-02  0.1033632E+00
         -2   -1    0    0    0  501 -0.00000000000E+00  0.00000000000E+00  0.14973659439E+03  0.14973659439E+03  0.00000000000E+00 0.  1.
          2   -1    0    0  501    0  0.00000000000E+00 -0.00000000000E+00 -0.12321130711E+04  0.12321130711E+04  0.00000000000E+00 0. -1.
          5    1    1    2  502    0 -0.33952626619E+03  0.21262504742E+03 -0.54868978311E+03  0.67938947910E+03  0.47000000000E+01 0.  1.
         -5    1    1    2    0  502  0.46323034792E+01  0.31613987534E+02 -0.44700095582E+02  0.55146087697E+02  0.47000000000E+01 0.  1.
        -11    1    1    2    0    0  0.32540686954E+03 -0.23288797148E+03 -0.48982228037E+03  0.63249688091E+03  0.00000000000E+00 0. -1.
         11    1    1    2    0    0  0.94870931623E+01 -0.11351063476E+02  0.83568233324E+00  0.14817217812E+02  0.00000000000E+00 0.  1.
<mgrwt>
<rscale>  0 0.43072164E+03</rscale>
<asrwt>0</asrwt>
<pdfrwt beam="2">  1        2 0.18955586E+00 0.43293296E+03</pdfrwt>
<pdfrwt beam="1">  1       -2 0.23036399E-01 0.43293296E+03</pdfrwt>
<totfact> 0.31113047E+02</totfact>
</mgrwt>
</event>
<event>
 6    1  0.7457796E-006  0.3871556E+03  0.7546771E-02  0.1048320E+00
         -1   -1    0    0    0  501 -0.00000000000E+00  0.00000000000E+00  0.11581780530E+03  0.11581780530E+03  0.00000000000E+00 0.  1.
          1   -1    0    0  501    0  0.00000000000E+00 -0.00000000000E+00 -0.32354576691E+03  0.32354576691E+03  0.00000000000E+00 0. -1.
          5    1    1    2  502    0 -0.73396499286E+01 -0.16772643149E+03 -0.56671898463E+02  0.17725636902E+03  0.47000000000E+01 0. -1.
         -5    1    1    2    0  502  0.15811608442E+02  0.80101845529E+01 -0.47480326383E+02  0.50898343897E+02  0.47000000000E+01 0. -1.
        -11    1    1    2    0    0 -0.34655445025E+02  0.95875638109E+02 -0.98920276904E+02  0.14205055099E+03  0.00000000000E+00 0.  1.
         11    1    1    2    0    0  0.26183486512E+02  0.63840608832E+02 -0.46554598629E+01  0.69158308311E+02  0.00000000000E+00 0. -1.
<mgrwt>
<rscale>  0 0.38715558E+03</rscale>
<asrwt>0</asrwt>
<pdfrwt beam="2">  1        1 0.49776271E-01 0.38715558E+03</pdfrwt>
<pdfrwt beam="1">  1       -1 0.17818124E-01 0.38715558E+03</pdfrwt>
<totfact> 0.19465777E+03</totfact>
</mgrwt>
</event>
<event>
 6    1  0.7457796E-006  0.1634165E+03  0.7546771E-02  0.1195725E+00
          1   -1    0    0  501    0  0.00000000000E+00  0.00000000000E+00  0.14639298375E+03  0.14639298375E+03  0.00000000000E+00 0. -1.
         -1   -1    0    0    0  501 -0.00000000000E+00 -0.00000000000E+00 -0.18727936997E+03  0.18727936997E+03  0.00000000000E+00 0.  1.
          5    1    1    2  502    0 -0.37650992763E+02 -0.52311312686E+01 -0.11654986463E+02  0.40036117442E+02  0.47000000000E+01 0. -1.
         -5    1    1    2    0  502  0.10314479124E+03  0.67018164551E+02 -0.88880883661E+02  0.15182945637E+03  0.47000000000E+01 0.  1.
        -11    1    1    2    0    0 -0.35044796607E+02  0.47543469770E+01 -0.13951772728E+02  0.38018331718E+02  0.00000000000E+00 0.  1.
         11    1    1    2    0    0 -0.30449001872E+02 -0.66541380259E+02  0.73601256628E+02  0.10378844820E+03  0.00000000000E+00 0. -1.
<mgrwt>
<rscale>  0 0.15393068E+03</rscale>
<asrwt>0</asrwt>
<pdfrwt beam="1">  1        1 0.22521997E-01 0.16341645E+03</pdfrwt>
<pdfrwt beam="2">  1       -1 0.28812211E-01 0.16341645E+03</pdfrwt>
<totfact> 0.23463187E+03</totfact>
</mgrwt>
</event>
<event>
 6    1  0.7457796E-006  0.1337445E+03  0.7546771E-02  0.1235179E+00
          1   -1    0    0  501    0  0.00000000000E+00  0.00000000000E+00  0.19746317954E+03  0.19746317954E+03  0.00000000000E+00 0. -1.
         -1   -1    0    0    0  501 -0.00000000000E+00 -0.00000000000E+00 -0.70255749789E+02  0.70255749789E+02  0.00000000000E+00 0.  1.
          5    1    1    2  502    0  0.49084249677E+01  0.62013874191E+02  0.65700425058E+02  0.90600491614E+02  0.47000000000E+01 0.  1.
         -5    1    1    2    0  502 -0.46694848648E+02 -0.39203942394E+02  0.67924538521E+01  0.61527111251E+02  0.47000000000E+01 0.  1.
        -11    1    1    2    0    0 -0.24829701561E+02  0.97754378816E+01  0.21795380697E+02  0.34454490057E+02  0.00000000000E+00 0. -1.
         11    1    1    2    0    0  0.66616125241E+02 -0.32585369679E+02  0.32919170144E+02  0.81136836408E+02  0.00000000000E+00 0.  1.
<mgrwt>
<rscale>  0 0.12493010E+03</rscale>
<asrwt>0</asrwt>
<pdfrwt beam="1">  1        1 0.30378951E-01 0.13374450E+03</pdfrwt>
<pdfrwt beam="2">  1       -1 0.10808577E-01 0.13374450E+03</pdfrwt>
<totfact> 0.76195593E+03</totfact>
</mgrwt>
</event>
<event>
 6    1  0.7457796E-006  0.2099247E+03  0.7546771E-02  0.1145241E+00
         -2   -1    0    0    0  501 -0.00000000000E+00  0.00000000000E+00  0.47095019550E+02  0.47095019550E+02  0.00000000000E+00 0.  1.
          2   -1    0    0  501    0  0.00000000000E+00 -0.00000000000E+00 -0.89595212062E+03  0.89595212062E+03  0.00000000000E+00 0. -1.
          5    1    1    2  502    0  0.72013221184E+02 -0.10202393238E+01 -0.79317805219E+02  0.10723968080E+03  0.47000000000E+01 0. -1.
         -5    1    1    2    0  502  0.39494409070E+02 -0.12550595343E+03 -0.26794241028E+03  0.29854108247E+03  0.47000000000E+01 0. -1.
        -11    1    1    2    0    0 -0.62596198585E+02  0.39270832100E+02 -0.33409700861E+03  0.34217143874E+03  0.00000000000E+00 0.  1.
         11    1    1    2    0    0 -0.48911431669E+02  0.87255360659E+02 -0.16749987697E+03  0.19509493816E+03  0.00000000000E+00 0. -1.
<mgrwt>
<rscale>  0 0.20542559E+03</rscale>
<asrwt>0</asrwt>
<pdfrwt beam="2">  1        2 0.13783878E+00 0.20992468E+03</pdfrwt>
<pdfrwt beam="1">  1       -2 0.72453878E-02 0.20992468E+03</pdfrwt>
<totfact> 0.33499720E+03</totfact>
</mgrwt>
</event>
<event>
 6    1  0.7457796E-006  0.1363594E+03  0.7546771E-02  0.1231259E+00
          2   -1    0    0  501    0  0.00000000000E+00  0.00000000000E+00  0.21439960286E+03  0.21439960286E+03  0.00000000000E+00 0.  1.
         -2   -1    0    0    0  501 -0.00000000000E+00 -0.00000000000E+00 -0.70069308145E+02  0.70069308145E+02  0.00000000000E+00 0. -1.
          5    1    1    2  502    0  0.77187826848E+02 -0.29320074021E+02 -0.15964939474E+01  0.82717991677E+02  0.47000000000E+01 0.  1.
         -5    1    1    2    0  502 -0.31081751616E+02  0.28364388231E+00  0.55747342142E+02  0.64000092916E+02  0.47000000000E+01 0.  1.
        -11    1    1    2    0    0  0.93235138627E+01 -0.21738501445E+02  0.42781988990E+02  0.48885467552E+02  0.00000000000E+00 0.  1.
         11    1    1    2    0    0 -0.55429589095E+02  0.50774931584E+02  0.47397457527E+02  0.88865358856E+02  0.00000000000E+00 0. -1.
<mgrwt>
<rscale>  0 0.12746978E+03</rscale>
<asrwt>0</asrwt>
<pdfrwt beam="1">  1        2 0.32984554E-01 0.13635939E+03</pdfrwt>
<pdfrwt beam="2">  1       -2 0.10779894E-01 0.13635939E+03</pdfrwt>
<totfact> 0.87870178E+03</totfact>
</mgrwt>
</event>
<event>
 6    1  0.7457796E-006  0.3583819E+03  0.7546771E-02  0.1059226E+00
          2   -1    0    0  501    0  0.00000000000E+00  0.00000000000E+00  0.37489916938E+03  0.37489916938E+03  0.00000000000E+00 0. -1.
         -2   -1    0    0    0  501 -0.00000000000E+00 -0.00000000000E+00 -0.85648080761E+02  0.85648080761E+02  0.00000000000E+00 0.  1.
          5    1    1    2  502    0 -0.54070978799E+02  0.38831569912E+02 -0.56935315809E+02  0.87722755066E+02  0.47000000000E+01 0.  1.
         -5    1    1    2    0  502 -0.75938598942E+01  0.12918818754E+02  0.58908340704E+02  0.60965934673E+02  0.47000000000E+01 0.  1.
        -11    1    1    2    0    0  0.14420563171E+01 -0.50443055738E+02  0.19676917402E+03  0.20313711932E+03  0.00000000000E+00 0. -1.
         11    1    1    2    0    0  0.60222782376E+02 -0.13073329282E+01  0.90508889699E+02  0.10872144108E+03  0.00000000000E+00 0.  1.
<mgrwt>
<rscale>  0 0.35838189E+03</rscale>
<asrwt>0</asrwt>
<pdfrwt beam="1">  1        2 0.57676795E-01 0.35838189E+03</pdfrwt>
<pdfrwt beam="2">  1       -2 0.13176628E-01 0.35838189E+03</pdfrwt>
<totfact> 0.36514870E+03</totfact>
</mgrwt>
</event>
<event>
 6    1  0.7457796E-006  0.1295828E+03  0.7546771E-02  0.1242088E+00
         -1   -1    0    0    0  501 -0.00000000000E+00  0.00000000000E+00  0.49814803488E+02  0.49814803488E+02  0.00000000000E+00 0.  1.
          1   -1    0    0  501    0  0.00000000000E+00 -0.00000000000E+00 -0.30905266003E+03  0.30905266003E+03  0.00000000000E+00 0. -1.
          5    1    1    2  502    0 -0.10298158879E+02  0.71639307315E+02 -0.81274290630E+02  0.10893044912E+03  0.47000000000E+01 0. -1.
         -5    1    1    2    0  502  0.18033178561E+01 -0.38545846387E+02  0.83540826262E+01  0.39760720887E+02  0.47000000000E+01 0. -1.
        -11    1    1    2    0    0 -0.31843177447E+02  0.14376740973E+02 -0.69429794784E+02  0.77724996202E+02  0.00000000000E+00 0.  1.
         11    1    1    2    0    0  0.40338018469E+02 -0.47470201901E+02 -0.11688785376E+03  0.13245129731E+03  0.00000000000E+00 0. -1.
<mgrwt>
<rscale>  0 0.12061348E+03</rscale>
<asrwt>0</asrwt>
<pdfrwt beam="2">  1        1 0.47546563E-01 0.12958282E+03</pdfrwt>
<pdfrwt beam="1">  1       -1 0.76638159E-02 0.12958282E+03</pdfrwt>
<totfact> 0.73612244E+03</totfact>
</mgrwt>
</event>
<event>
 6    1  0.7457796E-006  0.1374882E+03  0.7546771E-02  0.1227727E+00
          2   -1    0    0  501    0  0.00000000000E+00  0.00000000000E+00  0.31812261226E+03  0.31812261226E+03  0.00000000000E+00 0.  1.
         -2   -1    0    0    0  501 -0.00000000000E+00 -0.00000000000E+00 -0.51735044125E+02  0.51735044125E+02  0.00000000000E+00 0. -1.
          5    1    1    2  502    0  0.15990622805E+02  0.23404133637E+02  0.78358531123E+02  0.83460187447E+02  0.47000000000E+01 0.  1.
         -5    1    1    2    0  502 -0.17829215200E+02 -0.80621673990E+02  0.18575851909E+02  0.84763715738E+02  0.47000000000E+01 0.  1.
        -11    1    1    2    0    0 -0.49643707475E+01  0.81435700978E+02  0.14595581266E+03  0.16721099731E+03  0.00000000000E+00 0.  1.
         11    1    1    2    0    0  0.68029631427E+01 -0.24218160625E+02  0.23497372438E+02  0.34422755890E+02  0.00000000000E+00 0. -1.
<mgrwt>
<rscale>  0 0.12981736E+03</rscale>
<asrwt>0</asrwt>
<pdfrwt beam="1">  1        2 0.48941939E-01 0.13748821E+03</pdfrwt>
<pdfrwt beam="2">  1       -2 0.79592377E-02 0.13748821E+03</pdfrwt>
<totfact> 0.92775586E+03</totfact>
</mgrwt>
</event>
<event>
 6    1  0.7457796E-006  0.1259820E+03  0.7546771E-02  0.1248627E+00
         -3   -1    0    0    0  501 -0.00000000000E+00  0.00000000000E+00  0.11247002910E+03  0.11247002910E+03  0.00000000000E+00 0.  1.
          3   -1    0    0  501    0  0.00000000000E+00 -0.00000000000E+00 -0.12192579797E+03  0.12192579797E+03  0.00000000000E+00 0. -1.
          5    1    1    2  502    0 -0.36204418904E+02 -0.18922820378E+02  0.62266142860E+02  0.74619003115E+02  0.47000000000E+01 0. -1.
         -5    1    1    2    0  502  0.48815953551E+02  0.95989234996E+01 -0.26199868818E+02  0.56423929139E+02  0.47000000000E+01 0. -1.
        -11    1    1    2    0    0 -0.25865513306E+02  0.27919057080E+02  0.13250703829E+02  0.40299871945E+02  0.00000000000E+00 0.  1.
         11    1    1    2    0    0  0.13253978659E+02 -0.18595160201E+02 -0.58772746747E+02  0.63053022873E+02  0.00000000000E+00 0. -1.
<mgrwt>
<rscale>  0 0.11670894E+03</rscale>
<asrwt>0</asrwt>
<pdfrwt beam="2">  1        3 0.18757815E-01 0.12598204E+03</pdfrwt>
<pdfrwt beam="1">  1       -3 0.17303081E-01 0.12598204E+03</pdfrwt>
<totfact> 0.16504208E+03</totfact>
</mgrwt>
</event>
<event>
 6    1  0.7457796E-006  0.1699903E+03  0.7546771E-02  0.1184313E+00
          1   -1    0    0  501    0  0.00000000000E+00  0.00000000000E+00  0.24556007509E+03  0.24556007509E+03  0.00000000000E+00 0. -1.
         -1   -1    0    0    0  501 -0.00000000000E+00 -0.00000000000E+00 -0.11014484974E+03  0.11014484974E+03  0.00000000000E+00 0.  1.
          5    1    1    2  502    0  0.35205906595E+02  0.16257671408E+02 -0.10401135835E+01  0.39076074202E+02  0.47000000000E+01 0. -1.
         -5    1    1    2    0  502 -0.10718770261E+03  0.73693231721E+02  0.26082174375E+02  0.13274888252E+03  0.47000000000E+01 0. -1.
        -11    1    1    2    0    0  0.48046199804E+02 -0.65892920273E+02  0.15353989671E+02  0.82982282787E+02  0.00000000000E+00 0.  1.
         11    1    1    2    0    0  0.23935596207E+02 -0.24057982855E+02  0.95019174891E+02  0.10089768531E+03  0.00000000000E+00 0. -1.
<mgrwt>
<rscale>  0 0.16394540E+03</rscale>
<asrwt>0</asrwt>
<pdfrwt beam="1">  1        1 0.37778473E-01 0.16999033E+03</pdfrwt>
<pdfrwt beam="2">  1       -1 0.16945362E-01 0.16999033E+03</pdfrwt>
<totfact> 0.29195760E+03</totfact>
</mgrwt>
</event>
<event>
 6    1  0.7457796E-006  0.1354749E+03  0.7546771E-02  0.1231723E+00
          1   -1    0    0  501    0  0.00000000000E+00  0.00000000000E+00  0.36772606907E+02  0.36772606907E+02  0.00000000000E+00 0. -1.
         -1   -1    0    0    0  501 -0.00000000000E+00 -0.00000000000E+00 -0.39813008559E+03  0.39813008559E+03  0.00000000000E+00 0.  1.
          5    1    1    2  502    0 -0.73458944552E+02 -0.40165589727E+02 -0.10264864426E+03  0.13254555934E+03  0.47000000000E+01 0. -1.
         -5    1    1    2    0  502  0.21264137534E+02  0.38210460456E+02 -0.12325256471E+03  0.13086438607E+03  0.47000000000E+01 0. -1.
        -11    1    1    2    0    0  0.53652206985E+02 -0.28445253639E+02 -0.12558521553E+03  0.13949673161E+03  0.00000000000E+00 0.  1.
         11    1    1    2    0    0 -0.14573999668E+01  0.30400382910E+02 -0.98710541773E+01  0.31996015475E+02  0.00000000000E+00 0. -1.
<mgrwt>
<rscale>  0 0.12716575E+03</rscale>
<asrwt>0</asrwt>
<pdfrwt beam="1">  1        1 0.56573241E-02 0.13547488E+03</pdfrwt>
<pdfrwt beam="2">  1       -1 0.61250783E-01 0.13547488E+03</pdfrwt>
<totfact> 0.37558918E+03</totfact>
</mgrwt>
</event>
<event>
 6    1  0.7457796E-006  0.3408670E+03  0.7546771E-02  0.1067581E+00
          2   -1    0    0  501    0  0.00000000000E+00  0.00000000000E+00  0.74719615470E+03  0.74719615470E+03  0.00000000000E+00 0.  1.
         -2   -1    0    0    0  501 -0.00000000000E+00 -0.00000000000E+00 -0.25695704555E+03  0.25695704555E+03  0.00000000000E+00 0. -1.
          5    1    1    2  502    0  0.54632512122E+02 -0.10153577673E+03  0.24106624928E+02  0.11788742385E+03  0.47000000000E+01 0.  1.
         -5    1    1    2    0  502  0.13355974653E+02 -0.20821117705E+03 -0.99591282191E+02  0.23123751814E+03  0.47000000000E+01 0.  1.
        -11    1    1    2    0    0 -0.10590570964E+02  0.70650871792E+01  0.23849459867E+01  0.12952359536E+02  0.00000000000E+00 0. -1.
         11    1    1    2    0    0 -0.57397915811E+02  0.30268186660E+03  0.56333882043E+03  0.64207589872E+03  0.00000000000E+00 0.  1.
<mgrwt>
<rscale>  0 0.33816315E+03</rscale>
<asrwt>0</asrwt>
<pdfrwt beam="1">  1        2 0.11495325E+00 0.34086697E+03</pdfrwt>
<pdfrwt beam="2">  1       -2 0.39531853E-01 0.34086697E+03</pdfrwt>
<totfact> 0.23625370E+02</totfact>
</mgrwt>
</event>
<event>
 6    1  0.7457796E-006  0.1216253E+03  0.7546771E-02  0.1250821E+00
          1   -1    0    0  501    0  0.00000000000E+00  0.00000000000E+00  0.30114736833E+02  0.30114736833E+02  0.00000000000E+00 0. -1.
         -1   -1    0    0    0  501 -0.00000000000E+00 -0.00000000000E+00 -0.63637430193E+03  0.63637430193E+03  0.00000000000E+00 0.  1.
          5    1    1    2  502    0 -0.30187151460E+02 -0.18352241162E+01 -0.46121107346E+02  0.55352314348E+02  0.47000000000E+01 0. -1.
         -5    1    1    2    0  502  0.53277613134E+02 -0.40606141239E+02 -0.47810740358E+03  0.48280031288E+03  0.47000000000E+01 0.  1.
        -11    1    1    2    0    0  0.32594515247E+02  0.10933380030E+02 -0.33809000135E+02  0.48218147136E+02  0.00000000000E+00 0.  1.
         11    1    1    2    0    0 -0.55684976921E+02  0.31507985325E+02 -0.48222054042E+02  0.80118264397E+02  0.00000000000E+00 0. -1.
<mgrwt>
<rscale>  0 0.11543679E+03</rscale>
<asrwt>0</asrwt>
<pdfrwt beam="1">  1        1 0.46330360E-02 0.12162532E+03</pdfrwt>
<pdfrwt beam="2">  1       -1 0.97903748E-01 0.12162532E+03</pdfrwt>
<totfact> 0.18913922E+03</totfact>
</mgrwt>
</event>
<event>
 6    1  0.7457796E-006  0.1330283E+03  0.7546771E-02  0.1235294E+00
          2   -1    0    0  501    0  0.00000000000E+00  0.00000000000E+00  0.12950158192E+03  0.12950158192E+03  0.00000000000E+00 0. -1.
         -2   -1    0    0    0  501 -0.00000000000E+00 -0.00000000000E+00 -0.10791194825E+03  0.10791194825E+03  0.00000000000E+00 0.  1.
          5    1    1    2  502    0 -0.20067759386E+02 -0.76455113936E+02  0.25872442392E+02  0.83304097672E+02  0.47000000000E+01 0. -1.
         -5    1    1    2    0  502  0.32625165377E+02  0.32813994747E+02 -0.18201069588E+02  0.49945256044E+02  0.47000000000E+01 0. -1.
        -11    1    1    2    0    0  0.19698477181E+02  0.32367378733E+01 -0.30197780122E+02  0.36199618777E+02  0.00000000000E+00 0.  1.
         11    1    1    2    0    0 -0.32255883172E+02  0.40404381316E+02  0.44116040983E+02  0.67964557681E+02  0.00000000000E+00 0. -1.
<mgrwt>
<rscale>  0 0.12485609E+03</rscale>
<asrwt>0</asrwt>
<pdfrwt beam="1">  1        2 0.19923320E-01 0.13302834E+03</pdfrwt>
<pdfrwt beam="2">  1       -2 0.16601838E-01 0.13302834E+03</pdfrwt>
<totfact> 0.76071944E+03</totfact>
</mgrwt>
</event>
<event>
 6    1  0.7457796E-006  0.1277988E+03  0.7546771E-02  0.1247418E+00
         -2   -1    0    0    0  501 -0.00000000000E+00  0.00000000000E+00  0.89972833420E+02  0.89972833420E+02  0.00000000000E+00 0.  1.
          2   -1    0    0  501    0  0.00000000000E+00 -0.00000000000E+00 -0.13712075166E+03  0.13712075166E+03  0.00000000000E+00 0. -1.
          5    1    1    2  502    0 -0.16964555595E+02  0.72886752630E+02  0.94459426418E+01  0.75575066575E+02  0.47000000000E+01 0. -1.
         -5    1    1    2    0  502  0.56654910792E+01 -0.48867466609E+02 -0.17689275931E+02  0.52489309054E+02  0.47000000000E+01 0. -1.
        -11    1    1    2    0    0 -0.12289239685E+02  0.79171837977E+01 -0.54459660318E+02  0.56387603365E+02  0.00000000000E+00 0. -1.
         11    1    1    2    0    0  0.23588304200E+02 -0.31936469818E+02  0.15555075371E+02  0.42641606082E+02  0.00000000000E+00 0.  1.
<mgrwt>
<rscale>  0 0.11741821E+03</rscale>
<asrwt>0</asrwt>
<pdfrwt beam="2">  1        2 0.21095500E-01 0.12779879E+03</pdfrwt>
<pdfrwt beam="1">  1       -2 0.13841974E-01 0.12779879E+03</pdfrwt>
<totfact> 0.95706821E+03</totfact>
</mgrwt>
</event>
<event>
 6    1  0.7457796E-006  0.1534115E+03  0.7546771E-02  0.1204848E+00
         -1   -1    0    0    0  501 -0.00000000000E+00  0.00000000000E+00  0.41801427161E+03  0.41801427161E+03  0.00000000000E+00 0.  1.
          1   -1    0    0  501    0  0.00000000000E+00 -0.00000000000E+00 -0.47779943762E+02  0.47779943762E+02  0.00000000000E+00 0. -1.
          5    1    1    2  502    0 -0.45964422954E+02  0.54546243400E+02  0.20531201002E+03  0.21740085627E+03  0.47000000000E+01 0.  1.
         -5    1    1    2    0  502 -0.40337858246E+02 -0.33032992798E+02  0.21882295118E+02  0.56738401993E+02  0.47000000000E+01 0.  1.
        -11    1    1    2    0    0  0.36835961327E+02 -0.16523584445E+02  0.16051525260E+00  0.40372548283E+02  0.00000000000E+00 0. -1.
         11    1    1    2    0    0  0.49466319874E+02 -0.49896661576E+01  0.14287950746E+03  0.15128240883E+03  0.00000000000E+00 0.  1.
<mgrwt>
<rscale>  0 0.14649431E+03</rscale>
<asrwt>0</asrwt>
<pdfrwt beam="2">  1        1 0.73507609E-02 0.15341147E+03</pdfrwt>
<pdfrwt beam="1">  1       -1 0.64309885E-01 0.15341147E+03</pdfrwt>
<totfact> 0.24137199E+03</totfact>
</mgrwt>
</event>
<event>
 6    1  0.7457796E-006  0.1424331E+03  0.7546771E-02  0.1220279E+00
          3   -1    0    0  501    0  0.00000000000E+00  0.00000000000E+00  0.96145439319E+02  0.96145439319E+02  0.00000000000E+00 0. -1.
         -3   -1    0    0    0  501 -0.00000000000E+00 -0.00000000000E+00 -0.17323672133E+03  0.17323672133E+03  0.00000000000E+00 0.  1.
          5    1    1    2  502    0 -0.33247619210E+02  0.10856672855E+02  0.88433369365E+01  0.36380848489E+02  0.47000000000E+01 0. -1.
         -5    1    1    2    0  502  0.96090487926E+02  0.15874088429E+02 -0.62532562688E+02  0.11583514126E+03  0.47000000000E+01 0. -1.
        -11    1    1    2    0    0  0.21533268259E+02 -0.81215784083E+01  0.92433452855E+01  0.24800828813E+02  0.00000000000E+00 0. -1.
         11    1    1    2    0    0 -0.84376136975E+02 -0.18609182876E+02 -0.32645401550E+02  0.92365342096E+02  0.00000000000E+00 0.  1.
<mgrwt>
<rscale>  0 0.13495798E+03</rscale>
<asrwt>0</asrwt>
<pdfrwt beam="1">  1        3 0.14791606E-01 0.14243305E+03</pdfrwt>
<pdfrwt beam="2">  1       -3 0.26651803E-01 0.14243305E+03</pdfrwt>
<totfact> 0.11792165E+03</totfact>
</mgrwt>
</event>
<event>
 6    1  0.7457796E-006  0.2838926E+03  0.7546771E-02  0.1093582E+00
          1   -1    0    0  501    0  0.00000000000E+00  0.00000000000E+00  0.37821048041E+03  0.37821048041E+03  0.00000000000E+00 0. -1.
         -1   -1    0    0    0  501 -0.00000000000E+00 -0.00000000000E+00 -0.53273909761E+02  0.53273909761E+02  0.00000000000E+00 0.  1.
          5    1    1    2  502    0  0.47554788766E+02  0.33457814549E+02  0.63224956297E+02  0.86025393854E+02  0.47000000000E+01 0.  1.
         -5    1    1    2    0  502 -0.10216285815E+01 -0.80030237777E+02  0.44943280273E+02  0.91912301273E+02  0.47000000000E+01 0.  1.
        -11    1    1    2    0    0 -0.67082885648E+02 -0.13144415107E+02  0.11133038814E+03  0.13064204728E+03  0.00000000000E+00 0.  1.
         11    1    1    2    0    0  0.20549725463E+02  0.59716838334E+02  0.10543794594E+03  0.12290464777E+03  0.00000000000E+00 0. -1.
<mgrwt>
<rscale>  0 0.28389259E+03</rscale>
<asrwt>0</asrwt>
<pdfrwt beam="1">  1        1 0.58186226E-01 0.28389259E+03</pdfrwt>
<pdfrwt beam="2">  1       -1 0.81959863E-02 0.28389259E+03</pdfrwt>
<totfact> 0.53798859E+03</totfact>
</mgrwt>
</event>
<event>
 6    1  0.7457796E-006  0.1288404E+03  0.7546771E-02  0.1243354E+00
          1   -1    0    0  501    0  0.00000000000E+00  0.00000000000E+00  0.11662124918E+03  0.11662124918E+03  0.00000000000E+00 0. -1.
         -1   -1    0    0    0  501 -0.00000000000E+00 -0.00000000000E+00 -0.11396523783E+03  0.11396523783E+03  0.00000000000E+00 0.  1.
          5    1    1    2  502    0  0.98333068620E+01  0.67811462739E+02  0.17162606767E+02  0.70793597689E+02  0.47000000000E+01 0.  1.
         -5    1    1    2    0  502  0.96665876712E+01 -0.43529006219E+02 -0.39937441317E+02  0.60044204704E+02  0.47000000000E+01 0.  1.
        -11    1    1    2    0    0 -0.48842966780E+02  0.11242219403E+02  0.16876148406E+02  0.52885038395E+02  0.00000000000E+00 0.  1.
         11    1    1    2    0    0  0.29343072247E+02 -0.35524675923E+02  0.85546974979E+01  0.46863646226E+02  0.00000000000E+00 0. -1.
<mgrwt>
<rscale>  0 0.11984426E+03</rscale>
<asrwt>0</asrwt>
<pdfrwt beam="1">  1        1 0.17941731E-01 0.12884036E+03</pdfrwt>
<pdfrwt beam="2">  1       -1 0.17533113E-01 0.12884036E+03</pdfrwt>
<totfact> 0.69443343E+03</totfact>
</mgrwt>
</event>
<event>
 6    1  0.7457796E-006  0.4544145E+03  0.7546771E-02  0.1043211E+00
          1   -1    0    0  501    0  0.00000000000E+00  0.00000000000E+00  0.66143507469E+03  0.66143507469E+03  0.00000000000E+00 0. -1.
         -1   -1    0    0    0  501 -0.00000000000E+00 -0.00000000000E+00 -0.29079606798E+03  0.29079606798E+03  0.00000000000E+00 0.  1.
          5    1    1    2  502    0 -0.24142842403E+02  0.11135357434E+03  0.82667483163E+02  0.14084920351E+03  0.47000000000E+01 0. -1.
         -5    1    1    2    0  502  0.28231206882E+03 -0.67434890541E+02 -0.12325231994E+03  0.31537405257E+03  0.47000000000E+01 0.  1.
        -11    1    1    2    0    0 -0.10884949487E+03 -0.62528233524E+02  0.21142855966E+03  0.24588621019E+03  0.00000000000E+00 0.  1.
         11    1    1    2    0    0 -0.14931973155E+03  0.18609549725E+02  0.19979528382E+03  0.25012167640E+03  0.00000000000E+00 0. -1.
<mgrwt>
<rscale>  0 0.40164575E+03</rscale>
<asrwt>0</asrwt>
<pdfrwt beam="1">  1        1 0.10175924E+00 0.45441449E+03</pdfrwt>
<pdfrwt beam="2">  1       -1 0.44737857E-01 0.45441449E+03</pdfrwt>
<totfact> 0.15264593E+02</totfact>
</mgrwt>
</event>
<event>
 6    1  0.7457796E-006  0.1357774E+03  0.7546771E-02  0.1231097E+00
         -2   -1    0    0    0  501 -0.00000000000E+00  0.00000000000E+00  0.13408085864E+03  0.13408085864E+03  0.00000000000E+00 0.  1.
          2   -1    0    0  501    0  0.00000000000E+00 -0.00000000000E+00 -0.10884404090E+03  0.10884404090E+03  0.00000000000E+00 0. -1.
          5    1    1    2  502    0 -0.49769813347E+02 -0.68018908313E+02 -0.45500421911E+01  0.84536377333E+02  0.47000000000E+01 0.  1.
         -5    1    1    2    0  502  0.46056233205E+02  0.15095906880E+02  0.17962685638E+02  0.51901937314E+02  0.47000000000E+01 0.  1.
        -11    1    1    2    0    0 -0.31753503552E+02  0.39811756236E+02 -0.22262456427E+02  0.55577674372E+02  0.00000000000E+00 0. -1.
         11    1    1    2    0    0  0.35467083694E+02  0.13111245196E+02  0.34086630720E+02  0.50908910519E+02  0.00000000000E+00 0.  1.
<mgrwt>
<rscale>  0 0.12757658E+03</rscale>
<asrwt>0</asrwt>
<pdfrwt beam="2">  1        2 0.16745237E-01 0.13577745E+03</pdfrwt>
<pdfrwt beam="1">  1       -2 0.20627824E-01 0.13577745E+03</pdfrwt>
<totfact> 0.64591180E+03</totfact>
</mgrwt>
</event>
<event>
 6    1  0.7457796E-006  0.2586793E+03  0.7546771E-02  0.1107939E+00
          2   -1    0    0  501    0  0.00000000000E+00  0.00000000000E+00  0.51157107698E+03  0.51157107698E+03  0.00000000000E+00 0. -1.
         -2   -1    0    0    0  501 -0.00000000000E+00 -0.00000000000E+00 -0.32700733785E+02  0.32700733785E+02  0.00000000000E+00 0.  1.
          5    1    1    2  502    0  0.88917830786E+02 -0.44008193351E+02  0.12600866120E+03  0.16044741946E+03  0.47000000000E+01 0.  1.
         -5    1    1    2    0  502 -0.25809807298E+02  0.26006923025E+02  0.93619600067E+02  0.10064405454E+03  0.47000000000E+01 0.  1.
        -11    1    1    2    0    0 -0.29103599148E+02 -0.12676618123E+02  0.15783954312E+02  0.35452071083E+02  0.00000000000E+00 0.  1.
         11    1    1    2    0    0 -0.34004424340E+02  0.30677888449E+02  0.24345812761E+03  0.24772826568E+03  0.00000000000E+00 0. -1.
<mgrwt>
<rscale>  0 0.25867934E+03</rscale>
<asrwt>0</asrwt>
<pdfrwt beam="1">  1        2 0.78703237E-01 0.25867934E+03</pdfrwt>
<pdfrwt beam="2">  1       -2 0.50308825E-02 0.25867934E+03</pdfrwt>
<totfact> 0.11656861E+04</totfact>
</mgrwt>
</event>
<event>
 6    1  0.7457796E-006  0.1256748E+03  0.7546771E-02  0.1249890E+00
          1   -1    0    0  501    0  0.00000000000E+00  0.00000000000E+00  0.32895856705E+03  0.32895856705E+03  0.00000000000E+00 0. -1.
         -1   -1    0    0    0  501 -0.00000000000E+00 -0.00000000000E+00 -0.36717822242E+02  0.36717822242E+02  0.00000000000E+00 0.  1.
          5    1    1    2  502    0  0.32458478024E+02 -0.43322647488E+02  0.86173431560E+02  0.10187421110E+03  0.47000000000E+01 0.  1.
         -5    1    1    2    0  502 -0.39003189437E+02  0.54594618894E+02  0.52899254320E+02  0.85570101707E+02  0.47000000000E+01 0.  1.
        -11    1    1    2    0    0 -0.38510064586E+02 -0.17169747651E+02  0.98502015240E+02  0.10714696596E+03  0.00000000000E+00 0.  1.
         11    1    1    2    0    0  0.45054775998E+02  0.58977762452E+01  0.54666043687E+02  0.71085110517E+02  0.00000000000E+00 0. -1.
<mgrwt>
<rscale>  0 0.11597426E+03</rscale>
<asrwt>0</asrwt>
<pdfrwt beam="1">  1        1 0.50609008E-01 0.12567481E+03</pdfrwt>
<pdfrwt beam="2">  1       -1 0.56488960E-02 0.12567481E+03</pdfrwt>
<totfact> 0.10719905E+04</totfact>
</mgrwt>
</event>
<event>
 6    1  0.7457796E-006  0.1262684E+03  0.7546771E-02  0.1244777E+00
          1   -1    0    0  501    0  0.00000000000E+00  0.00000000000E+00  0.65385987879E+03  0.65385987879E+03  0.00000000000E+00 0. -1.
         -1   -1    0    0    0  501 -0.00000000000E+00 -0.00000000000E+00 -0.19565896159E+02  0.19565896159E+02  0.00000000000E+00 0.  1.
          5    1    1    2  502    0  0.16200462767E+02  0.36671452055E+02  0.28867109500E+03  0.29147957300E+03  0.47000000000E+01 0. -1.
         -5    1    1    2    0  502 -0.47010274861E+02 -0.72786788887E+01  0.46503626171E+02  0.66690496744E+02  0.47000000000E+01 0.  1.
        -11    1    1    2    0    0  0.48761756807E+02 -0.13519698216E+02  0.28017786361E+03  0.28471060118E+03  0.00000000000E+00 0. -1.
         11    1    1    2    0    0 -0.17951944713E+02 -0.15873074950E+02  0.18941397853E+02  0.30545104026E+02  0.00000000000E+00 0.  1.
<mgrwt>
<rscale>  0 0.11898744E+03</rscale>
<asrwt>0</asrwt>
<pdfrwt beam="1">  1        1 0.10059381E+00 0.12626839E+03</pdfrwt>
<pdfrwt beam="2">  1       -1 0.30101384E-02 0.12626839E+03</pdfrwt>
<totfact> 0.11101905E+04</totfact>
</mgrwt>
</event>
<event>
 6    1  0.7457796E-006  0.1371972E+03  0.7546771E-02  0.1228329E+00
          2   -1    0    0  501    0  0.00000000000E+00  0.00000000000E+00  0.60530008611E+02  0.60530008611E+02  0.00000000000E+00 0. -1.
         -2   -1    0    0    0  501 -0.00000000000E+00 -0.00000000000E+00 -0.27119035808E+03  0.27119035808E+03  0.00000000000E+00 0.  1.
          5    1    1    2  502    0 -0.43137109114E+02 -0.43824211837E+02 -0.14775368087E+03  0.16010812576E+03  0.47000000000E+01 0.  1.
         -5    1    1    2    0  502  0.49000456136E+02 -0.12468865858E+02 -0.15400340261E+02  0.53063902961E+02  0.47000000000E+01 0.  1.
        -11    1    1    2    0    0 -0.33784632605E+02 -0.86224362335E+01 -0.29134235567E+01  0.34989081778E+02  0.00000000000E+00 0.  1.
         11    1    1    2    0    0  0.27921285583E+02  0.64915513928E+02 -0.44592904780E+02  0.83559256183E+02  0.00000000000E+00 0. -1.
<mgrwt>
<rscale>  0 0.12941356E+03</rscale>
<asrwt>0</asrwt>
<pdfrwt beam="1">  1        2 0.93123092E-02 0.13719723E+03</pdfrwt>
<pdfrwt beam="2">  1       -2 0.41721593E-01 0.13719723E+03</pdfrwt>
<totfact> 0.36821477E+03</totfact>
</mgrwt>
</event>
<event>
 6    1  0.7457796E-006  0.1377989E+03  0.7546771E-02  0.1229952E+00
          2   -1    0    0  501    0  0.00000000000E+00  0.00000000000E+00  0.14880193895E+03  0.14880193895E+03  0.00000000000E+00 0. -1.
         -2   -1    0    0    0  501 -0.00000000000E+00 -0.00000000000E+00 -0.13387021900E+03  0.13387021900E+03  0.00000000000E+00 0.  1.
          5    1    1    2  502    0 -0.57143424975E+02 -0.75419169062E+02 -0.56166033301E+02  0.11013689380E+03  0.47000000000E+01 0.  1.
         -5    1    1    2    0  502  0.11934686412E+02  0.39110905789E+02 -0.82693285095E+01  0.41982990429E+02  0.47000000000E+01 0.  1.
        -11    1    1    2    0    0  0.16374883439E+02  0.57971401651E+02  0.24802138360E+02  0.65145731128E+02  0.00000000000E+00 0.  1.
         11    1    1    2    0    0  0.28833855124E+02 -0.21663138378E+02  0.54564943400E+02  0.65406542592E+02  0.00000000000E+00 0. -1.
<mgrwt>
<rscale>  0 0.12833171E+03</rscale>
<asrwt>0</asrwt>
<pdfrwt beam="1">  1        2 0.22892606E-01 0.13779892E+03</pdfrwt>
<pdfrwt beam="2">  1       -2 0.20595418E-01 0.13779892E+03</pdfrwt>
<totfact> 0.45471076E+03</totfact>
</mgrwt>
</event>
<event>
 6    1  0.7457796E-006  0.1326315E+03  0.7546771E-02  0.1240086E+00
         -1   -1    0    0    0  501 -0.00000000000E+00  0.00000000000E+00  0.85267383903E+03  0.85267383903E+03  0.00000000000E+00 0.  1.
          1   -1    0    0  501    0  0.00000000000E+00 -0.00000000000E+00 -0.17479720562E+02  0.17479720562E+02  0.00000000000E+00 0. -1.
          5    1    1    2  502    0 -0.25164460258E+01 -0.36849842837E+02  0.59624434301E+02  0.70295139117E+02  0.47000000000E+01 0. -1.
         -5    1    1    2    0  502  0.25868268448E+02  0.52787051477E+02  0.57653830392E+03  0.57954650030E+03  0.47000000000E+01 0.  1.
        -11    1    1    2    0    0  0.93739500503E+01 -0.47788062116E+02  0.97626229792E+02  0.10909835271E+03  0.00000000000E+00 0.  1.
         11    1    1    2    0    0 -0.32725772472E+02  0.31850853476E+02  0.10140515045E+03  0.11121356747E+03  0.00000000000E+00 0. -1.
<mgrwt>
<rscale>  0 0.12184401E+03</rscale>
<asrwt>0</asrwt>
<pdfrwt beam="2">  1        1 0.26891884E-02 0.13263155E+03</pdfrwt>
<pdfrwt beam="1">  1       -1 0.13118056E+00 0.13263155E+03</pdfrwt>
<totfact> 0.20505875E+03</totfact>
</mgrwt>
</event>
<event>
 6    1  0.8358110E-006  0.4237841E+03  0.7546771E-02  0.1035842E+00
         -1   -1    0    0    0  501 -0.00000000000E+00  0.00000000000E+00  0.10777684304E+04  0.10777684304E+04  0.00000000000E+00 0. -1.
          1   -1    0    0  501    0  0.00000000000E+00 -0.00000000000E+00 -0.41658513801E+02  0.41658513801E+02  0.00000000000E+00 0.  1.
          5    1    1    2  502    0  0.76990421421E+01 -0.20141391238E+02  0.14738761159E+03  0.14903069798E+03  0.47000000000E+01 0.  1.
         -5    1    1    2    0  502 -0.18485304765E+03  0.26146940853E+02  0.50116073230E+03  0.53482565509E+03  0.47000000000E+01 0.  1.
        -11    1    1    2    0    0  0.13959816117E+03 -0.29052784298E+01  0.19788588442E+03  0.24218775877E+03  0.00000000000E+00 0.  1.
         11    1    1    2    0    0  0.37555844333E+02 -0.31002711847E+01  0.18967568833E+03  0.19338283240E+03  0.00000000000E+00 0. -1.
<mgrwt>
<rscale>  0 0.42378405E+03</rscale>
<asrwt>0</asrwt>
<pdfrwt beam="2">  1        1 0.64090029E-02 0.42378405E+03</pdfrwt>
<pdfrwt beam="1">  1       -1 0.16581051E+00 0.42378405E+03</pdfrwt>
<totfact> 0.33898105E+02</totfact>
</mgrwt>
</event>
<event>
 6    1  0.7457796E-006  0.1758431E+03  0.7546771E-02  0.1177796E+00
          1   -1    0    0  501    0  0.00000000000E+00  0.00000000000E+00  0.29372410503E+03  0.29372410503E+03  0.00000000000E+00 0. -1.
         -1   -1    0    0    0  501 -0.00000000000E+00 -0.00000000000E+00 -0.12169011028E+03  0.12169011028E+03  0.00000000000E+00 0.  1.
          5    1    1    2  502    0  0.39726393407E+02 -0.24064092004E+02 -0.63659414185E+02  0.78942243897E+02  0.47000000000E+01 0.  1.
         -5    1    1    2    0  502  0.37085804971E+02 -0.72861337717E+02  0.52465798373E+02  0.97256781065E+02  0.47000000000E+01 0.  1.
        -11    1    1    2    0    0 -0.21227732593E+02  0.84012219861E+02  0.66304427711E+02  0.10910979265E+03  0.00000000000E+00 0.  1.
         11    1    1    2    0    0 -0.55584465784E+02  0.12913209860E+02  0.11692318284E+03  0.13010539770E+03  0.00000000000E+00 0. -1.
<mgrwt>
<rscale>  0 0.17004993E+03</rscale>
<asrwt>0</asrwt>
<pdfrwt beam="1">  1        1 0.45188324E-01 0.17584311E+03</pdfrwt>
<pdfrwt beam="2">  1       -1 0.18721556E-01 0.17584311E+03</pdfrwt>
<totfact> 0.19942410E+03</totfact>
</mgrwt>
</event>
<event>
 6    1  0.7457796E-006  0.2214991E+03  0.7546771E-02  0.1135959E+00
         -1   -1    0    0    0  501 -0.00000000000E+00  0.00000000000E+00  0.56184621577E+02  0.56184621577E+02  0.00000000000E+00 0.  1.
          1   -1    0    0  501    0  0.00000000000E+00 -0.00000000000E+00 -0.11654449727E+04  0.11654449727E+04  0.00000000000E+00 0. -1.
          5    1    1    2  502    0  0.55425727490E+02  0.15733089656E+03 -0.16068402633E+03  0.23166024389E+03  0.47000000000E+01 0.  1.
         -5    1    1    2    0  502  0.52324507879E+02 -0.95914297667E+01 -0.71355403269E+02  0.89126501252E+02  0.47000000000E+01 0.  1.
        -11    1    1    2    0    0 -0.24706523541E+02 -0.10307940086E+03 -0.55837039160E+03  0.56834256343E+03  0.00000000000E+00 0. -1.
         11    1    1    2    0    0 -0.83043711828E+02 -0.44660065936E+02 -0.31885052987E+03  0.33250028566E+03  0.00000000000E+00 0.  1.
<mgrwt>
<rscale>  0 0.21723849E+03</rscale>
<asrwt>0</asrwt>
<pdfrwt beam="2">  1        1 0.17929922E+00 0.22149907E+03</pdfrwt>
<pdfrwt beam="1">  1       -1 0.86437881E-02 0.22149907E+03</pdfrwt>
<totfact> 0.92937239E+02</totfact>
</mgrwt>
</event>
<event>
 6    1  0.7457796E-006  0.1285525E+03  0.7546771E-02  0.1241701E+00
         -1   -1    0    0    0  501 -0.00000000000E+00  0.00000000000E+00  0.34565394678E+03  0.34565394678E+03  0.00000000000E+00 0.  1.
          1   -1    0    0  501    0  0.00000000000E+00 -0.00000000000E+00 -0.37919363129E+02  0.37919363129E+02  0.00000000000E+00 0. -1.
          5    1    1    2  502    0 -0.61986190314E+02 -0.48131741692E+02  0.10848075012E+03  0.13397430908E+03  0.47000000000E+01 0.  1.
         -5    1    1    2    0  502  0.34246652255E+02  0.36017081850E+02  0.66582963507E+02  0.83219255013E+02  0.47000000000E+01 0.  1.
        -11    1    1    2    0    0  0.29899023408E+02 -0.27862928104E+02  0.11604056356E+03  0.12302726021E+03  0.00000000000E+00 0.  1.
         11    1    1    2    0    0 -0.21594853492E+01  0.39977587946E+02  0.16630306466E+02  0.43352485605E+02  0.00000000000E+00 0. -1.
<mgrwt>
<rscale>  0 0.12084995E+03</rscale>
<asrwt>0</asrwt>
<pdfrwt beam="2">  1        1 0.58337484E-02 0.12855248E+03</pdfrwt>
<pdfrwt beam="1">  1       -1 0.53177528E-01 0.12855248E+03</pdfrwt>
<totfact> 0.46805161E+03</totfact>
</mgrwt>
</event>
<event>
 6    1  0.7457796E-006  0.1416211E+03  0.7546771E-02  0.1221702E+00
          2   -1    0    0  501    0  0.00000000000E+00  0.00000000000E+00  0.46907533938E+03  0.46907533938E+03  0.00000000000E+00 0. -1.
         -2   -1    0    0    0  501 -0.00000000000E+00 -0.00000000000E+00 -0.34717296352E+02  0.34717296352E+02  0.00000000000E+00 0.  1.
          5    1    1    2  502    0 -0.44581435728E+01  0.40045554724E+02  0.23686836194E+03  0.24031694153E+03  0.47000000000E+01 0.  1.
         -5    1    1    2    0  502 -0.46107616380E+02  0.32501283027E+01  0.15329588373E+02  0.48924042167E+02  0.47000000000E+01 0.  1.
        -11    1    1    2    0    0  0.22654830139E+02 -0.21823040062E+02  0.25915217513E+01  0.31562674018E+02  0.00000000000E+00 0.  1.
         11    1    1    2    0    0  0.27910929814E+02 -0.21472642965E+02  0.17956857096E+03  0.18298897802E+03  0.00000000000E+00 0. -1.
<mgrwt>
<rscale>  0 0.13395514E+03</rscale>
<asrwt>0</asrwt>
<pdfrwt beam="1">  1        2 0.72165432E-01 0.14162112E+03</pdfrwt>
<pdfrwt beam="2">  1       -2 0.53411228E-02 0.14162112E+03</pdfrwt>
<totfact> 0.11274737E+04</totfact>
</mgrwt>
</event>
<event>
 6    1  0.1191253E-005  0.1667229E+03  0.7546771E-02  0.1188339E+00
         -1   -1    0    0    0  501 -0.00000000000E+00  0.00000000000E+00  0.53094143238E+02  0.53094143238E+02  0.00000000000E+00 0.  1.
          1   -1    0    0  501    0  0.00000000000E+00 -0.00000000000E+00 -0.45497722470E+03  0.45497722470E+03  0.00000000000E+00 0. -1.
          5    1    1    2  502    0 -0.33062099783E+02 -0.36598996675E+02 -0.88977329289E+01  0.50337348469E+02  0.47000000000E+01 0. -1.
         -5    1    1    2    0  502 -0.76765889642E+02  0.47059839412E+02 -0.18203939846E+03  0.20314542301E+03  0.47000000000E+01 0. -1.
        -11    1    1    2    0    0 -0.13934602728E+02 -0.92104692512E+01 -0.41652074158E+02  0.44876510322E+02  0.00000000000E+00 0. -1.
         11    1    1    2    0    0  0.12376259215E+03 -0.12503734862E+01 -0.16929387592E+03  0.20971208614E+03  0.00000000000E+00 0.  1.
<mgrwt>
<rscale>  0 0.16031691E+03</rscale>
<asrwt>0</asrwt>
<pdfrwt beam="2">  1        1 0.69996494E-01 0.16672291E+03</pdfrwt>
<pdfrwt beam="1">  1       -1 0.81683299E-02 0.16672291E+03</pdfrwt>
<totfact> 0.41664047E+03</totfact>
</mgrwt>
</event>
<event>
 6    1  0.7457796E-006  0.4764665E+03  0.7546771E-02  0.1020111E+00
          2   -1    0    0  501    0  0.00000000000E+00  0.00000000000E+00  0.10230593276E+03  0.10230593276E+03  0.00000000000E+00 0. -1.
         -2   -1    0    0    0  501 -0.00000000000E+00 -0.00000000000E+00 -0.55475852865E+03  0.55475852865E+03  0.00000000000E+00 0.  1.
          5    1    1    2  502    0 -0.15573562016E+02  0.12092339372E+03 -0.46295473911E+03  0.47876318096E+03  0.47000000000E+01 0. -1.
         -5    1    1    2    0  502 -0.21223862692E+02 -0.11107246494E+02 -0.14976993220E+02  0.28639546053E+02  0.47000000000E+01 0. -1.
        -11    1    1    2    0    0 -0.12560588872E+02 -0.85924088035E+02  0.35684887933E+02  0.93883590282E+02  0.00000000000E+00 0. -1.
         11    1    1    2    0    0  0.49358013580E+02 -0.23892059194E+02 -0.10205751504E+02  0.55778144115E+02  0.00000000000E+00 0.  1.
<mgrwt>
<rscale>  0 0.47646653E+03</rscale>
<asrwt>0</asrwt>
<pdfrwt beam="1">  1        2 0.15739374E-01 0.47646653E+03</pdfrwt>
<pdfrwt beam="2">  1       -2 0.85347466E-01 0.47646653E+03</pdfrwt>
<totfact> 0.45572248E+02</totfact>
</mgrwt>
</event>
<event>
 6    1  0.7457796E-006  0.1343836E+03  0.7546771E-02  0.1233593E+00
          1   -1    0    0  501    0  0.00000000000E+00  0.00000000000E+00  0.19888441593E+03  0.19888441593E+03  0.00000000000E+00 0. -1.
         -1   -1    0    0    0  501 -0.00000000000E+00 -0.00000000000E+00 -0.74301910320E+02  0.74301910320E+02  0.00000000000E+00 0.  1.
          5    1    1    2  502    0  0.71279081782E+02 -0.19021364116E+02  0.71002169778E+02  0.10249838002E+03  0.47000000000E+01 0. -1.
         -5    1    1    2    0  502 -0.25380461208E+02  0.93802611926E+00 -0.28484093476E+02  0.38451024502E+02  0.47000000000E+01 0. -1.
        -11    1    1    2    0    0  0.70417803272E+01 -0.20760040531E+02  0.58503532886E+02  0.62475829832E+02  0.00000000000E+00 0. -1.
         11    1    1    2    0    0 -0.52940400902E+02  0.38843378527E+02  0.23560896420E+02  0.69761091901E+02  0.00000000000E+00 0.  1.
<mgrwt>
<rscale>  0 0.12594937E+03</rscale>
<asrwt>0</asrwt>
<pdfrwt beam="1">  1        1 0.30597602E-01 0.13438358E+03</pdfrwt>
<pdfrwt beam="2">  1       -1 0.11431063E-01 0.13438358E+03</pdfrwt>
<totfact> 0.69322025E+03</totfact>
</mgrwt>
</event>
<event>
 6    1  0.7457796E-006  0.1378611E+03  0.7546771E-02  0.1227887E+00
         -2   -1    0    0    0  501 -0.00000000000E+00  0.00000000000E+00  0.11781514602E+03  0.11781514602E+03  0.00000000000E+00 0.  1.
          2   -1    0    0  501    0  0.00000000000E+00 -0.00000000000E+00 -0.14575682424E+03  0.14575682424E+03  0.00000000000E+00 0. -1.
          5    1    1    2  502    0  0.22203450114E+02  0.51733310385E+02 -0.34820476155E+02  0.66361767306E+02  0.47000000000E+01 0.  1.
         -5    1    1    2    0  502 -0.36808519550E+02  0.45520936473E+01  0.64662688673E+02  0.74692315365E+02  0.47000000000E+01 0.  1.
        -11    1    1    2    0    0  0.40959997841E+02 -0.78355542061E+01 -0.52592633103E+02  0.67120059517E+02  0.00000000000E+00 0. -1.
         11    1    1    2    0    0 -0.26354928405E+02 -0.48449849826E+02 -0.51912576263E+01  0.55397828072E+02  0.00000000000E+00 0.  1.
<mgrwt>
<rscale>  0 0.12970986E+03</rscale>
<asrwt>0</asrwt>
<pdfrwt beam="2">  1        2 0.22424127E-01 0.13786115E+03</pdfrwt>
<pdfrwt beam="1">  1       -2 0.18125407E-01 0.13786115E+03</pdfrwt>
<totfact> 0.57710902E+03</totfact>
</mgrwt>
</event>
<event>
 6    1  0.7457796E-006  0.1316275E+03  0.7546771E-02  0.1239636E+00
         -1   -1    0    0    0  501 -0.00000000000E+00  0.00000000000E+00  0.29583220944E+02  0.29583220944E+02  0.00000000000E+00 0.  1.
          1   -1    0    0  501    0  0.00000000000E+00 -0.00000000000E+00 -0.44409254617E+03  0.44409254617E+03  0.00000000000E+00 0. -1.
          5    1    1    2  502    0  0.54180769494E+02 -0.16226554399E+01 -0.14554503562E+03  0.15538222609E+03  0.47000000000E+01 0.  1.
         -5    1    1    2    0  502 -0.57822368209E+02 -0.39461028472E+02 -0.86300277513E+02  0.11122242100E+03  0.47000000000E+01 0.  1.
        -11    1    1    2    0    0  0.72820060927E+01 -0.19893227906E+02 -0.90719431472E+01  0.23044918783E+02  0.00000000000E+00 0.  1.
         11    1    1    2    0    0 -0.36404073775E+01  0.60976911818E+02 -0.17359206895E+03  0.18402620124E+03  0.00000000000E+00 0. -1.
<mgrwt>
<rscale>  0 0.12212248E+03</rscale>
<asrwt>0</asrwt>
<pdfrwt beam="2">  1        1 0.68321924E-01 0.13162746E+03</pdfrwt>
<pdfrwt beam="1">  1       -1 0.45512652E-02 0.13162746E+03</pdfrwt>
<totfact> 0.10159907E+04</totfact>
</mgrwt>
</event>
<event>
 6    1  0.7457796E-006  0.3920451E+03  0.7546771E-02  0.1075703E+00
          4   -1    0    0  501    0  0.00000000000E+00  0.00000000000E+00  0.73478914487E+03  0.73478914487E+03  0.00000000000E+00 0. -1.
         -4   -1    0    0    0  501 -0.00000000000E+00 -0.00000000000E+00 -0.23001991033E+03  0.23001991033E+03  0.00000000000E+00 0.  1.
          5    1    1    2  502    0 -0.53364452042E+02  0.11603497090E+03 -0.43868248233E+02  0.13512361902E+03  0.47000000000E+01 0. -1.
         -5    1    1    2    0  502  0.18782256469E+02 -0.25808224275E+03  0.48963444931E+01  0.25885378377E+03  0.47000000000E+01 0.  1.
        -11    1    1    2    0    0  0.15295318243E+02  0.16298844129E+02  0.14802274221E+02  0.26808700121E+02  0.00000000000E+00 0.  1.
         11    1    1    2    0    0  0.19286877329E+02  0.12574842772E+03  0.52893886406E+03  0.54402295229E+03  0.00000000000E+00 0. -1.
<mgrwt>
<rscale>  0 0.31988418E+03</rscale>
<asrwt>0</asrwt>
<pdfrwt beam="1">  1        4 0.11304448E+00 0.39204513E+03</pdfrwt>
<pdfrwt beam="2">  1       -4 0.35387679E-01 0.39204513E+03</pdfrwt>
<totfact> 0.92016446E+00</totfact>
</mgrwt>
</event>
<event>
 6    1  0.7457796E-006  0.1358386E+03  0.7546771E-02  0.1231640E+00
          1   -1    0    0  501    0  0.00000000000E+00  0.00000000000E+00  0.10413926257E+03  0.10413926257E+03  0.00000000000E+00 0. -1.
         -1   -1    0    0    0  501 -0.00000000000E+00 -0.00000000000E+00 -0.13901631938E+03  0.13901631938E+03  0.00000000000E+00 0.  1.
          5    1    1    2  502    0  0.44328196129E+02 -0.27703711870E+01 -0.38558391049E+01  0.44828801275E+02  0.47000000000E+01 0.  1.
         -5    1    1    2    0  502 -0.80560248041E+02  0.41694283528E+02 -0.21799390731E+02  0.93411296316E+02  0.47000000000E+01 0.  1.
        -11    1    1    2    0    0  0.16047701282E+02  0.18362151715E+02  0.25228133020E+02  0.35087833044E+02  0.00000000000E+00 0. -1.
         11    1    1    2    0    0  0.20184350630E+02 -0.57286064056E+02 -0.34449959990E+02  0.69827651319E+02  0.00000000000E+00 0.  1.
<mgrwt>
<rscale>  0 0.12722027E+03</rscale>
<asrwt>0</asrwt>
<pdfrwt beam="1">  1        1 0.16021425E-01 0.13583863E+03</pdfrwt>
<pdfrwt beam="2">  1       -1 0.21387126E-01 0.13583863E+03</pdfrwt>
<totfact> 0.58653537E+03</totfact>
</mgrwt>
</event>
<event>
 6    1  0.7457796E-006  0.1393968E+03  0.7546771E-02  0.1224723E+00
         -1   -1    0    0    0  501 -0.00000000000E+00  0.00000000000E+00  0.85124398770E+02  0.85124398770E+02  0.00000000000E+00 0.  1.
          1   -1    0    0  501    0  0.00000000000E+00 -0.00000000000E+00 -0.20713687232E+03  0.20713687232E+03  0.00000000000E+00 0. -1.
          5    1    1    2  502    0  0.42199550003E+02 -0.46180896019E+02  0.40309404729E+02  0.74568192194E+02  0.47000000000E+01 0.  1.
         -5    1    1    2    0  502  0.15106924134E+02  0.23385948020E+02 -0.59870590277E+02  0.66194405365E+02  0.47000000000E+01 0.  1.
        -11    1    1    2    0    0  0.13736744482E+02  0.32962315534E+02 -0.15972626707E+02  0.39119524515E+02  0.00000000000E+00 0. -1.
         11    1    1    2    0    0 -0.71043218620E+02 -0.10167367535E+02 -0.86478661300E+02  0.11237914902E+03  0.00000000000E+00 0.  1.
<mgrwt>
<rscale>  0 0.13185910E+03</rscale>
<asrwt>0</asrwt>
<pdfrwt beam="2">  1        1 0.31867211E-01 0.13939680E+03</pdfrwt>
<pdfrwt beam="1">  1       -1 0.13096061E-01 0.13939680E+03</pdfrwt>
<totfact> 0.53542951E+03</totfact>
</mgrwt>
</event>
<event>
 6    1  0.7457796E-006  0.1633004E+03  0.7546771E-02  0.1191236E+00
         -2   -1    0    0    0  501 -0.00000000000E+00  0.00000000000E+00  0.52894483186E+02  0.52894483186E+02  0.00000000000E+00 0.  1.
          2   -1    0    0  501    0  0.00000000000E+00 -0.00000000000E+00 -0.44377400886E+03  0.44377400886E+03  0.00000000000E+00 0. -1.
          5    1    1    2  502    0 -0.20756007416E+02  0.22081777241E+02 -0.22757733370E+02  0.38189280671E+02  0.47000000000E+01 0.  1.
         -5    1    1    2    0  502  0.19832794688E+02 -0.12713995962E+03 -0.20432599529E+03  0.24151420543E+03  0.47000000000E+01 0.  1.
        -11    1    1    2    0    0  0.23369175987E+02  0.11447950710E+03 -0.12449383815E+03  0.17073485780E+03  0.00000000000E+00 0. -1.
         11    1    1    2    0    0 -0.22445963259E+02 -0.94213247219E+01 -0.39301958866E+02  0.46230148138E+02  0.00000000000E+00 0.  1.
<mgrwt>
<rscale>  0 0.15777184E+03</rscale>
<asrwt>0</asrwt>
<pdfrwt beam="2">  1        2 0.68272924E-01 0.16330040E+03</pdfrwt>
<pdfrwt beam="1">  1       -2 0.81376128E-02 0.16330040E+03</pdfrwt>
<totfact> 0.63464301E+03</totfact>
</mgrwt>
</event>
<event>
 6    1  0.7457796E-006  0.1718850E+03  0.7546771E-02  0.1181998E+00
         -1   -1    0    0    0  501 -0.00000000000E+00  0.00000000000E+00  0.10075744155E+04  0.10075744155E+04  0.00000000000E+00 0.  1.
          1   -1    0    0  501    0  0.00000000000E+00 -0.00000000000E+00 -0.31947349354E+02  0.31947349354E+02  0.00000000000E+00 0. -1.
          5    1    1    2  502    0  0.16832671120E+02 -0.74691453476E+02  0.17830375614E+03  0.19410427994E+03  0.47000000000E+01 0. -1.
         -5    1    1    2    0  502  0.64503262019E+02 -0.10771935954E+02  0.56620403737E+03  0.56998755017E+03  0.47000000000E+01 0. -1.
        -11    1    1    2    0    0 -0.90359644278E+02  0.67142384087E+02  0.12866911947E+03  0.17096405283E+03  0.00000000000E+00 0. -1.
         11    1    1    2    0    0  0.90237111395E+01  0.18321005344E+02  0.10245015321E+03  0.10446588195E+03  0.00000000000E+00 0.  1.
<mgrwt>
<rscale>  0 0.16608095E+03</rscale>
<asrwt>0</asrwt>
<pdfrwt beam="2">  1        1 0.49149776E-02 0.17188505E+03</pdfrwt>
<pdfrwt beam="1">  1       -1 0.15501142E+00 0.17188505E+03</pdfrwt>
<totfact> 0.58804460E+02</totfact>
</mgrwt>
</event>
<event>
 6    1  0.7457796E-006  0.3877147E+03  0.7546771E-02  0.1048119E+00
         -1   -1    0    0    0  501 -0.00000000000E+00  0.00000000000E+00  0.21512276084E+03  0.21512276084E+03  0.00000000000E+00 0.  1.
          1   -1    0    0  501    0  0.00000000000E+00 -0.00000000000E+00 -0.17469407913E+03  0.17469407913E+03  0.00000000000E+00 0. -1.
          5    1    1    2  502    0  0.64029857832E+01  0.50132342592E+00 -0.22190718600E+02  0.23574722566E+02  0.47000000000E+01 0.  1.
         -5    1    1    2    0  502  0.60563113536E+02 -0.88486279116E+02  0.16097840597E+03  0.19347829207E+03  0.47000000000E+01 0.  1.
        -11    1    1    2    0    0 -0.72155460890E+02  0.71437915363E+02 -0.35511913679E+02  0.10756803568E+03  0.00000000000E+00 0.  1.
         11    1    1    2    0    0  0.51893615716E+01  0.16547040328E+02 -0.62847091984E+02  0.65195789649E+02  0.00000000000E+00 0. -1.
<mgrwt>
<rscale>  0 0.38771470E+03</rscale>
<asrwt>0</asrwt>
<pdfrwt beam="2">  1        1 0.26876012E-01 0.38771470E+03</pdfrwt>
<pdfrwt beam="1">  1       -1 0.33095809E-01 0.38771470E+03</pdfrwt>
<totfact> 0.15106606E+03</totfact>
</mgrwt>
</event>
<event>
 6    1  0.7457796E-006  0.2542706E+03  0.7546771E-02  0.1112903E+00
          2   -1    0    0  501    0  0.00000000000E+00  0.00000000000E+00  0.13323347079E+04  0.13323347079E+04  0.00000000000E+00 0. -1.
         -2   -1    0    0    0  501 -0.00000000000E+00 -0.00000000000E+00 -0.45954157235E+02  0.45954157235E+02  0.00000000000E+00 0.  1.
          5    1    1    2  502    0  0.12680822934E+03  0.55857216061E+02  0.43914360441E+03  0.46051009859E+03  0.47000000000E+01 0.  1.
         -5    1    1    2    0  502  0.94551174543E+02 -0.60931204018E+02  0.25532246008E+03  0.27904154682E+03  0.47000000000E+01 0.  1.
        -11    1    1    2    0    0 -0.13708755124E+03  0.14405099359E+02  0.24014312944E+03  0.27689208405E+03  0.00000000000E+00 0.  1.
         11    1    1    2    0    0 -0.84271852648E+02 -0.93311114016E+01  0.35177135679E+03  0.36184513572E+03  0.00000000000E+00 0. -1.
<mgrwt>
<rscale>  0 0.25063751E+03</rscale>
<asrwt>0</asrwt>
<pdfrwt beam="1">  1        2 0.20497454E+00 0.25427057E+03</pdfrwt>
<pdfrwt beam="2">  1       -2 0.70698714E-02 0.25427057E+03</pdfrwt>
<totfact> 0.19324692E+03</totfact>
</mgrwt>
</event>
<event>
 6    1  0.7457796E-006  0.1488849E+03  0.7546771E-02  0.1211569E+00
          2   -1    0    0  501    0  0.00000000000E+00  0.00000000000E+00  0.16884939791E+03  0.16884939791E+03  0.00000000000E+00 0. -1.
         -2   -1    0    0    0  501 -0.00000000000E+00 -0.00000000000E+00 -0.10976132216E+03  0.10976132216E+03  0.00000000000E+00 0.  1.
          5    1    1    2  502    0 -0.25588270725E+02  0.70171080147E+02 -0.20984287906E+02  0.77724966559E+02  0.47000000000E+01 0.  1.
         -5    1    1    2    0  502 -0.48254179803E+02 -0.40035320957E+02  0.34635722702E+02  0.71784511419E+02  0.47000000000E+01 0.  1.
        -11    1    1    2    0    0  0.39678120841E+02 -0.62336261154E+02  0.27539073457E+02  0.78857867680E+02  0.00000000000E+00 0.  1.
         11    1    1    2    0    0  0.34164329687E+02  0.32200501964E+02  0.17897567506E+02  0.50243374412E+02  0.00000000000E+00 0. -1.
<mgrwt>
<rscale>  0 0.14131621E+03</rscale>
<asrwt>0</asrwt>
<pdfrwt beam="1">  1        2 0.25976830E-01 0.14888493E+03</pdfrwt>
<pdfrwt beam="2">  1       -2 0.16886357E-01 0.14888493E+03</pdfrwt>
<totfact> 0.55433065E+03</totfact>
</mgrwt>
</event>
<event>
 6    1  0.7457796E-006  0.2620338E+03  0.7546771E-02  0.1105927E+00
         -1   -1    0    0    0  501 -0.00000000000E+00  0.00000000000E+00  0.15776811628E+03  0.15776811628E+03  0.00000000000E+00 0.  1.
          1   -1    0    0  501    0  0.00000000000E+00 -0.00000000000E+00 -0.10880161665E+03  0.10880161665E+03  0.00000000000E+00 0. -1.
          5    1    1    2  502    0  0.38787261800E+01  0.12005189765E+02 -0.30649196356E+02  0.33475847044E+02  0.47000000000E+01 0. -1.
         -5    1    1    2    0  502 -0.15068165060E+02 -0.76933795992E+02  0.90916544719E+02  0.12014061207E+03  0.47000000000E+01 0. -1.
        -11    1    1    2    0    0  0.48705152153E+02  0.20390380011E+02  0.33443019200E+01  0.52906935259E+02  0.00000000000E+00 0.  1.
         11    1    1    2    0    0 -0.37515713273E+02  0.44538226216E+02 -0.14645150656E+02  0.60046338561E+02  0.00000000000E+00 0. -1.
<mgrwt>
<rscale>  0 0.26203378E+03</rscale>
<asrwt>0</asrwt>
<pdfrwt beam="2">  1        1 0.16738710E-01 0.26203378E+03</pdfrwt>
<pdfrwt beam="1">  1       -1 0.24272018E-01 0.26203378E+03</pdfrwt>
<totfact> 0.46749972E+03</totfact>
</mgrwt>
</event>
<event>
 6    1  0.7457796E-006  0.1524716E+03  0.7546771E-02  0.1249117E+00
         -2   -1    0    0    0  501 -0.00000000000E+00  0.00000000000E+00  0.43913262591E+02  0.43913262591E+02  0.00000000000E+00 0.  1.
          2   -1    0    0  501    0  0.00000000000E+00 -0.00000000000E+00 -0.28995589404E+03  0.28995589404E+03  0.00000000000E+00 0. -1.
          5    1    1    2  502    0  0.23643820962E+02 -0.47377898626E+02 -0.56067858534E+02  0.77261829570E+02  0.47000000000E+01 0. -1.
         -5    1    1    2    0  502 -0.58291788855E+02  0.76934996606E+02 -0.53140971689E+02  0.11028589766E+03  0.47000000000E+01 0.  1.
        -11    1    1    2    0    0  0.17485270392E+02 -0.14507829636E+02 -0.10321244177E+03  0.10568358405E+03  0.00000000000E+00 0. -1.
         11    1    1    2    0    0  0.17162697501E+02 -0.15049268344E+02 -0.33621359462E+02  0.40637845357E+02  0.00000000000E+00 0.  1.
<mgrwt>
<rscale>  0 0.11642318E+03</rscale>
<asrwt>0</asrwt>
<pdfrwt beam="2">  1        2 0.44608600E-01 0.15247158E+03</pdfrwt>
<pdfrwt beam="1">  1       -2 0.67558864E-02 0.15247158E+03</pdfrwt>
<totfact> 0.13274744E+04</totfact>
</mgrwt>
</event>
<event>
 6    1  0.7457796E-006  0.1472485E+03  0.7546771E-02  0.1213414E+00
          2   -1    0    0  501    0  0.00000000000E+00  0.00000000000E+00  0.39698211672E+03  0.39698211672E+03  0.00000000000E+00 0. -1.
         -2   -1    0    0    0  501 -0.00000000000E+00 -0.00000000000E+00 -0.12252347213E+03  0.12252347213E+03  0.00000000000E+00 0.  1.
          5    1    1    2  502    0 -0.36971191289E+02  0.25491085058E+02 -0.17871896249E+01  0.45187923713E+02  0.47000000000E+01 0. -1.
         -5    1    1    2    0  502  0.94814325071E+02  0.20784347465E+02 -0.62072448499E+02  0.11531185629E+03  0.47000000000E+01 0.  1.
        -11    1    1    2    0    0 -0.73682831519E-01 -0.17070973942E+02  0.27988335277E+01  0.17299047651E+02  0.00000000000E+00 0.  1.
         11    1    1    2    0    0 -0.57769450951E+02 -0.29204458580E+02  0.33551944919E+03  0.34170676120E+03  0.00000000000E+00 0. -1.
<mgrwt>
<rscale>  0 0.13993653E+03</rscale>
<asrwt>0</asrwt>
<pdfrwt beam="1">  1        2 0.61074171E-01 0.14724852E+03</pdfrwt>
<pdfrwt beam="2">  1       -2 0.18849765E-01 0.14724852E+03</pdfrwt>
<totfact> 0.18422380E+03</totfact>
</mgrwt>
</event>
<event>
 6    1  0.7457796E-006  0.4209014E+03  0.7546771E-02  0.1036773E+00
         -1   -1    0    0    0  501 -0.00000000000E+00  0.00000000000E+00  0.12992484744E+03  0.12992484744E+03  0.00000000000E+00 0.  1.
          1   -1    0    0  501    0  0.00000000000E+00 -0.00000000000E+00 -0.34088557895E+03  0.34088557895E+03  0.00000000000E+00 0. -1.
          5    1    1    2  502    0  0.11187690407E+02 -0.16288954104E+02 -0.75290695844E+01  0.21662671379E+02  0.47000000000E+01 0. -1.
         -5    1    1    2    0  502 -0.25324214775E+02  0.14753225814E+03  0.42612593695E+02  0.15570808003E+03  0.47000000000E+01 0.  1.
        -11    1    1    2    0    0 -0.26292241263E+02 -0.22179922291E+02 -0.21519836220E+02  0.40575044725E+02  0.00000000000E+00 0.  1.
         11    1    1    2    0    0  0.40428765632E+02 -0.10906338174E+03 -0.22452441941E+03  0.25286463026E+03  0.00000000000E+00 0. -1.
<mgrwt>
<rscale>  0 0.42090145E+03</rscale>
<asrwt>0</asrwt>
<pdfrwt beam="2">  1        1 0.52443935E-01 0.42090145E+03</pdfrwt>
<pdfrwt beam="1">  1       -1 0.19988438E-01 0.42090145E+03</pdfrwt>
<totfact> 0.15097340E+03</totfact>
</mgrwt>
</event>
<event>
 6    1  0.7457796E-006  0.3533919E+03  0.7546771E-02  0.1062358E+00
          1   -1    0    0  501    0  0.00000000000E+00  0.00000000000E+00  0.36023978683E+03  0.36023978683E+03  0.00000000000E+00 0. -1.
         -1   -1    0    0    0  501 -0.00000000000E+00 -0.00000000000E+00 -0.33719209653E+03  0.33719209653E+03  0.00000000000E+00 0.  1.
          5    1    1    2  502    0  0.23002677357E+03 -0.12863384140E+03 -0.21280501200E+02  0.26445024380E+03  0.47000000000E+01 0.  1.
         -5    1    1    2    0  502  0.72631064362E+02 -0.42492422227E+01  0.53453826335E+02  0.90403147731E+02  0.47000000000E+01 0.  1.
        -11    1    1    2    0    0 -0.20147983273E+02  0.37068059571E+02 -0.13290156958E+02  0.44233590656E+02  0.00000000000E+00 0.  1.
         11    1    1    2    0    0 -0.28250985466E+03  0.95815024050E+02  0.41645221269E+01  0.29834490118E+03  0.00000000000E+00 0. -1.
<mgrwt>
<rscale>  0 0.35062582E+03</rscale>
<asrwt>0</asrwt>
<pdfrwt beam="1">  1        1 0.55421506E-01 0.35339186E+03</pdfrwt>
<pdfrwt beam="2">  1       -1 0.51875707E-01 0.35339186E+03</pdfrwt>
<totfact> 0.26631848E+02</totfact>
</mgrwt>
</event>
<event>
 6    1  0.7457796E-006  0.1263432E+03  0.7546771E-02  0.1248077E+00
         -2   -1    0    0    0  501 -0.00000000000E+00  0.00000000000E+00  0.26657959562E+02  0.26657959562E+02  0.00000000000E+00 0.  1.
          2   -1    0    0  501    0  0.00000000000E+00 -0.00000000000E+00 -0.47910936235E+03  0.47910936235E+03  0.00000000000E+00 0. -1.
          5    1    1    2  502    0 -0.52577546875E+02  0.35084143095E+01 -0.19274289618E+03  0.19987151231E+03  0.47000000000E+01 0. -1.
         -5    1    1    2    0  502  0.34485563319E+02  0.79070353681E-01 -0.55398209971E+01  0.35242587110E+02  0.47000000000E+01 0. -1.
        -11    1    1    2    0    0  0.52688653500E+02 -0.77735847019E+01 -0.19341953785E+03  0.20061814586E+03  0.00000000000E+00 0. -1.
         11    1    1    2    0    0 -0.34596669943E+02  0.41861000387E+01 -0.60749147761E+02  0.70035076628E+02  0.00000000000E+00 0.  1.
<mgrwt>
<rscale>  0 0.11703075E+03</rscale>
<asrwt>0</asrwt>
<pdfrwt beam="2">  1        2 0.73709125E-01 0.12634320E+03</pdfrwt>
<pdfrwt beam="1">  1       -2 0.41012249E-02 0.12634320E+03</pdfrwt>
<totfact> 0.16214505E+04</totfact>
</mgrwt>
</event>
<event>
 6    1  0.7457796E-006  0.2085117E+03  0.7546771E-02  0.1146625E+00
         -2   -1    0    0    0  501 -0.00000000000E+00  0.00000000000E+00  0.61057226825E+02  0.61057226825E+02  0.00000000000E+00 0. -1.
          2   -1    0    0  501    0  0.00000000000E+00 -0.00000000000E+00 -0.66255861723E+03  0.66255861723E+03  0.00000000000E+00 0.  1.
          5    1    1    2  502    0  0.59186470923E+02  0.24105725808E+02 -0.52148502887E+02  0.82617677953E+02  0.47000000000E+01 0. -1.
         -5    1    1    2    0  502  0.97194443916E+02 -0.82403177104E+02 -0.31117286710E+03  0.33628512716E+03  0.47000000000E+01 0. -1.
        -11    1    1    2    0    0 -0.89034928610E+02  0.34853424056E+02 -0.20471126755E+03  0.22593955551E+03  0.00000000000E+00 0.  1.
         11    1    1    2    0    0 -0.67345986228E+02  0.23444027239E+02 -0.33468752860E+02  0.78773483434E+02  0.00000000000E+00 0. -1.
<mgrwt>
<rscale>  0 0.20373555E+03</rscale>
<asrwt>0</asrwt>
<pdfrwt beam="2">  1        2 0.10193210E+00 0.20851173E+03</pdfrwt>
<pdfrwt beam="1">  1       -2 0.93934194E-02 0.20851173E+03</pdfrwt>
<totfact> 0.32555299E+03</totfact>
</mgrwt>
</event>
<event>
 6    1  0.7457796E-006  0.1361784E+03  0.7546771E-02  0.1230493E+00
         -1   -1    0    0    0  501 -0.00000000000E+00  0.00000000000E+00  0.28147263233E+02  0.28147263233E+02  0.00000000000E+00 0.  1.
          1   -1    0    0  501    0  0.00000000000E+00 -0.00000000000E+00 -0.55386975672E+03  0.55386975672E+03  0.00000000000E+00 0. -1.
          5    1    1    2  502    0  0.26941854675E+01 -0.29820363202E+02 -0.17727887260E+03  0.17985105328E+03  0.47000000000E+01 0. -1.
         -5    1    1    2    0  502  0.48496994458E+02  0.47067206956E+02 -0.46716112838E+02  0.82290738487E+02  0.47000000000E+01 0. -1.
        -11    1    1    2    0    0 -0.76038935274E+02 -0.72336100410E+01 -0.18570157812E+03  0.20079671538E+03  0.00000000000E+00 0.  1.
         11    1    1    2    0    0  0.24847755348E+02 -0.10013233713E+02 -0.11602592993E+03  0.11907851280E+03  0.00000000000E+00 0. -1.
<mgrwt>
<rscale>  0 0.12797441E+03</rscale>
<asrwt>0</asrwt>
<pdfrwt beam="2">  1        1 0.85210736E-01 0.13617843E+03</pdfrwt>
<pdfrwt beam="1">  1       -1 0.43303480E-02 0.13617843E+03</pdfrwt>
<totfact> 0.82176801E+03</totfact>
</mgrwt>
</event>
<event>
 6    1  0.7457796E-006  0.1455134E+03  0.7546771E-02  0.1216247E+00
          4   -1    0    0  501    0  0.00000000000E+00  0.00000000000E+00  0.74040796533E+03  0.74040796533E+03  0.00000000000E+00 0. -1.
         -4   -1    0    0    0  501 -0.00000000000E+00 -0.00000000000E+00 -0.25694758080E+02  0.25694758080E+02  0.00000000000E+00 0.  1.
          5    1    1    2  502    0 -0.46503968194E+02  0.95747602694E+02  0.17176323295E+03  0.20212600197E+03  0.47000000000E+01 0.  1.
         -5    1    1    2    0  502  0.23939527722E+02 -0.24753138571E+02  0.10432573402E+03  0.10996257380E+03  0.47000000000E+01 0.  1.
        -11    1    1    2    0    0  0.16933387475E+02  0.11057550512E+02  0.24342751507E+02  0.31647726389E+02  0.00000000000E+00 0.  1.
         11    1    1    2    0    0  0.56310529975E+01 -0.82052014635E+02  0.41428148877E+03  0.42236642125E+03  0.00000000000E+00 0. -1.
<mgrwt>
<rscale>  0 0.13785302E+03</rscale>
<asrwt>0</asrwt>
<pdfrwt beam="1">  1        4 0.11390890E+00 0.14551344E+03</pdfrwt>
<pdfrwt beam="2">  1       -4 0.39530403E-02 0.14551344E+03</pdfrwt>
<totfact> 0.36968985E+02</totfact>
</mgrwt>
</event>
<event>
 6    1  0.7457796E-006  0.3803150E+03  0.7546771E-02  0.1050817E+00
         -1   -1    0    0    0  501 -0.00000000000E+00  0.00000000000E+00  0.48866717885E+03  0.48866717885E+03  0.00000000000E+00 0.  1.
          1   -1    0    0  501    0  0.00000000000E+00 -0.00000000000E+00 -0.73996918949E+02  0.73996918949E+02  0.00000000000E+00 0. -1.
          5    1    1    2  502    0 -0.36978177319E+00 -0.12290088666E+02 -0.40333395922E+01  0.13767383420E+02  0.47000000000E+01 0.  1.
         -5    1    1    2    0  502  0.70730620923E+02  0.13835290185E+03  0.31247069256E+03  0.34900482790E+03  0.47000000000E+01 0.  1.
        -11    1    1    2    0    0  0.30796015268E+01 -0.52577081347E+02  0.74547212504E+02  0.91274970943E+02  0.00000000000E+00 0.  1.
         11    1    1    2    0    0 -0.73440440677E+02 -0.73485731836E+02  0.31685694431E+02  0.10861691554E+03  0.00000000000E+00 0. -1.
<mgrwt>
<rscale>  0 0.38031495E+03</rscale>
<asrwt>0</asrwt>
<pdfrwt beam="2">  1        1 0.11384142E-01 0.38031495E+03</pdfrwt>
<pdfrwt beam="1">  1       -1 0.75179564E-01 0.38031495E+03</pdfrwt>
<totfact> 0.10023705E+03</totfact>
</mgrwt>
</event>
<event>
 6    1  0.7457796E-006  0.1279860E+03  0.7546771E-02  0.1244915E+00
          2   -1    0    0  501    0  0.00000000000E+00  0.00000000000E+00  0.74629832908E+03  0.74629832908E+03  0.00000000000E+00 0. -1.
         -2   -1    0    0    0  501 -0.00000000000E+00 -0.00000000000E+00 -0.20999373003E+02  0.20999373003E+02  0.00000000000E+00 0.  1.
          5    1    1    2  502    0  0.29978692934E+02 -0.26682091448E+02  0.25956161503E+02  0.48025705139E+02  0.47000000000E+01 0.  1.
         -5    1    1    2    0  502 -0.49036465976E+02  0.46389959184E+02  0.20691966972E+03  0.21770264818E+03  0.47000000000E+01 0.  1.
        -11    1    1    2    0    0 -0.28950054733E+02 -0.34507878024E+02  0.24223188042E+03  0.24638421867E+03  0.00000000000E+00 0. -1.
         11    1    1    2    0    0  0.48007827775E+02  0.14800010288E+02  0.25019124444E+03  0.25518513010E+03  0.00000000000E+00 0.  1.
<mgrwt>
<rscale>  0 0.11890493E+03</rscale>
<asrwt>0</asrwt>
<pdfrwt beam="1">  1        2 0.11481511E+00 0.12798596E+03</pdfrwt>
<pdfrwt beam="2">  1       -2 0.32306734E-02 0.12798596E+03</pdfrwt>
<totfact> 0.13940223E+04</totfact>
</mgrwt>
</event>
<event>
 6    1  0.7457796E-006  0.3223060E+03  0.7546771E-02  0.1074593E+00
          2   -1    0    0  501    0  0.00000000000E+00  0.00000000000E+00  0.26268409690E+03  0.26268409690E+03  0.00000000000E+00 0.  1.
         -2   -1    0    0    0  501 -0.00000000000E+00 -0.00000000000E+00 -0.98865092743E+02  0.98865092743E+02  0.00000000000E+00 0. -1.
          5    1    1    2  502    0 -0.35057967994E+02 -0.37082468579E+01  0.11567374620E+02  0.37399283017E+02  0.47000000000E+01 0. -1.
         -5    1    1    2    0  502  0.91710130374E+02  0.51209724420E+02 -0.27644863000E+02  0.10871758063E+03  0.47000000000E+01 0. -1.
        -11    1    1    2    0    0  0.12236374902E+02 -0.47698838077E+02  0.83737833838E+02  0.97143877010E+02  0.00000000000E+00 0. -1.
         11    1    1    2    0    0 -0.68888537282E+02  0.19736051409E+00  0.96158658702E+02  0.11828844899E+03  0.00000000000E+00 0.  1.
<mgrwt>
<rscale>  0 0.32230599E+03</rscale>
<asrwt>0</asrwt>
<pdfrwt beam="1">  1        2 0.40412938E-01 0.32230599E+03</pdfrwt>
<pdfrwt beam="2">  1       -2 0.15210014E-01 0.32230599E+03</pdfrwt>
<totfact> 0.42288985E+03</totfact>
</mgrwt>
</event>
<event>
 6    1  0.7457796E-006  0.1580881E+03  0.7546771E-02  0.1199132E+00
          1   -1    0    0  501    0  0.00000000000E+00  0.00000000000E+00  0.78230820570E+03  0.78230820570E+03  0.00000000000E+00 0. -1.
         -1   -1    0    0    0  501 -0.00000000000E+00 -0.00000000000E+00 -0.27277206445E+02  0.27277206445E+02  0.00000000000E+00 0.  1.
          5    1    1    2  502    0 -0.47261780756E-01  0.22080455118E+02 -0.21250611158E+01  0.22674977765E+02  0.47000000000E+01 0.  1.
         -5    1    1    2    0  502  0.42478009388E+02  0.64884807860E+02  0.36439959537E+03  0.37259035773E+03  0.47000000000E+01 0.  1.
        -11    1    1    2    0    0  0.24204088015E+02 -0.73414269577E+01  0.11607799152E+03  0.11880166052E+03  0.00000000000E+00 0. -1.
         11    1    1    2    0    0 -0.66634835623E+02 -0.79623836021E+02  0.27667847348E+03  0.29551841612E+03  0.00000000000E+00 0.  1.
<mgrwt>
<rscale>  0 0.15109633E+03</rscale>
<asrwt>0</asrwt>
<pdfrwt beam="1">  1        1 0.12035509E+00 0.15808810E+03</pdfrwt>
<pdfrwt beam="2">  1       -1 0.41964939E-02 0.15808810E+03</pdfrwt>
<totfact> 0.53349802E+03</totfact>
</mgrwt>
</event>
<event>
 6    1  0.7457796E-006  0.1619851E+03  0.7546771E-02  0.1193843E+00
          2   -1    0    0  501    0  0.00000000000E+00  0.00000000000E+00  0.39023158745E+02  0.39023158745E+02  0.00000000000E+00 0. -1.
         -2   -1    0    0    0  501 -0.00000000000E+00 -0.00000000000E+00 -0.57773271853E+03  0.57773271853E+03  0.00000000000E+00 0.  1.
          5    1    1    2  502    0  0.32538747821E+02 -0.12740891331E+03 -0.23991415896E+03  0.27362875392E+03  0.47000000000E+01 0. -1.
         -5    1    1    2    0  502 -0.12784488899E+02  0.26295416311E+02 -0.71643012595E+02  0.77522276341E+02  0.47000000000E+01 0. -1.
        -11    1    1    2    0    0  0.68546025624E+01  0.10394609297E+03 -0.14044090063E+03  0.17485829231E+03  0.00000000000E+00 0. -1.
         11    1    1    2    0    0 -0.26608861484E+02 -0.28325959725E+01 -0.86711487595E+02  0.90746554703E+02  0.00000000000E+00 0.  1.
<mgrwt>
<rscale>  0 0.15552527E+03</rscale>
<asrwt>0</asrwt>
<pdfrwt beam="1">  1        2 0.60035628E-02 0.16198511E+03</pdfrwt>
<pdfrwt beam="2">  1       -2 0.88881958E-01 0.16198511E+03</pdfrwt>
<totfact> 0.13557094E+03</totfact>
</mgrwt>
</event>
<event>
 6    1  0.7457796E-006  0.1322246E+03  0.7546771E-02  0.1237040E+00
          1   -1    0    0  501    0  0.00000000000E+00  0.00000000000E+00  0.29375605530E+03  0.29375605530E+03  0.00000000000E+00 0. -1.
         -1   -1    0    0    0  501 -0.00000000000E+00 -0.00000000000E+00 -0.50573238446E+02  0.50573238446E+02  0.00000000000E+00 0.  1.
          5    1    1    2  502    0 -0.83407137012E+01 -0.51816626838E+02  0.72867090850E+02  0.89923485535E+02  0.47000000000E+01 0. -1.
         -5    1    1    2    0  502 -0.34407042572E+02  0.57416364343E+02  0.14771952782E+02  0.68707962143E+02  0.47000000000E+01 0. -1.
        -11    1    1    2    0    0 -0.13165136862E+01  0.33442923369E+02  0.22835297825E+02  0.40516825622E+02  0.00000000000E+00 0.  1.
         11    1    1    2    0    0  0.44064269959E+02 -0.39042660874E+02  0.13270847539E+03  0.14518102044E+03  0.00000000000E+00 0. -1.
<mgrwt>
<rscale>  0 0.12374712E+03</rscale>
<asrwt>0</asrwt>
<pdfrwt beam="1">  1        1 0.45193238E-01 0.13222456E+03</pdfrwt>
<pdfrwt beam="2">  1       -1 0.77804984E-02 0.13222456E+03</pdfrwt>
<totfact> 0.76728095E+03</totfact>
</mgrwt>
</event>
<event>
 6    1  0.7457796E-006  0.1685518E+03  0.7546771E-02  0.1186108E+00
          1   -1    0    0  501    0  0.00000000000E+00  0.00000000000E+00  0.24010749140E+03  0.24010749140E+03  0.00000000000E+00 0. -1.
         -1   -1    0    0    0  501 -0.00000000000E+00 -0.00000000000E+00 -0.10558935271E+03  0.10558935271E+03  0.00000000000E+00 0.  1.
          5    1    1    2  502    0 -0.20105290826E+02  0.69816287625E+02 -0.94810689013E+01  0.73420143043E+02  0.47000000000E+01 0. -1.
         -5    1    1    2    0  502 -0.82825925583E+02 -0.23015902019E+02  0.51388634334E+02  0.10026339029E+03  0.47000000000E+01 0. -1.
        -11    1    1    2    0    0  0.33193867399E+02 -0.15028171926E+02 -0.15416736655E+02  0.39564561838E+02  0.00000000000E+00 0.  1.
         11    1    1    2    0    0  0.69737349010E+02 -0.31772213680E+02  0.10802730991E+03  0.13244874894E+03  0.00000000000E+00 0. -1.
<mgrwt>
<rscale>  0 0.16231483E+03</rscale>
<asrwt>0</asrwt>
<pdfrwt beam="1">  1        1 0.36939614E-01 0.16855185E+03</pdfrwt>
<pdfrwt beam="2">  1       -1 0.16244516E-01 0.16855185E+03</pdfrwt>
<totfact> 0.32095597E+03</totfact>
</mgrwt>
</event>
<event>
 6    1  0.7457796E-006  0.2416294E+03  0.7546771E-02  0.1118712E+00
          1   -1    0    0  501    0  0.00000000000E+00  0.00000000000E+00  0.50414093007E+03  0.50414093007E+03  0.00000000000E+00 0. -1.
         -1   -1    0    0    0  501 -0.00000000000E+00 -0.00000000000E+00 -0.28952597102E+02  0.28952597102E+02  0.00000000000E+00 0.  1.
          5    1    1    2  502    0 -0.22756969912E+02  0.14338171756E+02  0.22232799753E+03  0.22399841815E+03  0.47000000000E+01 0. -1.
         -5    1    1    2    0  502  0.36155091193E+02 -0.62340488767E+02  0.85240640527E+02  0.11172100947E+03  0.47000000000E+01 0. -1.
        -11    1    1    2    0    0 -0.35959794703E+02  0.14661110005E+02  0.18686136825E+02  0.43095553032E+02  0.00000000000E+00 0.  1.
         11    1    1    2    0    0  0.22561673422E+02  0.33341207006E+02  0.14893355809E+03  0.15427854652E+03  0.00000000000E+00 0. -1.
<mgrwt>
<rscale>  0 0.24162938E+03</rscale>
<asrwt>0</asrwt>
<pdfrwt beam="1">  1        1 0.77560136E-01 0.24162938E+03</pdfrwt>
<pdfrwt beam="2">  1       -1 0.44542461E-02 0.24162938E+03</pdfrwt>
<totfact> 0.92399976E+03</totfact>
</mgrwt>
</event>
<event>
 6    1  0.7457796E-006  0.1649337E+03  0.7546771E-02  0.1190204E+00
         -1   -1    0    0    0  501 -0.00000000000E+00  0.00000000000E+00  0.36009778897E+02  0.36009778897E+02  0.00000000000E+00 0.  1.
          1   -1    0    0  501    0  0.00000000000E+00 -0.00000000000E+00 -0.77139786598E+03  0.77139786598E+03  0.00000000000E+00 0. -1.
          5    1    1    2  502    0  0.50510499634E+02 -0.50482252280E+02 -0.14971073808E+03  0.16593722749E+03  0.47000000000E+01 0.  1.
         -5    1    1    2    0  502 -0.64466790866E+02 -0.56212469992E+02 -0.82846832004E+02  0.11917003180E+03  0.47000000000E+01 0.  1.
        -11    1    1    2    0    0  0.47784704418E+02  0.31311125008E+02 -0.16893325987E+03  0.17833174371E+03  0.00000000000E+00 0.  1.
         11    1    1    2    0    0 -0.33828413186E+02  0.75383597264E+02 -0.33389725713E+03  0.34396864188E+03  0.00000000000E+00 0. -1.
<mgrwt>
<rscale>  0 0.15867184E+03</rscale>
<asrwt>0</asrwt>
<pdfrwt beam="2">  1        1 0.11867660E+00 0.16493370E+03</pdfrwt>
<pdfrwt beam="1">  1       -1 0.55399658E-02 0.16493370E+03</pdfrwt>
<totfact> 0.36137274E+03</totfact>
</mgrwt>
</event>
<event>
 6    1  0.7457796E-006  0.3013747E+03  0.7546771E-02  0.1084555E+00
          3   -1    0    0  501    0  0.00000000000E+00  0.00000000000E+00  0.19410252208E+03  0.19410252208E+03  0.00000000000E+00 0. -1.
         -3   -1    0    0    0  501 -0.00000000000E+00 -0.00000000000E+00 -0.11698289184E+03  0.11698289184E+03  0.00000000000E+00 0.  1.
          5    1    1    2  502    0 -0.39111091265E+02  0.87137792318E+02 -0.75459404759E+01  0.95925510307E+02  0.47000000000E+01 0.  1.
         -5    1    1    2    0  502 -0.25970427234E+02 -0.87573888103E+01  0.72987418875E+02  0.78105110355E+02  0.47000000000E+01 0.  1.
        -11    1    1    2    0    0  0.54037924360E+02 -0.38959596335E+02  0.48173355904E+02  0.82210824317E+02  0.00000000000E+00 0. -1.
         11    1    1    2    0    0  0.11043594139E+02 -0.39420807173E+02 -0.36495204059E+02  0.54843968939E+02  0.00000000000E+00 0.  1.
<mgrwt>
<rscale>  0 0.30137468E+03</rscale>
<asrwt>0</asrwt>
<pdfrwt beam="1">  1        3 0.29861927E-01 0.30137468E+03</pdfrwt>
<pdfrwt beam="2">  1       -3 0.17997368E-01 0.30137468E+03</pdfrwt>
<totfact> 0.75083155E+02</totfact>
</mgrwt>
</event>
<event>
 6    1  0.7457796E-006  0.1279278E+03  0.7546771E-02  0.1248937E+00
         -2   -1    0    0    0  501 -0.00000000000E+00  0.00000000000E+00  0.37989723866E+03  0.37989723866E+03  0.00000000000E+00 0.  1.
          2   -1    0    0  501    0  0.00000000000E+00 -0.00000000000E+00 -0.31122560703E+02  0.31122560703E+02  0.00000000000E+00 0. -1.
          5    1    1    2  502    0 -0.21649994305E+02 -0.63064037761E+02  0.11164656134E+03  0.13012624551E+03  0.47000000000E+01 0.  1.
         -5    1    1    2    0  502 -0.54010059450E+01  0.60390564097E+02  0.11796367184E+03  0.13271664919E+03  0.47000000000E+01 0.  1.
        -11    1    1    2    0    0  0.33801708811E+02  0.23168121434E+02  0.18037527148E+02  0.44773538557E+02  0.00000000000E+00 0. -1.
         11    1    1    2    0    0 -0.67507085612E+01 -0.20494647770E+02  0.10112691763E+03  0.10340336611E+03  0.00000000000E+00 0.  1.
<mgrwt>
<rscale>  0 0.11652795E+03</rscale>
<asrwt>0</asrwt>
<pdfrwt beam="2">  1        2 0.47880865E-02 0.12792782E+03</pdfrwt>
<pdfrwt beam="1">  1       -2 0.58445726E-01 0.12792782E+03</pdfrwt>
<totfact> 0.43980567E+03</totfact>
</mgrwt>
</event>
<event>
 6    1  0.7457796E-006  0.2206145E+03  0.7546771E-02  0.1163610E+00
          2   -1    0    0  501    0  0.00000000000E+00  0.00000000000E+00  0.79390889718E+03  0.79390889718E+03  0.00000000000E+00 0. -1.
         -2   -1    0    0    0  501 -0.00000000000E+00 -0.00000000000E+00 -0.77376066194E+02  0.77376066194E+02  0.00000000000E+00 0.  1.
          5    1    1    2  502    0 -0.38462784649E+02  0.28528188088E+02  0.15681316542E+03  0.16402957711E+03  0.47000000000E+01 0. -1.
         -5    1    1    2    0  502 -0.18709199783E+02 -0.38955663058E+02 -0.62308977104E+02  0.75974182908E+02  0.47000000000E+01 0.  1.
        -11    1    1    2    0    0 -0.96080729180E+01 -0.28668791799E+02  0.16488807568E+03  0.16763738303E+03  0.00000000000E+00 0.  1.
         11    1    1    2    0    0  0.66780057350E+02  0.39096266769E+02  0.45714056699E+03  0.46364382032E+03  0.00000000000E+00 0. -1.
<mgrwt>
<rscale>  0 0.18440199E+03</rscale>
<asrwt>0</asrwt>
<pdfrwt beam="1">  1        2 0.12213982E+00 0.22061451E+03</pdfrwt>
<pdfrwt beam="2">  1       -2 0.11904011E-01 0.22061451E+03</pdfrwt>
<totfact> 0.17897323E+03</totfact>
</mgrwt>
</event>
<event>
 6    1  0.7457796E-006  0.1507717E+03  0.7546771E-02  0.1209119E+00
          2   -1    0    0  501    0  0.00000000000E+00  0.00000000000E+00  0.13350394124E+04  0.13350394124E+04  0.00000000000E+00 0. -1.
         -2   -1    0    0    0  501 -0.00000000000E+00 -0.00000000000E+00 -0.14073367915E+02  0.14073367915E+02  0.00000000000E+00 0.  1.
          5    1    1    2  502    0  0.25281378781E+02 -0.58574753661E+02  0.24231339642E+03  0.25061528677E+03  0.47000000000E+01 0.  1.
         -5    1    1    2    0  502 -0.85102010123E+02 -0.82594850006E+00  0.43580994496E+03  0.44406692338E+03  0.47000000000E+01 0.  1.
        -11    1    1    2    0    0 -0.83665576218E+01 -0.15958845863E+02  0.55259320598E+02  0.58122943496E+02  0.00000000000E+00 0.  1.
         11    1    1    2    0    0  0.68187188964E+02  0.75359548024E+02  0.58758338250E+03  0.59630762666E+03  0.00000000000E+00 0. -1.
<mgrwt>
<rscale>  0 0.14317568E+03</rscale>
<asrwt>0</asrwt>
<pdfrwt beam="1">  1        2 0.20539058E+00 0.15077170E+03</pdfrwt>
<pdfrwt beam="2">  1       -2 0.21651346E-02 0.15077170E+03</pdfrwt>
<totfact> 0.11248656E+04</totfact>
</mgrwt>
</event>
<event>
 6    1  0.7457796E-006  0.3019114E+03  0.7546771E-02  0.1084289E+00
          2   -1    0    0  501    0  0.00000000000E+00  0.00000000000E+00  0.97246470585E+03  0.97246470585E+03  0.00000000000E+00 0. -1.
         -2   -1    0    0    0  501 -0.00000000000E+00 -0.00000000000E+00 -0.23432856906E+02  0.23432856906E+02  0.00000000000E+00 0.  1.
          5    1    1    2  502    0  0.27145269264E+02  0.10145234859E+03  0.36359681487E+03  0.37848933731E+03  0.47000000000E+01 0.  1.
         -5    1    1    2    0  502 -0.80706591453E+01 -0.94505865766E+01 -0.38009940012E+01  0.13819793091E+02  0.47000000000E+01 0.  1.
        -11    1    1    2    0    0  0.35315162789E+02 -0.49781338555E+02  0.24083224813E+03  0.24844619967E+03  0.00000000000E+00 0.  1.
         11    1    1    2    0    0 -0.54389772908E+02 -0.42220423454E+02  0.34840377995E+03  0.35514223269E+03  0.00000000000E+00 0. -1.
<mgrwt>
<rscale>  0 0.30191142E+03</rscale>
<asrwt>0</asrwt>
<pdfrwt beam="1">  1        2 0.14960992E+00 0.30191142E+03</pdfrwt>
<pdfrwt beam="2">  1       -2 0.36050557E-02 0.30191142E+03</pdfrwt>
<totfact> 0.87895858E+03</totfact>
</mgrwt>
</event>
<event>
 6    1  0.7457796E-006  0.1708177E+03  0.7546771E-02  0.1185933E+00
          2   -1    0    0  501    0  0.00000000000E+00  0.00000000000E+00  0.74030440734E+03  0.74030440734E+03  0.00000000000E+00 0. -1.
         -2   -1    0    0    0  501 -0.00000000000E+00 -0.00000000000E+00 -0.33048458499E+02  0.33048458499E+02  0.00000000000E+00 0.  1.
          5    1    1    2  502    0  0.49103071090E+01 -0.63382709775E+01  0.21326153940E+03  0.21346395241E+03  0.47000000000E+01 0. -1.
         -5    1    1    2    0  502  0.18816918521E+02 -0.10763869291E+03  0.12952314298E+03  0.16952433218E+03  0.47000000000E+01 0. -1.
        -11    1    1    2    0    0 -0.11665319432E+02  0.12328874012E+03  0.31054629420E+03  0.33432797364E+03  0.00000000000E+00 0.  1.
         11    1    1    2    0    0 -0.12061906198E+02 -0.93117762337E+01  0.53924972271E+02  0.56036607607E+02  0.00000000000E+00 0. -1.
<mgrwt>
<rscale>  0 0.16247243E+03</rscale>
<asrwt>0</asrwt>
<pdfrwt beam="1">  1        2 0.11389297E+00 0.17081770E+03</pdfrwt>
<pdfrwt beam="2">  1       -2 0.50843788E-02 0.17081770E+03</pdfrwt>
<totfact> 0.72867409E+03</totfact>
</mgrwt>
</event>
<event>
 6    1  0.7457796E-006  0.1958195E+03  0.7546771E-02  0.1157888E+00
         -2   -1    0    0    0  501 -0.00000000000E+00  0.00000000000E+00  0.11782790059E+03  0.11782790059E+03  0.00000000000E+00 0.  1.
          2   -1    0    0  501    0  0.00000000000E+00 -0.00000000000E+00 -0.31224886850E+03  0.31224886850E+03  0.00000000000E+00 0. -1.
          5    1    1    2  502    0 -0.70754019905E+01 -0.10084321376E+03 -0.87760549169E+02  0.13395304799E+03  0.47000000000E+01 0. -1.
         -5    1    1    2    0  502 -0.33526353988E+02 -0.44319084581E+02  0.38745004994E+02  0.67907754210E+02  0.47000000000E+01 0. -1.
        -11    1    1    2    0    0  0.34774110149E+02  0.11529858379E+03 -0.15502434578E+03  0.19630473745E+03  0.00000000000E+00 0. -1.
         11    1    1    2    0    0  0.58276458294E+01  0.29863714547E+02  0.96189220504E+01  0.31911229432E+02  0.00000000000E+00 0.  1.
<mgrwt>
<rscale>  0 0.19063672E+03</rscale>
<asrwt>0</asrwt>
<pdfrwt beam="2">  1        2 0.48038287E-01 0.19581946E+03</pdfrwt>
<pdfrwt beam="1">  1       -2 0.18127369E-01 0.19581946E+03</pdfrwt>
<totfact> 0.25677884E+03</totfact>
</mgrwt>
</event>
<event>
 6    1  0.8614357E-006  0.1345225E+03  0.7546771E-02  0.1233677E+00
          1   -1    0    0  501    0  0.00000000000E+00  0.00000000000E+00  0.54600455176E+03  0.54600455176E+03  0.00000000000E+00 0. -1.
         -1   -1    0    0    0  501 -0.00000000000E+00 -0.00000000000E+00 -0.27686184680E+02  0.27686184680E+02  0.00000000000E+00 0.  1.
          5    1    1    2  502    0 -0.25596573348E+02  0.32509127417E+02  0.71200558910E+01  0.42247048754E+02  0.47000000000E+01 0. -1.
         -5    1    1    2    0  502  0.31087126457E+02  0.16900388657E+02  0.21116177243E+03  0.21415745773E+03  0.47000000000E+01 0. -1.
        -11    1    1    2    0    0  0.36736573032E+02  0.18452709082E+01  0.10675178804E+03  0.11291113795E+03  0.00000000000E+00 0. -1.
         11    1    1    2    0    0 -0.42227126141E+02 -0.51254786982E+02  0.19328475072E+03  0.20437509200E+03  0.00000000000E+00 0.  1.
<mgrwt>
<rscale>  0 0.12589486E+03</rscale>
<asrwt>0</asrwt>
<pdfrwt beam="1">  1        1 0.84000692E-01 0.13452254E+03</pdfrwt>
<pdfrwt beam="2">  1       -1 0.42594134E-02 0.13452254E+03</pdfrwt>
<totfact> 0.85750594E+03</totfact>
</mgrwt>
</event>
<event>
 6    1  0.7457796E-006  0.2722369E+03  0.7546771E-02  0.1102085E+00
          2   -1    0    0  501    0  0.00000000000E+00  0.00000000000E+00  0.13259987301E+04  0.13259987301E+04  0.00000000000E+00 0. -1.
         -2   -1    0    0    0  501 -0.00000000000E+00 -0.00000000000E+00 -0.58228712348E+02  0.58228712348E+02  0.00000000000E+00 0.  1.
          5    1    1    2  502    0 -0.64547938533E+02  0.14246654015E+01  0.34824698647E+02  0.73507249140E+02  0.47000000000E+01 0.  1.
         -5    1    1    2    0  502 -0.16858571874E+03 -0.65744331732E+02  0.40728412553E+03  0.44569710637E+03  0.47000000000E+01 0.  1.
        -11    1    1    2    0    0 -0.65986779060E+01  0.95846164525E+01  0.49041417914E+02  0.50403056392E+02  0.00000000000E+00 0. -1.
         11    1    1    2    0    0  0.23973233518E+03  0.54735049878E+02  0.77661977562E+03  0.81462003051E+03  0.00000000000E+00 0.  1.
<mgrwt>
<rscale>  0 0.26859789E+03</rscale>
<asrwt>0</asrwt>
<pdfrwt beam="1">  1        2 0.20399978E+00 0.27223694E+03</pdfrwt>
<pdfrwt beam="2">  1       -2 0.89582644E-02 0.27223694E+03</pdfrwt>
<totfact> 0.13433617E+03</totfact>
</mgrwt>
</event>
<event>
 6    1  0.7457796E-006  0.1625779E+03  0.7546771E-02  0.1192967E+00
         -1   -1    0    0    0  501 -0.00000000000E+00  0.00000000000E+00  0.34078536084E+03  0.34078536084E+03  0.00000000000E+00 0.  1.
          1   -1    0    0  501    0  0.00000000000E+00 -0.00000000000E+00 -0.14939010398E+03  0.14939010398E+03  0.00000000000E+00 0. -1.
          5    1    1    2  502    0  0.10786295776E+03 -0.22211856430E+02  0.23429820469E+03  0.25893150242E+03  0.47000000000E+01 0. -1.
         -5    1    1    2    0  502 -0.65666396845E+01  0.45566718547E+02  0.46933155783E+02  0.65910983210E+02  0.47000000000E+01 0. -1.
        -11    1    1    2    0    0 -0.22123540455E+01 -0.16161490712E+02  0.14095321925E+02  0.21558441331E+02  0.00000000000E+00 0.  1.
         11    1    1    2    0    0 -0.99083964030E+02 -0.71933714052E+01 -0.10393142554E+03  0.14377453785E+03  0.00000000000E+00 0. -1.
<mgrwt>
<rscale>  0 0.15627543E+03</rscale>
<asrwt>0</asrwt>
<pdfrwt beam="2">  1        1 0.22983093E-01 0.16257787E+03</pdfrwt>
<pdfrwt beam="1">  1       -1 0.52428517E-01 0.16257787E+03</pdfrwt>
<totfact> 0.79886489E+02</totfact>
</mgrwt>
</event>
<event>
 6    1  0.7457796E-006  0.1533856E+03  0.7546771E-02  0.1204070E+00
          3   -1    0    0  501    0  0.00000000000E+00  0.00000000000E+00  0.28041801906E+02  0.28041801906E+02  0.00000000000E+00 0. -1.
         -3   -1    0    0    0  501 -0.00000000000E+00 -0.00000000000E+00 -0.71575015689E+03  0.71575015689E+03  0.00000000000E+00 0.  1.
          5    1    1    2  502    0  0.48140188585E+02  0.43257149164E+02 -0.17646521959E+03  0.18801787797E+03  0.47000000000E+01 0.  1.
         -5    1    1    2    0  502  0.32306636317E+02 -0.81084500043E+02 -0.18295817285E+03  0.20276636286E+03  0.47000000000E+01 0.  1.
        -11    1    1    2    0    0 -0.22532328654E+02  0.60992417399E+02 -0.20110475936E+03  0.21135492673E+03  0.00000000000E+00 0. -1.
         11    1    1    2    0    0 -0.57914496248E+02 -0.23165066521E+02 -0.12718020318E+03  0.14165279123E+03  0.00000000000E+00 0.  1.
<mgrwt>
<rscale>  0 0.14711004E+03</rscale>
<asrwt>0</asrwt>
<pdfrwt beam="1">  1        3 0.43141241E-02 0.15338562E+03</pdfrwt>
<pdfrwt beam="2">  1       -3 0.11011539E+00 0.15338562E+03</pdfrwt>
<totfact> 0.49267478E+02</totfact>
</mgrwt>
</event>
<event>
 6    1  0.7457796E-006  0.1776575E+03  0.7546771E-02  0.1175805E+00
          2   -1    0    0  501    0  0.00000000000E+00  0.00000000000E+00  0.12784472293E+04  0.12784472293E+04  0.00000000000E+00 0. -1.
         -2   -1    0    0    0  501 -0.00000000000E+00 -0.00000000000E+00 -0.25223887627E+02  0.25223887627E+02  0.00000000000E+00 0.  1.
          5    1    1    2  502    0  0.33010147558E+02 -0.77287416796E+02  0.12819179783E+03  0.15335658339E+03  0.47000000000E+01 0.  1.
         -5    1    1    2    0  502  0.78149795203E+02  0.17456020569E+02  0.29273366031E+03  0.30352461024E+03  0.47000000000E+01 0.  1.
        -11    1    1    2    0    0 -0.50434697361E+02  0.77302261215E+02  0.52694284934E+03  0.53496547997E+03  0.00000000000E+00 0.  1.
         11    1    1    2    0    0 -0.60725245400E+02 -0.17470864988E+02  0.30535503419E+03  0.31182444333E+03  0.00000000000E+00 0. -1.
<mgrwt>
<rscale>  0 0.17197408E+03</rscale>
<asrwt>0</asrwt>
<pdfrwt beam="1">  1        2 0.19668414E+00 0.17765749E+03</pdfrwt>
<pdfrwt beam="2">  1       -2 0.38805991E-02 0.17765749E+03</pdfrwt>
<totfact> 0.51350020E+03</totfact>
</mgrwt>
</event>
<event>
 6    1  0.7457796E-006  0.2687991E+03  0.7546771E-02  0.1103820E+00
         -2   -1    0    0    0  501 -0.00000000000E+00  0.00000000000E+00  0.22990138753E+03  0.22990138753E+03  0.00000000000E+00 0.  1.
          2   -1    0    0  501    0  0.00000000000E+00 -0.00000000000E+00 -0.32034701177E+03  0.32034701177E+03  0.00000000000E+00 0. -1.
          5    1    1    2  502    0 -0.15866335433E+03 -0.15210798935E+03  0.36991193879E+02  0.22293797087E+03  0.47000000000E+01 0. -1.
         -5    1    1    2    0  502 -0.39626851437E+02  0.20544730250E+02 -0.13543959688E+02  0.46881789000E+02  0.47000000000E+01 0. -1.
        -11    1    1    2    0    0  0.65155171566E+02  0.21835920821E+02  0.80091954667E+01  0.69182013789E+02  0.00000000000E+00 0.  1.
         11    1    1    2    0    0  0.13313503420E+03  0.10972733828E+03 -0.12190205390E+03  0.21124662564E+03  0.00000000000E+00 0. -1.
<mgrwt>
<rscale>  0 0.26560763E+03</rscale>
<asrwt>0</asrwt>
<pdfrwt beam="2">  1        2 0.49284156E-01 0.26879905E+03</pdfrwt>
<pdfrwt beam="1">  1       -2 0.35369444E-01 0.26879905E+03</pdfrwt>
<totfact> 0.76854483E+02</totfact>
</mgrwt>
</event>
<event>
 6    1  0.7457796E-006  0.1637752E+03  0.7546771E-02  0.1191481E+00
         -2   -1    0    0    0  501 -0.00000000000E+00  0.00000000000E+00  0.55228147970E+02  0.55228147970E+02  0.00000000000E+00 0.  1.
          2   -1    0    0  501    0  0.00000000000E+00 -0.00000000000E+00 -0.53137078852E+03  0.53137078852E+03  0.00000000000E+00 0. -1.
          5    1    1    2  502    0  0.92521518396E+02  0.42421152580E+02 -0.26135120663E+02  0.10518992387E+03  0.47000000000E+01 0.  1.
         -5    1    1    2    0  502 -0.12847511708E+02  0.27185583920E+02 -0.91570154244E+02  0.96495065565E+02  0.47000000000E+01 0.  1.
        -11    1    1    2    0    0  0.16605195492E+02 -0.49218034866E+01 -0.10205741881E+03  0.10351653685E+03  0.00000000000E+00 0.  1.
         11    1    1    2    0    0 -0.96279202180E+02 -0.64684933013E+02 -0.25637994683E+03  0.28139741020E+03  0.00000000000E+00 0. -1.
<mgrwt>
<rscale>  0 0.15755893E+03</rscale>
<asrwt>0</asrwt>
<pdfrwt beam="2">  1        2 0.81749354E-01 0.16377516E+03</pdfrwt>
<pdfrwt beam="1">  1       -2 0.84966379E-02 0.16377516E+03</pdfrwt>
<totfact> 0.48670837E+03</totfact>
</mgrwt>
</event>
<event>
 6    1  0.7457796E-006  0.3316356E+03  0.7546771E-02  0.1070415E+00
          1   -1    0    0  501    0  0.00000000000E+00  0.00000000000E+00  0.41394642727E+03  0.41394642727E+03  0.00000000000E+00 0. -1.
         -1   -1    0    0    0  501 -0.00000000000E+00 -0.00000000000E+00 -0.66422946884E+02  0.66422946884E+02  0.00000000000E+00 0.  1.
          5    1    1    2  502    0  0.22453050670E+02  0.12052195623E+02  0.12767812848E+02  0.28887747380E+02  0.47000000000E+01 0. -1.
         -5    1    1    2    0  502 -0.10427286905E+03 -0.10528602185E+03  0.15036169558E+03  0.21116038245E+03  0.47000000000E+01 0. -1.
        -11    1    1    2    0    0  0.27348496694E+02  0.88128841681E+02  0.14867792528E+03  0.17498502357E+03  0.00000000000E+00 0. -1.
         11    1    1    2    0    0  0.54471321681E+02  0.51049845495E+01  0.35716046676E+02  0.65336220760E+02  0.00000000000E+00 0.  1.
<mgrwt>
<rscale>  0 0.33163559E+03</rscale>
<asrwt>0</asrwt>
<pdfrwt beam="1">  1        1 0.63684064E-01 0.33163559E+03</pdfrwt>
<pdfrwt beam="2">  1       -1 0.10218915E-01 0.33163559E+03</pdfrwt>
<totfact> 0.34206182E+03</totfact>
</mgrwt>
</event>
<event>
 6    1  0.7457796E-006  0.1284515E+03  0.7546771E-02  0.1244536E+00
         -4   -1    0    0    0  501 -0.00000000000E+00  0.00000000000E+00  0.22678382435E+03  0.22678382435E+03  0.00000000000E+00 0. -1.
          4   -1    0    0  501    0  0.00000000000E+00 -0.00000000000E+00 -0.60903401035E+02  0.60903401035E+02  0.00000000000E+00 0.  1.
          5    1    1    2  502    0 -0.16862755836E+02 -0.24429058432E+02  0.13713097216E+03  0.14038562945E+03  0.47000000000E+01 0. -1.
         -5    1    1    2    0  502 -0.88453478769E+00  0.48080574516E+02  0.11229183505E+01  0.48330890672E+02  0.47000000000E+01 0. -1.
        -11    1    1    2    0    0  0.47383439492E+02  0.24623509365E+00  0.36579929704E+02  0.59861024272E+02  0.00000000000E+00 0. -1.
         11    1    1    2    0    0 -0.29636148868E+02 -0.23897751178E+02 -0.89533969014E+01  0.39109680990E+02  0.00000000000E+00 0.  1.
<mgrwt>
<rscale>  0 0.11913167E+03</rscale>
<asrwt>0</asrwt>
<pdfrwt beam="2">  1        4 0.93697541E-02 0.12845150E+03</pdfrwt>
<pdfrwt beam="1">  1       -4 0.34889819E-01 0.12845150E+03</pdfrwt>
<totfact> 0.10987171E+03</totfact>
</mgrwt>
</event>
<event>
 6    1  0.7457796E-006  0.1336900E+03  0.7546771E-02  0.1227918E+00
          1   -1    0    0  501    0  0.00000000000E+00  0.00000000000E+00  0.22450614364E+03  0.22450614364E+03  0.00000000000E+00 0. -1.
         -1   -1    0    0    0  501 -0.00000000000E+00 -0.00000000000E+00 -0.70769718025E+02  0.70769718025E+02  0.00000000000E+00 0.  1.
          5    1    1    2  502    0  0.27449691883E+02 -0.26526229722E+02  0.79647635603E+02  0.88447511581E+02  0.47000000000E+01 0. -1.
         -5    1    1    2    0  502  0.44709626365E+02  0.49989936338E+02  0.12001355430E+00  0.67231308391E+02  0.47000000000E+01 0.  1.
        -11    1    1    2    0    0 -0.12062361571E+02  0.22124503422E+02 -0.96489903302E+01  0.26983276909E+02  0.00000000000E+00 0.  1.
         11    1    1    2    0    0 -0.60096956676E+02 -0.45588210037E+02  0.83617766784E+02  0.11261376478E+03  0.00000000000E+00 0. -1.
<mgrwt>
<rscale>  0 0.12968867E+03</rscale>
<asrwt>0</asrwt>
<pdfrwt beam="1">  1        1 0.34539406E-01 0.13369000E+03</pdfrwt>
<pdfrwt beam="2">  1       -1 0.10887649E-01 0.13369000E+03</pdfrwt>
<totfact> 0.64259350E+03</totfact>
</mgrwt>
</event>
<event>
 6    1  0.7457796E-006  0.1400665E+03  0.7546771E-02  0.1224559E+00
         -1   -1    0    0    0  501 -0.00000000000E+00  0.00000000000E+00  0.39864332381E+02  0.39864332381E+02  0.00000000000E+00 0.  1.
          1   -1    0    0  501    0  0.00000000000E+00 -0.00000000000E+00 -0.39496510155E+03  0.39496510155E+03  0.00000000000E+00 0. -1.
          5    1    1    2  502    0 -0.36340322816E+01 -0.17801563703E+02 -0.15312414789E+03  0.15426988211E+03  0.47000000000E+01 0. -1.
         -5    1    1    2    0  502 -0.51771796177E+02  0.48162091865E+02 -0.31702030386E+02  0.77633850239E+02  0.47000000000E+01 0. -1.
        -11    1    1    2    0    0 -0.23406146491E+02 -0.11518074420E+02 -0.22760641142E+02  0.34620232771E+02  0.00000000000E+00 0.  1.
         11    1    1    2    0    0  0.78811974950E+02 -0.18842453743E+02 -0.14751394975E+03  0.16830546881E+03  0.00000000000E+00 0. -1.
<mgrwt>
<rscale>  0 0.13197167E+03</rscale>
<asrwt>0</asrwt>
<pdfrwt beam="2">  1        1 0.60763859E-01 0.14006650E+03</pdfrwt>
<pdfrwt beam="1">  1       -1 0.61329745E-02 0.14006650E+03</pdfrwt>
<totfact> 0.76076238E+03</totfact>
</mgrwt>
</event>
<event>
 6    1  0.7457796E-006  0.1447248E+03  0.7546771E-02  0.1216789E+00
          1   -1    0    0  501    0  0.00000000000E+00  0.00000000000E+00  0.36933848941E+03  0.36933848941E+03  0.00000000000E+00 0. -1.
         -1   -1    0    0    0  501 -0.00000000000E+00 -0.00000000000E+00 -0.49729328433E+02  0.49729328433E+02  0.00000000000E+00 0.  1.
          5    1    1    2  502    0 -0.24797783748E+02 -0.11832380085E+02 -0.46385602053E+01  0.28258477278E+02  0.47000000000E+01 0.  1.
         -5    1    1    2    0  502  0.97590452584E+02  0.17010614403E+02  0.12788852424E+03  0.16183578736E+03  0.47000000000E+01 0.  1.
        -11    1    1    2    0    0 -0.87660766607E+02 -0.18992593522E+02  0.18528513240E+03  0.20585361037E+03  0.00000000000E+00 0. -1.
         11    1    1    2    0    0  0.14868097771E+02  0.13814359205E+02  0.11074064540E+02  0.23119942841E+02  0.00000000000E+00 0.  1.
<mgrwt>
<rscale>  0 0.13745941E+03</rscale>
<asrwt>0</asrwt>
<pdfrwt beam="1">  1        1 0.56821304E-01 0.14472483E+03</pdfrwt>
<pdfrwt beam="2">  1       -1 0.76506662E-02 0.14472483E+03</pdfrwt>
<totfact> 0.59527471E+03</totfact>
</mgrwt>
</event>
<event>
 6    1  0.7457796E-006  0.2933998E+03  0.7546771E-02  0.1091045E+00
         -2   -1    0    0    0  501 -0.00000000000E+00  0.00000000000E+00  0.17085230622E+03  0.17085230622E+03  0.00000000000E+00 0.  1.
          2   -1    0    0  501    0  0.00000000000E+00 -0.00000000000E+00 -0.65221728287E+03  0.65221728287E+03  0.00000000000E+00 0. -1.
          5    1    1    2  502    0  0.14484015628E+03 -0.11331545258E+03 -0.27024074633E+02  0.18593400247E+03  0.47000000000E+01 0. -1.
         -5    1    1    2    0  502  0.10293504280E+03  0.35514249609E+02 -0.34659037030E+01  0.10904580436E+03  0.47000000000E+01 0.  1.
        -11    1    1    2    0    0 -0.16075377880E+03  0.63108595674E+02 -0.37028270206E+03  0.40857527054E+03  0.00000000000E+00 0. -1.
         11    1    1    2    0    0 -0.87021420276E+02  0.14692607296E+02 -0.80592296254E+02  0.11951451172E+03  0.00000000000E+00 0.  1.
<mgrwt>
<rscale>  0 0.28867110E+03</rscale>
<asrwt>0</asrwt>
<pdfrwt beam="2">  1        2 0.10034112E+00 0.29339981E+03</pdfrwt>
<pdfrwt beam="1">  1       -2 0.26284970E-01 0.29339981E+03</pdfrwt>
<totfact> 0.59618785E+02</totfact>
</mgrwt>
</event>
<event>
 6    1  0.7457796E-006  0.1626387E+03  0.7546771E-02  0.1193094E+00
         -4   -1    0    0    0  501 -0.00000000000E+00  0.00000000000E+00  0.29972121701E+03  0.29972121701E+03  0.00000000000E+00 0.  1.
          4   -1    0    0  501    0  0.00000000000E+00 -0.00000000000E+00 -0.11317291837E+03  0.11317291837E+03  0.00000000000E+00 0. -1.
          5    1    1    2  502    0  0.38829814543E+02  0.28356349809E+02  0.54235816621E+02  0.72632299127E+02  0.47000000000E+01 0.  1.
         -5    1    1    2    0  502  0.24485806008E+02 -0.11093943399E+03  0.16290513852E+03  0.19866375328E+03  0.47000000000E+01 0.  1.
        -11    1    1    2    0    0 -0.42994451046E+02 -0.72936605696E+01  0.25256248523E+01  0.43681793532E+02  0.00000000000E+00 0.  1.
         11    1    1    2    0    0 -0.20321169505E+02  0.89876744755E+02 -0.33118281362E+02  0.97916289443E+02  0.00000000000E+00 0. -1.
<mgrwt>
<rscale>  0 0.15616626E+03</rscale>
<asrwt>0</asrwt>
<pdfrwt beam="2">  1        4 0.17411218E-01 0.16263872E+03</pdfrwt>
<pdfrwt beam="1">  1       -4 0.46110956E-01 0.16263872E+03</pdfrwt>
<totfact> 0.22791434E+02</totfact>
</mgrwt>
</event>
<event>
 6    1  0.7457796E-006  0.1278437E+03  0.7546771E-02  0.1247761E+00
         -2   -1    0    0    0  501 -0.00000000000E+00  0.00000000000E+00  0.57000566815E+02  0.57000566815E+02  0.00000000000E+00 0.  1.
          2   -1    0    0  501    0  0.00000000000E+00 -0.00000000000E+00 -0.20889870878E+03  0.20889870878E+03  0.00000000000E+00 0. -1.
          5    1    1    2  502    0  0.52565395061E+02 -0.54712417207E+00  0.77888906769E+01  0.53349572826E+02  0.47000000000E+01 0.  1.
         -5    1    1    2    0  502 -0.27925842427E+02 -0.10191208395E+02 -0.99594340963E+02  0.10404247284E+03  0.47000000000E+01 0.  1.
        -11    1    1    2    0    0 -0.47518014299E+02 -0.39403720171E+00 -0.49487816465E+01  0.47776640610E+02  0.00000000000E+00 0.  1.
         11    1    1    2    0    0  0.22878461665E+02  0.11132369769E+02 -0.55143910032E+02  0.60730589314E+02  0.00000000000E+00 0. -1.
<mgrwt>
<rscale>  0 0.11721648E+03</rscale>
<asrwt>0</asrwt>
<pdfrwt beam="2">  1        2 0.32138263E-01 0.12784371E+03</pdfrwt>
<pdfrwt beam="1">  1       -2 0.87693180E-02 0.12784371E+03</pdfrwt>
<totfact> 0.12422565E+04</totfact>
</mgrwt>
</event>
<event>
 6    1  0.7457796E-006  0.1267027E+03  0.7546771E-02  0.1247443E+00
          1   -1    0    0  501    0  0.00000000000E+00  0.00000000000E+00  0.17004537739E+03  0.17004537739E+03  0.00000000000E+00 0. -1.
         -1   -1    0    0    0  501 -0.00000000000E+00 -0.00000000000E+00 -0.72806273816E+02  0.72806273816E+02  0.00000000000E+00 0.  1.
          5    1    1    2  502    0  0.48539694588E+01 -0.40548172101E+02  0.63908833536E+02  0.75987790363E+02  0.47000000000E+01 0. -1.
         -5    1    1    2    0  502 -0.25425831985E+02  0.42893506029E+02 -0.25777401274E+02  0.56328413860E+02  0.47000000000E+01 0. -1.
        -11    1    1    2    0    0 -0.14318441648E+02  0.27275881458E+02  0.56911842235E+02  0.64714366775E+02  0.00000000000E+00 0. -1.
         11    1    1    2    0    0  0.34890304174E+02 -0.29621215386E+02  0.21958290796E+01  0.45821080210E+02  0.00000000000E+00 0.  1.
<mgrwt>
<rscale>  0 0.11740352E+03</rscale>
<asrwt>0</asrwt>
<pdfrwt beam="1">  1        1 0.26160827E-01 0.12670269E+03</pdfrwt>
<pdfrwt beam="2">  1       -1 0.11200965E-01 0.12670269E+03</pdfrwt>
<totfact> 0.86555169E+03</totfact>
</mgrwt>
</event>
<event>
 6    1  0.7457796E-006  0.1522040E+03  0.7546771E-02  0.1207404E+00
          3   -1    0    0  501    0  0.00000000000E+00  0.00000000000E+00  0.35071331238E+03  0.35071331238E+03  0.00000000000E+00 0. -1.
         -3   -1    0    0    0  501 -0.00000000000E+00 -0.00000000000E+00 -0.55381783782E+02  0.55381783782E+02  0.00000000000E+00 0.  1.
          5    1    1    2  502    0  0.45401442502E+02 -0.81346287586E+01  0.37168721152E+02  0.59422781813E+02  0.47000000000E+01 0.  1.
         -5    1    1    2    0  502 -0.38556029416E+02  0.94697878829E+02  0.15449320288E+03  0.18532267911E+03  0.47000000000E+01 0.  1.
        -11    1    1    2    0    0  0.32162797428E+02 -0.71212660335E+02  0.48154856078E+02  0.91785503726E+02  0.00000000000E+00 0.  1.
         11    1    1    2    0    0 -0.39008210513E+02 -0.15350589736E+02  0.55514748494E+02  0.69564131512E+02  0.00000000000E+00 0. -1.
<mgrwt>
<rscale>  0 0.14449650E+03</rscale>
<asrwt>0</asrwt>
<pdfrwt beam="1">  1        3 0.53955893E-01 0.15220397E+03</pdfrwt>
<pdfrwt beam="2">  1       -3 0.85202746E-02 0.15220397E+03</pdfrwt>
<totfact> 0.77491386E+02</totfact>
</mgrwt>
</event>
<event>
 6    1  0.7457796E-006  0.1535244E+03  0.7546771E-02  0.1204636E+00
         -2   -1    0    0    0  501 -0.00000000000E+00  0.00000000000E+00  0.82435544345E+02  0.82435544345E+02  0.00000000000E+00 0.  1.
          2   -1    0    0  501    0  0.00000000000E+00 -0.00000000000E+00 -0.36026929978E+03  0.36026929978E+03  0.00000000000E+00 0. -1.
          5    1    1    2  502    0 -0.13635965544E+02 -0.33897592560E+02 -0.13423618637E+02  0.39208033297E+02  0.47000000000E+01 0.  1.
         -5    1    1    2    0  502 -0.30906205733E+02  0.11110384936E+03 -0.64624023367E+01  0.11559892534E+03  0.47000000000E+01 0.  1.
        -11    1    1    2    0    0  0.70571507996E+02 -0.50920162177E+02 -0.21015716454E+03  0.22746260015E+03  0.00000000000E+00 0. -1.
         11    1    1    2    0    0 -0.26029336719E+02 -0.26286094628E+02 -0.47790569916E+02  0.60435285336E+02  0.00000000000E+00 0.  1.
<mgrwt>
<rscale>  0 0.14666168E+03</rscale>
<asrwt>0</asrwt>
<pdfrwt beam="2">  1        2 0.55426045E-01 0.15352440E+03</pdfrwt>
<pdfrwt beam="1">  1       -2 0.12682392E-01 0.15352440E+03</pdfrwt>
<totfact> 0.39271316E+03</totfact>
</mgrwt>
</event>
<event>
 6    1  0.7457796E-006  0.1256998E+03  0.7546771E-02  0.1248183E+00
          1   -1    0    0  501    0  0.00000000000E+00  0.00000000000E+00  0.78461628767E+02  0.78461628767E+02  0.00000000000E+00 0. -1.
         -1   -1    0    0    0  501 -0.00000000000E+00 -0.00000000000E+00 -0.15931436229E+03  0.15931436229E+03  0.00000000000E+00 0.  1.
          5    1    1    2  502    0 -0.83048946755E+01  0.15693842132E+01  0.36928656502E+02  0.38173942860E+02  0.47000000000E+01 0. -1.
         -5    1    1    2    0  502 -0.44082898345E+01  0.21159858192E+01 -0.10415133859E+03  0.10437193946E+03  0.47000000000E+01 0. -1.
        -11    1    1    2    0    0  0.24868248196E+02  0.27987625150E+02 -0.38087623045E+02  0.53407901654E+02  0.00000000000E+00 0.  1.
         11    1    1    2    0    0 -0.12155063686E+02 -0.31672995182E+02  0.24457571608E+02  0.41822207091E+02  0.00000000000E+00 0. -1.
<mgrwt>
<rscale>  0 0.11696902E+03</rscale>
<asrwt>0</asrwt>
<pdfrwt beam="1">  1        1 0.12071020E-01 0.12569980E+03</pdfrwt>
<pdfrwt beam="2">  1       -1 0.24509901E-01 0.12569980E+03</pdfrwt>
<totfact> 0.67510838E+03</totfact>
</mgrwt>
</event>
<event>
 6    1  0.7457796E-006  0.1411663E+03  0.7546771E-02  0.1222656E+00
         -2   -1    0    0    0  501 -0.00000000000E+00  0.00000000000E+00  0.70358692965E+02  0.70358692965E+02  0.00000000000E+00 0.  1.
          2   -1    0    0  501    0  0.00000000000E+00 -0.00000000000E+00 -0.23194997150E+03  0.23194997150E+03  0.00000000000E+00 0. -1.
          5    1    1    2  502    0 -0.38219745422E+02  0.62072221013E+01 -0.13757449398E+02  0.41359835110E+02  0.47000000000E+01 0. -1.
         -5    1    1    2    0  502  0.10054339053E+03  0.14333392255E+02 -0.56754799553E+02  0.11643717957E+03  0.47000000000E+01 0. -1.
        -11    1    1    2    0    0  0.13027781392E+01 -0.14246737635E+02  0.14952950766E+02  0.20694383313E+02  0.00000000000E+00 0.  1.
         11    1    1    2    0    0 -0.63626423251E+02 -0.62938767219E+01 -0.10603198035E+03  0.12381726648E+03  0.00000000000E+00 0. -1.
<mgrwt>
<rscale>  0 0.13328885E+03</rscale>
<asrwt>0</asrwt>
<pdfrwt beam="2">  1        2 0.35684611E-01 0.14116629E+03</pdfrwt>
<pdfrwt beam="1">  1       -2 0.10824414E-01 0.14116629E+03</pdfrwt>
<totfact> 0.80427945E+03</totfact>
</mgrwt>
</event>
<event>
 6    1  0.7457796E-006  0.2056801E+03  0.7546771E-02  0.1148141E+00
         -2   -1    0    0    0  501 -0.00000000000E+00  0.00000000000E+00  0.61632994264E+02  0.61632994264E+02  0.00000000000E+00 0.  1.
          2   -1    0    0  501    0  0.00000000000E+00 -0.00000000000E+00 -0.80566023111E+03  0.80566023111E+03  0.00000000000E+00 0. -1.
          5    1    1    2  502    0  0.52680071723E+02 -0.50769440701E+02 -0.14283985871E+02  0.74691688414E+02  0.47000000000E+01 0.  1.
         -5    1    1    2    0  502  0.10664894877E+03  0.14735944736E+02 -0.17107534919E+03  0.20218805959E+03  0.47000000000E+01 0.  1.
        -11    1    1    2    0    0 -0.10647765060E+03  0.45362562713E+02 -0.48878300166E+03  0.50229879045E+03  0.00000000000E+00 0. -1.
         11    1    1    2    0    0 -0.52851369890E+02 -0.93290667476E+01 -0.69884900131E+02  0.88114686925E+02  0.00000000000E+00 0.  1.
<mgrwt>
<rscale>  0 0.20190566E+03</rscale>
<asrwt>0</asrwt>
<pdfrwt beam="2">  1        2 0.12394773E+00 0.20568012E+03</pdfrwt>
<pdfrwt beam="1">  1       -2 0.94819992E-02 0.20568012E+03</pdfrwt>
<totfact> 0.25231596E+03</totfact>
</mgrwt>
</event>
<event>
 6    1  0.7457796E-006  0.1472251E+03  0.7546771E-02  0.1213680E+00
         -3   -1    0    0    0  501 -0.00000000000E+00  0.00000000000E+00  0.12449490310E+03  0.12449490310E+03  0.00000000000E+00 0.  1.
          3   -1    0    0  501    0  0.00000000000E+00 -0.00000000000E+00 -0.14346399216E+03  0.14346399216E+03  0.00000000000E+00 0. -1.
          5    1    1    2  502    0 -0.68978404654E+02  0.45919964837E+02  0.25586444158E+02  0.86852861806E+02  0.47000000000E+01 0.  1.
         -5    1    1    2    0  502 -0.84856643415E+01 -0.52957581000E+02 -0.27339863168E+02  0.60382696220E+02  0.47000000000E+01 0.  1.
        -11    1    1    2    0    0  0.66250041188E+02  0.12861920194E+02 -0.51040906871E+02  0.84614839849E+02  0.00000000000E+00 0. -1.
         11    1    1    2    0    0  0.11214027807E+02 -0.58243040314E+01  0.33825236826E+02  0.36108497386E+02  0.00000000000E+00 0.  1.
<mgrwt>
<rscale>  0 0.13973940E+03</rscale>
<asrwt>0</asrwt>
<pdfrwt beam="2">  1        3 0.22071383E-01 0.14722512E+03</pdfrwt>
<pdfrwt beam="1">  1       -3 0.19153062E-01 0.14722512E+03</pdfrwt>
<totfact> 0.10644381E+03</totfact>
</mgrwt>
</event>
<event>
 6    1  0.7457796E-006  0.1429660E+03  0.7546771E-02  0.1220020E+00
         -2   -1    0    0    0  501 -0.00000000000E+00  0.00000000000E+00  0.30039915089E+03  0.30039915089E+03  0.00000000000E+00 0.  1.
          2   -1    0    0  501    0  0.00000000000E+00 -0.00000000000E+00 -0.58418041865E+02  0.58418041865E+02  0.00000000000E+00 0. -1.
          5    1    1    2  502    0 -0.38216654068E+02 -0.91143116899E+01  0.10832698103E+03  0.11532739546E+03  0.47000000000E+01 0.  1.
         -5    1    1    2    0  502  0.72084721917E+02 -0.51450094022E+02  0.68478997042E+02  0.11204812513E+03  0.47000000000E+01 0.  1.
        -11    1    1    2    0    0 -0.60881717869E+02  0.26422527557E+02  0.21474857054E+02  0.69756024964E+02  0.00000000000E+00 0. -1.
         11    1    1    2    0    0  0.27013650021E+02  0.34141878155E+02  0.43700273895E+02  0.61685647195E+02  0.00000000000E+00 0.  1.
<mgrwt>
<rscale>  0 0.13514156E+03</rscale>
<asrwt>0</asrwt>
<pdfrwt beam="2">  1        2 0.89873912E-02 0.14296599E+03</pdfrwt>
<pdfrwt beam="1">  1       -2 0.46215253E-01 0.14296599E+03</pdfrwt>
<totfact> 0.31671992E+03</totfact>
</mgrwt>
</event>
<event>
 6    1  0.7457796E-006  0.1269883E+03  0.7546771E-02  0.1245918E+00
         -3   -1    0    0    0  501 -0.00000000000E+00  0.00000000000E+00  0.48121036832E+02  0.48121036832E+02  0.00000000000E+00 0.  1.
          3   -1    0    0  501    0  0.00000000000E+00 -0.00000000000E+00 -0.30326319060E+03  0.30326319060E+03  0.00000000000E+00 0. -1.
          5    1    1    2  502    0  0.10481882755E+02  0.24019262301E+01  0.34370588239E+02  0.36318954440E+02  0.47000000000E+01 0. -1.
         -5    1    1    2    0  502 -0.28651566193E+01  0.18622414870E+02 -0.10954338602E+03  0.11125127810E+03  0.47000000000E+01 0. -1.
        -11    1    1    2    0    0 -0.32909174052E+01 -0.57053928701E+02 -0.87827036722E+02  0.10478343999E+03  0.00000000000E+00 0.  1.
         11    1    1    2    0    0 -0.43258087305E+01  0.36029587601E+02 -0.92142319262E+02  0.99030554895E+02  0.00000000000E+00 0. -1.
<mgrwt>
<rscale>  0 0.11830616E+03</rscale>
<asrwt>0</asrwt>
<pdfrwt beam="2">  1        3 0.46655876E-01 0.12698828E+03</pdfrwt>
<pdfrwt beam="1">  1       -3 0.74032364E-02 0.12698828E+03</pdfrwt>
<totfact> 0.12655067E+03</totfact>
</mgrwt>
</event>
<event>
 6    1  0.7457796E-006  0.2698060E+03  0.7546771E-02  0.1103391E+00
         -2   -1    0    0    0  501 -0.00000000000E+00  0.00000000000E+00  0.18995921508E+03  0.18995921508E+03  0.00000000000E+00 0.  1.
          2   -1    0    0  501    0  0.00000000000E+00 -0.00000000000E+00 -0.36443277743E+03  0.36443277743E+03  0.00000000000E+00 0. -1.
          5    1    1    2  502    0 -0.99728193095E+00 -0.10902592764E+03 -0.37144591111E+02  0.11527991203E+03  0.47000000000E+01 0. -1.
         -5    1    1    2    0  502  0.13237460042E+03 -0.90747439021E+02 -0.44775693392E+02  0.16668858762E+03  0.47000000000E+01 0. -1.
        -11    1    1    2    0    0 -0.46106224051E+02  0.23184246779E+02  0.77087131749E+01  0.52179665136E+02  0.00000000000E+00 0.  1.
         11    1    1    2    0    0 -0.85271094439E+02  0.17658911988E+03 -0.10026199102E+03  0.22024382772E+03  0.00000000000E+00 0. -1.
<mgrwt>
<rscale>  0 0.26634332E+03</rscale>
<asrwt>0</asrwt>
<pdfrwt beam="2">  1        2 0.56066581E-01 0.26980604E+03</pdfrwt>
<pdfrwt beam="1">  1       -2 0.29224495E-01 0.26980604E+03</pdfrwt>
<totfact> 0.95013421E+02</totfact>
</mgrwt>
</event>
<event>
 6    1  0.7457796E-006  0.3657803E+03  0.7546771E-02  0.1056318E+00
          1   -1    0    0  501    0  0.00000000000E+00  0.00000000000E+00  0.23455866953E+03  0.23455866953E+03  0.00000000000E+00 0. -1.
         -1   -1    0    0    0  501 -0.00000000000E+00 -0.00000000000E+00 -0.14260311937E+03  0.14260311937E+03  0.00000000000E+00 0.  1.
          5    1    1    2  502    0  0.65103808605E+01  0.11980823009E+01  0.40621711738E+02  0.41425039827E+02  0.47000000000E+01 0. -1.
         -5    1    1    2    0  502 -0.43221379812E+02  0.13121032222E+03 -0.41536887868E+02  0.14433169917E+03  0.47000000000E+01 0. -1.
        -11    1    1    2    0    0  0.30454967592E+02 -0.48334743092E+02 -0.10425009551E+02  0.58072655053E+02  0.00000000000E+00 0.  1.
         11    1    1    2    0    0  0.62560313591E+01 -0.84073661432E+02  0.10329573584E+03  0.13333239485E+03  0.00000000000E+00 0. -1.
<mgrwt>
<rscale>  0 0.36578025E+03</rscale>
<asrwt>0</asrwt>
<pdfrwt beam="1">  1        1 0.36085949E-01 0.36578025E+03</pdfrwt>
<pdfrwt beam="2">  1       -1 0.21938941E-01 0.36578025E+03</pdfrwt>
<totfact> 0.20814828E+03</totfact>
</mgrwt>
</event>
<event>
 6    1  0.7457796E-006  0.1462744E+03  0.7546771E-02  0.1213894E+00
          2   -1    0    0  501    0  0.00000000000E+00  0.00000000000E+00  0.20288557743E+03  0.20288557743E+03  0.00000000000E+00 0. -1.
         -2   -1    0    0    0  501 -0.00000000000E+00 -0.00000000000E+00 -0.94611263654E+02  0.94611263654E+02  0.00000000000E+00 0.  1.
          5    1    1    2  502    0  0.57508048966E+02  0.11718629424E+02  0.44713920055E+02  0.73931905278E+02  0.47000000000E+01 0. -1.
         -5    1    1    2    0  502 -0.34022496180E+02  0.60531407454E+02 -0.24392474142E+02  0.73747300489E+02  0.47000000000E+01 0. -1.
        -11    1    1    2    0    0  0.61362525559E+01 -0.63455337237E+02  0.81857588030E+01  0.64274723387E+02  0.00000000000E+00 0.  1.
         11    1    1    2    0    0 -0.29621805342E+02 -0.87946996401E+01  0.79767109058E+02  0.85542911927E+02  0.00000000000E+00 0. -1.
<mgrwt>
<rscale>  0 0.13958100E+03</rscale>
<asrwt>0</asrwt>
<pdfrwt beam="1">  1        2 0.31213166E-01 0.14627435E+03</pdfrwt>
<pdfrwt beam="2">  1       -2 0.14555579E-01 0.14627435E+03</pdfrwt>
<totfact> 0.57861260E+03</totfact>
</mgrwt>
</event>
<event>
 6    1  0.7457796E-006  0.1675571E+03  0.7546771E-02  0.1187475E+00
         -2   -1    0    0    0  501 -0.00000000000E+00  0.00000000000E+00  0.14341757998E+03  0.14341757998E+03  0.00000000000E+00 0.  1.
          2   -1    0    0  501    0  0.00000000000E+00 -0.00000000000E+00 -0.23144481146E+03  0.23144481146E+03  0.00000000000E+00 0. -1.
          5    1    1    2  502    0  0.17449794819E+02  0.21380948642E+02  0.46794688808E+01  0.28383582104E+02  0.47000000000E+01 0.  1.
         -5    1    1    2    0  502 -0.88632797031E+02 -0.10730655658E+03  0.46496599921E+02  0.14681448702E+03  0.47000000000E+01 0.  1.
        -11    1    1    2    0    0 -0.11434374299E+02  0.33447009719E+01 -0.53431402431E+02  0.54743462678E+02  0.00000000000E+00 0. -1.
         11    1    1    2    0    0  0.82617376511E+02  0.82580906969E+02 -0.85771897851E+02  0.14492085964E+03  0.00000000000E+00 0.  1.
<mgrwt>
<rscale>  0 0.16108692E+03</rscale>
<asrwt>0</asrwt>
<pdfrwt beam="2">  1        2 0.35606894E-01 0.16755708E+03</pdfrwt>
<pdfrwt beam="1">  1       -2 0.22064243E-01 0.16755708E+03</pdfrwt>
<totfact> 0.25182952E+03</totfact>
</mgrwt>
</event>
<event>
 6    1  0.7457796E-006  0.1818396E+03  0.7546771E-02  0.1171552E+00
         -1   -1    0    0    0  501 -0.00000000000E+00  0.00000000000E+00  0.81525810335E+02  0.81525810335E+02  0.00000000000E+00 0.  1.
          1   -1    0    0  501    0  0.00000000000E+00 -0.00000000000E+00 -0.37062896992E+03  0.37062896992E+03  0.00000000000E+00 0. -1.
          5    1    1    2  502    0 -0.38812131315E+02 -0.32789629031E+02 -0.83264470125E+02  0.97655533865E+02  0.47000000000E+01 0. -1.
         -5    1    1    2    0  502  0.54731922409E+02 -0.98303774513E+02 -0.29869110788E+02  0.11650523247E+03  0.47000000000E+01 0. -1.
        -11    1    1    2    0    0  0.12376602531E+02  0.12683845656E+03 -0.16209261026E+03  0.20619211589E+03  0.00000000000E+00 0. -1.
         11    1    1    2    0    0 -0.28296393626E+02  0.42549469830E+01 -0.13876968412E+02  0.31801898031E+02  0.00000000000E+00 0.  1.
<mgrwt>
<rscale>  0 0.17618012E+03</rscale>
<asrwt>0</asrwt>
<pdfrwt beam="2">  1        1 0.57019842E-01 0.18183956E+03</pdfrwt>
<pdfrwt beam="1">  1       -1 0.12542432E-01 0.18183956E+03</pdfrwt>
<totfact> 0.28091435E+03</totfact>
</mgrwt>
</event>
<event>
 6    1  0.7457796E-006  0.2766225E+03  0.7546771E-02  0.1133309E+00
         -2   -1    0    0    0  501 -0.00000000000E+00  0.00000000000E+00  0.76500500229E+03  0.76500500229E+03  0.00000000000E+00 0.  1.
          2   -1    0    0  501    0  0.00000000000E+00 -0.00000000000E+00 -0.49912662248E+02  0.49912662248E+02  0.00000000000E+00 0. -1.
          5    1    1    2  502    0 -0.55967840758E+02  0.93965136863E+02  0.14941931094E+03  0.18522976712E+03  0.47000000000E+01 0. -1.
         -5    1    1    2    0  502  0.27448760121E+02 -0.15557543176E+03  0.39472415436E+03  0.42518983694E+03  0.47000000000E+01 0.  1.
        -11    1    1    2    0    0 -0.69533004729E+01  0.74021715630E+02  0.12049421936E+03  0.14158537944E+03  0.00000000000E+00 0.  1.
         11    1    1    2    0    0  0.35472381109E+02 -0.12411420731E+02  0.50454655386E+02  0.62912681045E+02  0.00000000000E+00 0. -1.
<mgrwt>
<rscale>  0 0.22077220E+03</rscale>
<asrwt>0</asrwt>
<pdfrwt beam="2">  1        2 0.76788716E-02 0.27662245E+03</pdfrwt>
<pdfrwt beam="1">  1       -2 0.11769307E+00 0.27662245E+03</pdfrwt>
<totfact> 0.52184005E+02</totfact>
</mgrwt>
</event>
<event>
 6    1  0.7457796E-006  0.1316986E+03  0.7546771E-02  0.1237616E+00
         -2   -1    0    0    0  501 -0.00000000000E+00  0.00000000000E+00  0.38702986951E+02  0.38702986951E+02  0.00000000000E+00 0.  1.
          2   -1    0    0  501    0  0.00000000000E+00 -0.00000000000E+00 -0.36763635775E+03  0.36763635775E+03  0.00000000000E+00 0. -1.
          5    1    1    2  502    0  0.25996180497E+02 -0.61590494606E+00 -0.12964474375E+03  0.13231035606E+03  0.47000000000E+01 0.  1.
         -5    1    1    2    0  502 -0.49999902428E+02 -0.33188991989E+02 -0.12525383172E+02  0.61485564612E+02  0.47000000000E+01 0.  1.
        -11    1    1    2    0    0  0.33733481097E+01  0.63398383073E+02 -0.98444343865E+02  0.11714104017E+03  0.00000000000E+00 0.  1.
         11    1    1    2    0    0  0.20630373821E+02 -0.29593486138E+02 -0.88318900008E+02  0.95402383851E+02  0.00000000000E+00 0. -1.
<mgrwt>
<rscale>  0 0.12338429E+03</rscale>
<asrwt>0</asrwt>
<pdfrwt beam="2">  1        2 0.56559440E-01 0.13169857E+03</pdfrwt>
<pdfrwt beam="1">  1       -2 0.59543057E-02 0.13169857E+03</pdfrwt>
<totfact> 0.12360955E+04</totfact>
</mgrwt>
</event>
<event>
 6    1  0.7457796E-006  0.1260074E+03  0.7546771E-02  0.1248895E+00
          1   -1    0    0  501    0  0.00000000000E+00  0.00000000000E+00  0.34871841828E+03  0.34871841828E+03  0.00000000000E+00 0. -1.
         -1   -1    0    0    0  501 -0.00000000000E+00 -0.00000000000E+00 -0.44742658293E+02  0.44742658293E+02  0.00000000000E+00 0.  1.
          5    1    1    2  502    0 -0.44030804456E+02  0.40495231182E+02  0.27115289855E+02  0.65847584872E+02  0.47000000000E+01 0. -1.
         -5    1    1    2    0  502  0.56941331633E+02 -0.31125577701E+02  0.47963144941E+02  0.80831120913E+02  0.47000000000E+01 0. -1.
        -11    1    1    2    0    0 -0.37590560246E+02  0.28384880534E+02  0.11392928025E+03  0.12328273424E+03  0.00000000000E+00 0.  1.
         11    1    1    2    0    0  0.24680033069E+02 -0.37754534015E+02  0.11496804494E+03  0.12349963655E+03  0.00000000000E+00 0. -1.
<mgrwt>
<rscale>  0 0.11655279E+03</rscale>
<asrwt>0</asrwt>
<pdfrwt beam="1">  1        1 0.53648986E-01 0.12600743E+03</pdfrwt>
<pdfrwt beam="2">  1       -1 0.68834861E-02 0.12600743E+03</pdfrwt>
<totfact> 0.74301102E+03</totfact>
</mgrwt>
</event>
<event>
 6    1  0.7457796E-006  0.1283118E+03  0.7546771E-02  0.1244775E+00
          1   -1    0    0  501    0  0.00000000000E+00  0.00000000000E+00  0.15846698587E+03  0.15846698587E+03  0.00000000000E+00 0. -1.
         -1   -1    0    0    0  501 -0.00000000000E+00 -0.00000000000E+00 -0.80837895525E+02  0.80837895525E+02  0.00000000000E+00 0.  1.
          5    1    1    2  502    0 -0.35564875468E+01 -0.71011648221E+02 -0.74356120745E+00  0.71259705795E+02  0.47000000000E+01 0. -1.
         -5    1    1    2    0  502  0.22047905895E+02  0.48705407766E+02  0.25496285074E+02  0.59417821002E+02  0.47000000000E+01 0. -1.
        -11    1    1    2    0    0  0.69863296421E+01 -0.79192782326E+01 -0.21749549526E+02  0.24177813676E+02  0.00000000000E+00 0.  1.
         11    1    1    2    0    0 -0.25477747990E+02  0.30225518687E+02  0.74625916004E+02  0.84449540922E+02  0.00000000000E+00 0. -1.
<mgrwt>
<rscale>  0 0.11898832E+03</rscale>
<asrwt>0</asrwt>
<pdfrwt beam="1">  1        1 0.24379536E-01 0.12831180E+03</pdfrwt>
<pdfrwt beam="2">  1       -1 0.12436599E-01 0.12831180E+03</pdfrwt>
<totfact> 0.80563060E+03</totfact>
</mgrwt>
</event>
<event>
 6    1  0.7457796E-006  0.1345076E+03  0.7546771E-02  0.1235521E+00
         -2   -1    0    0    0  501 -0.00000000000E+00  0.00000000000E+00  0.21664750120E+03  0.21664750120E+03  0.00000000000E+00 0. -1.
          2   -1    0    0  501    0  0.00000000000E+00 -0.00000000000E+00 -0.66873778512E+02  0.66873778512E+02  0.00000000000E+00 0.  1.
          5    1    1    2  502    0 -0.45290067216E+02  0.70144542661E+02  0.99381553136E+02  0.12988545014E+03  0.47000000000E+01 0. -1.
         -5    1    1    2    0  502  0.22863762926E+01 -0.45269642154E+02  0.19274867896E+02  0.49479071836E+02  0.47000000000E+01 0. -1.
        -11    1    1    2    0    0 -0.12822903188E+02 -0.39243805072E+02  0.17989652925E+02  0.45034772066E+02  0.00000000000E+00 0.  1.
         11    1    1    2    0    0  0.55826594112E+02  0.14368904565E+02  0.13127648729E+02  0.59121985671E+02  0.00000000000E+00 0. -1.
<mgrwt>
<rscale>  0 0.12471151E+03</rscale>
<asrwt>0</asrwt>
<pdfrwt beam="2">  1        2 0.10288274E-01 0.13450757E+03</pdfrwt>
<pdfrwt beam="1">  1       -2 0.33330384E-01 0.13450757E+03</pdfrwt>
<totfact> 0.49487831E+03</totfact>
</mgrwt>
</event>
<event>
 6    1  0.7457796E-006  0.1570130E+03  0.7546771E-02  0.1200506E+00
         -2   -1    0    0    0  501 -0.00000000000E+00  0.00000000000E+00  0.15963373837E+03  0.15963373837E+03  0.00000000000E+00 0.  1.
          2   -1    0    0  501    0  0.00000000000E+00 -0.00000000000E+00 -0.18047611166E+03  0.18047611166E+03  0.00000000000E+00 0. -1.
          5    1    1    2  502    0 -0.14760206430E+02  0.15490715208E+02 -0.14708644793E+02  0.26386742564E+02  0.47000000000E+01 0.  1.
         -5    1    1    2    0  502  0.88747142526E+02 -0.75107608554E+02  0.93593805692E+02  0.14932882720E+03  0.47000000000E+01 0.  1.
        -11    1    1    2    0    0 -0.55618508175E+02  0.66282247139E+02 -0.11184065361E+03  0.14140398345E+03  0.00000000000E+00 0. -1.
         11    1    1    2    0    0 -0.18368427922E+02 -0.66653537924E+01  0.12113119422E+02  0.22990296815E+02  0.00000000000E+00 0.  1.
<mgrwt>
<rscale>  0 0.14997278E+03</rscale>
<asrwt>0</asrwt>
<pdfrwt beam="2">  1        2 0.27765556E-01 0.15701303E+03</pdfrwt>
<pdfrwt beam="1">  1       -2 0.24559037E-01 0.15701303E+03</pdfrwt>
<totfact> 0.27317788E+03</totfact>
</mgrwt>
</event>
<event>
 6    1  0.7457796E-006  0.1289496E+03  0.7546771E-02  0.1243539E+00
          3   -1    0    0  501    0  0.00000000000E+00  0.00000000000E+00  0.49652005653E+02  0.49652005653E+02  0.00000000000E+00 0. -1.
         -3   -1    0    0    0  501 -0.00000000000E+00 -0.00000000000E+00 -0.26233986666E+03  0.26233986666E+03  0.00000000000E+00 0.  1.
          5    1    1    2  502    0 -0.14116163212E+02 -0.10398666805E+02  0.20321632070E+02  0.27248065347E+02  0.47000000000E+01 0.  1.
         -5    1    1    2    0  502 -0.11733148848E+02 -0.77494622357E+01 -0.16862890735E+03  0.16927941204E+03  0.47000000000E+01 0.  1.
        -11    1    1    2    0    0 -0.23367406884E+02  0.90683162572E+01 -0.60239375231E+02  0.65246091013E+02  0.00000000000E+00 0.  1.
         11    1    1    2    0    0  0.49216718945E+02  0.90798127838E+01 -0.41412105002E+01  0.50218303917E+02  0.00000000000E+00 0. -1.
<mgrwt>
<rscale>  0 0.11973268E+03</rscale>
<asrwt>0</asrwt>
<pdfrwt beam="1">  1        3 0.76387701E-02 0.12894961E+03</pdfrwt>
<pdfrwt beam="2">  1       -3 0.40359980E-01 0.12894961E+03</pdfrwt>
<totfact> 0.15991054E+03</totfact>
</mgrwt>
</event>
<event>
 6    1  0.7457796E-006  0.1581018E+03  0.7546771E-02  0.1212334E+00
         -1   -1    0    0    0  501 -0.00000000000E+00  0.00000000000E+00  0.26322196438E+02  0.26322196438E+02  0.00000000000E+00 0.  1.
          1   -1    0    0  501    0  0.00000000000E+00 -0.00000000000E+00 -0.63363406161E+03  0.63363406161E+03  0.00000000000E+00 0. -1.
          5    1    1    2  502    0 -0.85171269482E+02  0.21039092059E+02 -0.24151781533E+03  0.25700142736E+03  0.47000000000E+01 0. -1.
         -5    1    1    2    0  502  0.64132293982E+02  0.13178623418E+02 -0.10418915736E+03  0.12314259116E+03  0.47000000000E+01 0.  1.
        -11    1    1    2    0    0 -0.10696035178E+02 -0.56914634292E+02 -0.12534022915E+03  0.13807191535E+03  0.00000000000E+00 0. -1.
         11    1    1    2    0    0  0.31735010679E+02  0.22696918815E+02 -0.13626466333E+03  0.14174032418E+03  0.00000000000E+00 0.  1.
<mgrwt>
<rscale>  0 0.14074236E+03</rscale>
<asrwt>0</asrwt>
<pdfrwt beam="2">  1        1 0.97482169E-01 0.15810175E+03</pdfrwt>
<pdfrwt beam="1">  1       -1 0.40495684E-02 0.15810175E+03</pdfrwt>
<totfact> 0.76206120E+03</totfact>
</mgrwt>
</event>
<event>
 6    1  0.7457796E-006  0.1402526E+03  0.7546771E-02  0.1224104E+00
          2   -1    0    0  501    0  0.00000000000E+00  0.00000000000E+00  0.53498687854E+03  0.53498687854E+03  0.00000000000E+00 0. -1.
         -2   -1    0    0    0  501 -0.00000000000E+00 -0.00000000000E+00 -0.32595899468E+02  0.32595899468E+02  0.00000000000E+00 0.  1.
          5    1    1    2  502    0 -0.12125560309E+02 -0.86956112529E+02  0.14154406339E+03  0.16662894887E+03  0.47000000000E+01 0. -1.
         -5    1    1    2    0  502 -0.30206929986E+02  0.39529838500E+02  0.49185655930E+02  0.70116941607E+02  0.47000000000E+01 0. -1.
        -11    1    1    2    0    0  0.46929794771E+02  0.63916043473E+02  0.29954906955E+03  0.30986660246E+03  0.00000000000E+00 0. -1.
         11    1    1    2    0    0 -0.45973044752E+01 -0.16489769444E+02  0.12112190202E+02  0.20970285078E+02  0.00000000000E+00 0.  1.
<mgrwt>
<rscale>  0 0.13228508E+03</rscale>
<asrwt>0</asrwt>
<pdfrwt beam="1">  1        2 0.82305667E-01 0.14025260E+03</pdfrwt>
<pdfrwt beam="2">  1       -2 0.50147541E-02 0.14025260E+03</pdfrwt>
<totfact> 0.10720391E+04</totfact>
</mgrwt>
</event>
<event>
 6    1  0.7457796E-006  0.1150594E+03  0.7546771E-02  0.1265638E+00
         -3   -1    0    0    0  501 -0.00000000000E+00  0.00000000000E+00  0.53096810489E+02  0.53096810489E+02  0.00000000000E+00 0.  1.
          3   -1    0    0  501    0  0.00000000000E+00 -0.00000000000E+00 -0.32978201579E+03  0.32978201579E+03  0.00000000000E+00 0. -1.
          5    1    1    2  502    0  0.23898037095E+02 -0.26039328509E+02 -0.61354069465E+02  0.70961782996E+02  0.47000000000E+01 0. -1.
         -5    1    1    2    0  502 -0.31240391239E+02  0.42126635831E+01  0.34730035648E+02  0.47137818737E+02  0.47000000000E+01 0.  1.
        -11    1    1    2    0    0  0.24491877657E+02  0.45617614231E+02 -0.20152934000E+03  0.20807425040E+03  0.00000000000E+00 0. -1.
         11    1    1    2    0    0 -0.17149523513E+02 -0.23790949305E+02 -0.48531831485E+02  0.56704974146E+02  0.00000000000E+00 0.  1.
<mgrwt>
<rscale>  0 0.10730800E+03</rscale>
<asrwt>0</asrwt>
<pdfrwt beam="2">  1        3 0.50735696E-01 0.11505945E+03</pdfrwt>
<pdfrwt beam="1">  1       -3 0.81687399E-02 0.11505945E+03</pdfrwt>
<totfact> 0.89908814E+02</totfact>
</mgrwt>
</event>
<event>
 6    1  0.7457796E-006  0.1921362E+03  0.7546771E-02  0.1160825E+00
          2   -1    0    0  501    0  0.00000000000E+00  0.00000000000E+00  0.32710621582E+03  0.32710621582E+03  0.00000000000E+00 0.  1.
         -2   -1    0    0    0  501 -0.00000000000E+00 -0.00000000000E+00 -0.10340741005E+03  0.10340741005E+03  0.00000000000E+00 0. -1.
          5    1    1    2  502    0 -0.10998087866E+03 -0.68494723009E+02  0.12014930733E+03  0.17676330728E+03  0.47000000000E+01 0.  1.
         -5    1    1    2    0  502 -0.34147605664E+02  0.45723686596E+02  0.18499251271E+02  0.60174968102E+02  0.47000000000E+01 0.  1.
        -11    1    1    2    0    0  0.77158851806E+01  0.11430001187E+02  0.50569391885E+02  0.52416058673E+02  0.00000000000E+00 0.  1.
         11    1    1    2    0    0  0.13641259914E+03  0.11341035226E+02  0.34480855285E+02  0.14115929181E+03  0.00000000000E+00 0. -1.
<mgrwt>
<rscale>  0 0.18740269E+03</rscale>
<asrwt>0</asrwt>
<pdfrwt beam="1">  1        2 0.50324033E-01 0.19213621E+03</pdfrwt>
<pdfrwt beam="2">  1       -2 0.15908832E-01 0.19213621E+03</pdfrwt>
<totfact> 0.30362418E+03</totfact>
</mgrwt>
</event>
<event>
 6    1  0.7457796E-006  0.1322818E+03  0.7546771E-02  0.1237455E+00
         -1   -1    0    0    0  501 -0.00000000000E+00  0.00000000000E+00  0.28410693073E+02  0.28410693073E+02  0.00000000000E+00 0.  1.
          1   -1    0    0  501    0  0.00000000000E+00 -0.00000000000E+00 -0.47712362254E+03  0.47712362254E+03  0.00000000000E+00 0. -1.
          5    1    1    2  502    0 -0.60209666313E+02 -0.59824944808E+02 -0.15377463395E+03  0.17570701746E+03  0.47000000000E+01 0.  1.
         -5    1    1    2    0  502  0.20699187283E+02  0.42138507861E+02 -0.93185654713E+02  0.10444982740E+03  0.47000000000E+01 0.  1.
        -11    1    1    2    0    0  0.29271511707E+02  0.25786652568E+02 -0.20748388278E+03  0.21111924228E+03  0.00000000000E+00 0. -1.
         11    1    1    2    0    0  0.10238967322E+02 -0.81002156207E+01  0.57312419672E+01  0.14258228481E+02  0.00000000000E+00 0.  1.
<mgrwt>
<rscale>  0 0.12348556E+03</rscale>
<asrwt>0</asrwt>
<pdfrwt beam="2">  1        1 0.73403629E-01 0.13228180E+03</pdfrwt>
<pdfrwt beam="1">  1       -1 0.43708761E-02 0.13228180E+03</pdfrwt>
<totfact> 0.98380607E+03</totfact>
</mgrwt>
</event>
<event>
 6    1  0.8101664E-006  0.4016440E+03  0.7546771E-02  0.1044046E+00
          2   -1    0    0  501    0  0.00000000000E+00  0.00000000000E+00  0.20307967648E+03  0.20307967648E+03  0.00000000000E+00 0. -1.
         -2   -1    0    0    0  501 -0.00000000000E+00 -0.00000000000E+00 -0.80437527827E+03  0.80437527827E+03  0.00000000000E+00 0.  1.
          5    1    1    2  502    0 -0.57665939962E+01 -0.57772047644E+02 -0.13999506492E+03  0.15162971773E+03  0.47000000000E+01 0. -1.
         -5    1    1    2    0  502 -0.25689979984E+02 -0.32262748706E+03 -0.25948973619E+03  0.41485597943E+03  0.47000000000E+01 0. -1.
        -11    1    1    2    0    0 -0.30371687277E+02  0.16040887082E+03 -0.75527457874E+02  0.17988285666E+03  0.00000000000E+00 0.  1.
         11    1    1    2    0    0  0.61828261257E+02  0.21999066389E+03 -0.12628334280E+03  0.26108640094E+03  0.00000000000E+00 0. -1.
<mgrwt>
<rscale>  0 0.39923124E+03</rscale>
<asrwt>0</asrwt>
<pdfrwt beam="1">  1        2 0.31243027E-01 0.40164404E+03</pdfrwt>
<pdfrwt beam="2">  1       -2 0.12375004E+00 0.40164404E+03</pdfrwt>
<totfact> 0.86008622E+01</totfact>
</mgrwt>
</event>
<event>
 6    1  0.7457796E-006  0.1422801E+03  0.7546771E-02  0.1221330E+00
          1   -1    0    0  501    0  0.00000000000E+00  0.00000000000E+00  0.60552643877E+02  0.60552643877E+02  0.00000000000E+00 0. -1.
         -1   -1    0    0    0  501 -0.00000000000E+00 -0.00000000000E+00 -0.28121579752E+03  0.28121579752E+03  0.00000000000E+00 0.  1.
          5    1    1    2  502    0  0.34378692514E+02  0.21098690314E+02 -0.13635542293E+02  0.42837684877E+02  0.47000000000E+01 0. -1.
         -5    1    1    2    0  502 -0.18370244435E+02 -0.87141690823E+02 -0.14524179277E+03  0.17043593673E+03  0.47000000000E+01 0. -1.
        -11    1    1    2    0    0  0.52517476077E+01  0.55251377983E+02  0.67696158533E+01  0.55911745821E+02  0.00000000000E+00 0. -1.
         11    1    1    2    0    0 -0.21260195687E+02  0.10791622526E+02 -0.68555434431E+02  0.72583073974E+02  0.00000000000E+00 0.  1.
<mgrwt>
<rscale>  0 0.13421638E+03</rscale>
<asrwt>0</asrwt>
<pdfrwt beam="1">  1        1 0.93157916E-02 0.14228011E+03</pdfrwt>
<pdfrwt beam="2">  1       -1 0.43263968E-01 0.14228011E+03</pdfrwt>
<totfact> 0.36457558E+03</totfact>
</mgrwt>
</event>
<event>
 6    1  0.7457796E-006  0.1388002E+03  0.7546771E-02  0.1226155E+00
          2   -1    0    0  501    0  0.00000000000E+00  0.00000000000E+00  0.86688600715E+02  0.86688600715E+02  0.00000000000E+00 0. -1.
         -2   -1    0    0    0  501 -0.00000000000E+00 -0.00000000000E+00 -0.20514932612E+03  0.20514932612E+03  0.00000000000E+00 0.  1.
          5    1    1    2  502    0  0.73412457138E+01  0.62603648183E+02 -0.50944734590E+01  0.63412572210E+02  0.47000000000E+01 0.  1.
         -5    1    1    2    0  502 -0.35473699682E+02 -0.92581974353E+01 -0.11279185406E+03  0.11869368109E+03  0.47000000000E+01 0.  1.
        -11    1    1    2    0    0 -0.30599361065E+02 -0.36976467483E+02  0.61656128534E+01  0.48390028177E+02  0.00000000000E+00 0.  1.
         11    1    1    2    0    0  0.58731815032E+02 -0.16368983265E+02 -0.67400107393E+01  0.61341645355E+02  0.00000000000E+00 0. -1.
<mgrwt>
<rscale>  0 0.13088025E+03</rscale>
<asrwt>0</asrwt>
<pdfrwt beam="1">  1        2 0.13336708E-01 0.13880022E+03</pdfrwt>
<pdfrwt beam="2">  1       -2 0.31561435E-01 0.13880022E+03</pdfrwt>
<totfact> 0.40055791E+03</totfact>
</mgrwt>
</event>
<event>
 6    1  0.7457796E-006  0.1467102E+03  0.7546771E-02  0.1214442E+00
          2   -1    0    0  501    0  0.00000000000E+00  0.00000000000E+00  0.10818935947E+03  0.10818935947E+03  0.00000000000E+00 0. -1.
         -2   -1    0    0    0  501 -0.00000000000E+00 -0.00000000000E+00 -0.18839412829E+03  0.18839412829E+03  0.00000000000E+00 0.  1.
          5    1    1    2  502    0 -0.70635179820E+00  0.80819998889E+02 -0.39233159471E+02  0.89965004059E+02  0.47000000000E+01 0.  1.
         -5    1    1    2    0  502 -0.56123956147E+02 -0.29163848937E+02 -0.58781086872E+02  0.86473896132E+02  0.47000000000E+01 0.  1.
        -11    1    1    2    0    0 -0.17049232957E+02  0.11643817418E+02  0.87885297579E+01  0.22438651559E+02  0.00000000000E+00 0. -1.
         11    1    1    2    0    0  0.73879540902E+02 -0.63299967370E+02  0.90209477725E+01  0.97705936011E+02  0.00000000000E+00 0.  1.
<mgrwt>
<rscale>  0 0.13917627E+03</rscale>
<asrwt>0</asrwt>
<pdfrwt beam="1">  1        2 0.16644517E-01 0.14671023E+03</pdfrwt>
<pdfrwt beam="2">  1       -2 0.28983712E-01 0.14671023E+03</pdfrwt>
<totfact> 0.36132030E+03</totfact>
</mgrwt>
</event>
<event>
 6    1  0.7457796E-006  0.2973729E+03  0.7546771E-02  0.1087741E+00
         -2   -1    0    0    0  501 -0.00000000000E+00  0.00000000000E+00  0.92887189570E+02  0.92887189570E+02  0.00000000000E+00 0.  1.
          2   -1    0    0  501    0  0.00000000000E+00 -0.00000000000E+00 -0.10834812009E+04  0.10834812009E+04  0.00000000000E+00 0. -1.
          5    1    1    2  502    0  0.20007901373E+02  0.62256493144E+02 -0.71861621174E+01  0.65953908011E+02  0.47000000000E+01 0.  1.
         -5    1    1    2    0  502 -0.12447111127E+02  0.20746340071E+03 -0.26828688111E+03  0.33940526482E+03  0.47000000000E+01 0.  1.
        -11    1    1    2    0    0 -0.52850945043E+02 -0.12348049750E+03 -0.36277403946E+03  0.38684061235E+03  0.00000000000E+00 0.  1.
         11    1    1    2    0    0  0.45290154796E+02 -0.14623939635E+03 -0.35234692861E+03  0.38416860526E+03  0.00000000000E+00 0. -1.
<mgrwt>
<rscale>  0 0.29505179E+03</rscale>
<asrwt>0</asrwt>
<pdfrwt beam="2">  1        2 0.16668941E+00 0.29737293E+03</pdfrwt>
<pdfrwt beam="1">  1       -2 0.14290337E-01 0.29737293E+03</pdfrwt>
<totfact> 0.86794493E+02</totfact>
</mgrwt>
</event>
<event>
 6    1  0.7457796E-006  0.1485168E+03  0.7546771E-02  0.1216424E+00
         -1   -1    0    0    0  501 -0.00000000000E+00  0.00000000000E+00  0.58561161170E+02  0.58561161170E+02  0.00000000000E+00 0.  1.
          1   -1    0    0  501    0  0.00000000000E+00 -0.00000000000E+00 -0.29713656032E+03  0.29713656032E+03  0.00000000000E+00 0. -1.
          5    1    1    2  502    0  0.36196483040E+02  0.34660782252E+02 -0.24867046810E+02  0.56142811007E+02  0.47000000000E+01 0.  1.
         -5    1    1    2    0  502 -0.95063301714E+02  0.19773692285E+02 -0.75889767235E+02  0.12332630299E+03  0.47000000000E+01 0.  1.
        -11    1    1    2    0    0  0.71951084468E+01 -0.50657388366E+02 -0.99170794325E+02  0.11159205630E+03  0.00000000000E+00 0. -1.
         11    1    1    2    0    0  0.51671710227E+02 -0.37770861712E+01 -0.38647790784E+02  0.64636551194E+02  0.00000000000E+00 0.  1.
<mgrwt>
<rscale>  0 0.13772460E+03</rscale>
<asrwt>0</asrwt>
<pdfrwt beam="2">  1        1 0.45713318E-01 0.14851676E+03</pdfrwt>
<pdfrwt beam="1">  1       -1 0.90094093E-02 0.14851676E+03</pdfrwt>
<totfact> 0.61047925E+03</totfact>
</mgrwt>
</event>
<event>
 6    1  0.7457796E-006  0.3933447E+03  0.7546771E-02  0.1046109E+00
         -1   -1    0    0    0  501 -0.00000000000E+00  0.00000000000E+00  0.25082682444E+02  0.25082682444E+02  0.00000000000E+00 0.  1.
          1   -1    0    0  501    0  0.00000000000E+00 -0.00000000000E+00 -0.15421003952E+04  0.15421003952E+04  0.00000000000E+00 0. -1.
          5    1    1    2  502    0 -0.34496527703E+01 -0.56235670796E+00 -0.23657432480E+03  0.23664682018E+03  0.47000000000E+01 0. -1.
         -5    1    1    2    0  502  0.11263288378E+03 -0.11122070721E+03 -0.38339743033E+03  0.41481549128E+03  0.47000000000E+01 0. -1.
        -11    1    1    2    0    0 -0.10517049594E+03  0.12416782183E+03 -0.87591376851E+03  0.89090033734E+03  0.00000000000E+00 0. -1.
         11    1    1    2    0    0 -0.40127350718E+01 -0.12384757912E+02 -0.21132189121E+02  0.24820428851E+02  0.00000000000E+00 0.  1.
<mgrwt>
<rscale>  0 0.39334471E+03</rscale>
<asrwt>0</asrwt>
<pdfrwt beam="2">  1        1 0.23724619E+00 0.39334471E+03</pdfrwt>
<pdfrwt beam="1">  1       -1 0.38588746E-02 0.39334471E+03</pdfrwt>
<totfact> 0.17356509E+03</totfact>
</mgrwt>
</event>
<event>
 6    1  0.7457796E-006  0.2197657E+03  0.7546771E-02  0.1136120E+00
          2   -1    0    0  501    0  0.00000000000E+00  0.00000000000E+00  0.81540069985E+03  0.81540069985E+03  0.00000000000E+00 0. -1.
         -2   -1    0    0    0  501 -0.00000000000E+00 -0.00000000000E+00 -0.65711719484E+02  0.65711719484E+02  0.00000000000E+00 0.  1.
          5    1    1    2  502    0 -0.11165072586E+03 -0.89815995248E+02  0.22631587988E+03  0.26790626173E+03  0.47000000000E+01 0. -1.
         -5    1    1    2    0  502 -0.37410291659E+02 -0.12426957057E+02 -0.94895821005E+01  0.40817904799E+02  0.47000000000E+01 0. -1.
        -11    1    1    2    0    0  0.10535560221E+03  0.89048883594E+02  0.49248698226E+03  0.51144201458E+03  0.00000000000E+00 0. -1.
         11    1    1    2    0    0  0.43705415309E+02  0.13194068712E+02  0.40375700327E+02  0.60946238222E+02  0.00000000000E+00 0.  1.
<mgrwt>
<rscale>  0 0.21702628E+03</rscale>
<asrwt>0</asrwt>
<pdfrwt beam="1">  1        2 0.12544625E+00 0.21976571E+03</pdfrwt>
<pdfrwt beam="2">  1       -2 0.10109496E-01 0.21976571E+03</pdfrwt>
<totfact> 0.22473890E+03</totfact>
</mgrwt>
</event>
<event>
 6    1  0.7457796E-006  0.2235230E+03  0.7546771E-02  0.1134518E+00
         -2   -1    0    0    0  501 -0.00000000000E+00  0.00000000000E+00  0.24667589088E+02  0.24667589088E+02  0.00000000000E+00 0.  1.
          2   -1    0    0  501    0  0.00000000000E+00 -0.00000000000E+00 -0.19069723612E+04  0.19069723612E+04  0.00000000000E+00 0. -1.
          5    1    1    2  502    0  0.12921774873E+03 -0.41300207603E+02 -0.57821168257E+03  0.59393078182E+03  0.47000000000E+01 0. -1.
         -5    1    1    2    0  502  0.76496887474E+01 -0.83620301233E+02 -0.52551788262E+03  0.53220485480E+03  0.47000000000E+01 0. -1.
        -11    1    1    2    0    0 -0.74923356246E+02  0.13262538086E+02 -0.22978373537E+03  0.24205364957E+03  0.00000000000E+00 0.  1.
         11    1    1    2    0    0 -0.61944081228E+02  0.11165797075E+03 -0.54879147158E+03  0.56345066414E+03  0.00000000000E+00 0. -1.
<mgrwt>
<rscale>  0 0.21915001E+03</rscale>
<asrwt>0</asrwt>
<pdfrwt beam="2">  1        2 0.29338042E+00 0.22352297E+03</pdfrwt>
<pdfrwt beam="1">  1       -2 0.37950130E-02 0.22352297E+03</pdfrwt>
<totfact> 0.24776454E+03</totfact>
</mgrwt>
</event>
<event>
 6    1  0.7457796E-006  0.3520900E+03  0.7546771E-02  0.1061760E+00
         -2   -1    0    0    0  501 -0.00000000000E+00  0.00000000000E+00  0.74017867020E+02  0.74017867020E+02  0.00000000000E+00 0. -1.
          2   -1    0    0  501    0  0.00000000000E+00 -0.00000000000E+00 -0.41870747592E+03  0.41870747592E+03  0.00000000000E+00 0.  1.
          5    1    1    2  502    0 -0.25877992405E+02  0.67964783050E+01  0.89473551485E+01  0.28600835170E+02  0.47000000000E+01 0.  1.
         -5    1    1    2    0  502  0.67111549722E+02  0.11972779527E+03 -0.14021672536E+03  0.19626901216E+03  0.47000000000E+01 0.  1.
        -11    1    1    2    0    0 -0.46309750416E+02 -0.29631613295E+02 -0.36238305323E+02  0.65847097603E+02  0.00000000000E+00 0. -1.
         11    1    1    2    0    0  0.50761930985E+01 -0.96892660277E+02 -0.17718193337E+03  0.20200839800E+03  0.00000000000E+00 0.  1.
<mgrwt>
<rscale>  0 0.35208996E+03</rscale>
<asrwt>0</asrwt>
<pdfrwt beam="2">  1        2 0.64416535E-01 0.35208996E+03</pdfrwt>
<pdfrwt beam="1">  1       -2 0.11387364E-01 0.35208996E+03</pdfrwt>
<totfact> 0.41011440E+03</totfact>
</mgrwt>
</event>
<event>
 6    1  0.7457796E-006  0.1306810E+03  0.7546771E-02  0.1240036E+00
          1   -1    0    0  501    0  0.00000000000E+00  0.00000000000E+00  0.45605515781E+03  0.45605515781E+03  0.00000000000E+00 0. -1.
         -1   -1    0    0    0  501 -0.00000000000E+00 -0.00000000000E+00 -0.29011591231E+02  0.29011591231E+02  0.00000000000E+00 0.  1.
          5    1    1    2  502    0  0.99865383996E+01  0.30559238358E+02  0.16809655234E+03  0.17120788214E+03  0.47000000000E+01 0. -1.
         -5    1    1    2    0  502 -0.65812349886E+01 -0.68522872100E+02  0.58908026895E+02  0.90724540712E+02  0.47000000000E+01 0. -1.
        -11    1    1    2    0    0  0.24869676373E+02  0.37855671090E+02  0.18624558833E+03  0.19167412921E+03  0.00000000000E+00 0. -1.
         11    1    1    2    0    0 -0.28274979784E+02  0.10796265212E+00  0.13793399020E+02  0.31460196984E+02  0.00000000000E+00 0.  1.
<mgrwt>
<rscale>  0 0.12187499E+03</rscale>
<asrwt>0</asrwt>
<pdfrwt beam="1">  1        1 0.70162327E-01 0.13068097E+03</pdfrwt>
<pdfrwt beam="2">  1       -1 0.44633221E-02 0.13068097E+03</pdfrwt>
<totfact> 0.10101246E+04</totfact>
</mgrwt>
</event>
<event>
 6    1  0.7457796E-006  0.4607933E+03  0.7546771E-02  0.1024551E+00
         -1   -1    0    0    0  501 -0.00000000000E+00  0.00000000000E+00  0.57191024429E+02  0.57191024429E+02  0.00000000000E+00 0.  1.
          1   -1    0    0  501    0  0.00000000000E+00 -0.00000000000E+00 -0.92816358476E+03  0.92816358476E+03  0.00000000000E+00 0. -1.
          5    1    1    2  502    0 -0.18348045170E+03 -0.64275612465E+02 -0.25761176431E+03  0.32277289481E+03  0.47000000000E+01 0. -1.
         -5    1    1    2    0  502  0.14033800323E+02 -0.26578586124E+02 -0.77855192428E+02  0.83587617384E+02  0.47000000000E+01 0. -1.
        -11    1    1    2    0    0  0.48366547040E+02  0.38541114647E+02 -0.32311613593E+03  0.32898142453E+03  0.00000000000E+00 0. -1.
         11    1    1    2    0    0  0.12108010433E+03  0.52313083943E+02 -0.21238946766E+03  0.25001267246E+03  0.00000000000E+00 0.  1.
<mgrwt>
<rscale>  0 0.46079334E+03</rscale>
<asrwt>0</asrwt>
<pdfrwt beam="2">  1        1 0.14279439E+00 0.46079334E+03</pdfrwt>
<pdfrwt beam="1">  1       -1 0.87986199E-02 0.46079334E+03</pdfrwt>
<totfact> 0.13473249E+03</totfact>
</mgrwt>
</event>
<event>
 6    1  0.7457796E-006  0.1294386E+03  0.7546771E-02  0.1241152E+00
          1   -1    0    0  501    0  0.00000000000E+00  0.00000000000E+00  0.85073819087E+03  0.85073819087E+03  0.00000000000E+00 0. -1.
         -1   -1    0    0    0  501 -0.00000000000E+00 -0.00000000000E+00 -0.15514126068E+02  0.15514126068E+02  0.00000000000E+00 0.  1.
          5    1    1    2  502    0 -0.20567445479E+02  0.42344689719E+02  0.17210541362E+03  0.17848937212E+03  0.47000000000E+01 0. -1.
         -5    1    1    2    0  502  0.24141994106E+02 -0.78125244903E+02  0.26234417786E+03  0.27483258072E+03  0.47000000000E+01 0.  1.
        -11    1    1    2    0    0 -0.48016258332E+02  0.15686184279E+02  0.21588334202E+03  0.22171430897E+03  0.00000000000E+00 0. -1.
         11    1    1    2    0    0  0.44441709705E+02  0.20094370905E+02  0.18489113130E+03  0.19121605513E+03  0.00000000000E+00 0.  1.
<mgrwt>
<rscale>  0 0.12118657E+03</rscale>
<asrwt>0</asrwt>
<pdfrwt beam="1">  1        1 0.13088276E+00 0.12943858E+03</pdfrwt>
<pdfrwt beam="2">  1       -1 0.23867893E-02 0.12943858E+03</pdfrwt>
<totfact> 0.10591322E+04</totfact>
</mgrwt>
</event>
<event>
 6    1  0.7457796E-006  0.1394785E+03  0.7546771E-02  0.1224869E+00
         -1   -1    0    0    0  501 -0.00000000000E+00  0.00000000000E+00  0.39125453271E+03  0.39125453271E+03  0.00000000000E+00 0.  1.
          1   -1    0    0  501    0  0.00000000000E+00 -0.00000000000E+00 -0.49331781982E+02  0.49331781982E+02  0.00000000000E+00 0. -1.
          5    1    1    2  502    0 -0.48715521946E+02  0.64458624177E+02  0.87545610244E+02  0.11922432714E+03  0.47000000000E+01 0.  1.
         -5    1    1    2    0  502  0.12636732020E+02 -0.14186701700E+02  0.19391743214E+03  0.19490256537E+03  0.47000000000E+01 0.  1.
        -11    1    1    2    0    0 -0.11415163074E+02  0.12202446216E+02  0.42902901870E+02  0.46041987691E+02  0.00000000000E+00 0.  1.
         11    1    1    2    0    0  0.47493953001E+02 -0.62474368693E+02  0.17556806469E+02  0.80417434481E+02  0.00000000000E+00 0. -1.
<mgrwt>
<rscale>  0 0.13175891E+03</rscale>
<asrwt>0</asrwt>
<pdfrwt beam="2">  1        1 0.75895052E-02 0.13947853E+03</pdfrwt>
<pdfrwt beam="1">  1       -1 0.60193003E-01 0.13947853E+03</pdfrwt>
<totfact> 0.26129373E+03</totfact>
</mgrwt>
</event>
<event>
 6    1  0.7457796E-006  0.1297231E+03  0.7546771E-02  0.1241644E+00
          1   -1    0    0  501    0  0.00000000000E+00  0.00000000000E+00  0.23161545216E+02  0.23161545216E+02  0.00000000000E+00 0. -1.
         -1   -1    0    0    0  501 -0.00000000000E+00 -0.00000000000E+00 -0.16675058824E+04  0.16675058824E+04  0.00000000000E+00 0.  1.
          5    1    1    2  502    0 -0.56815070164E+02 -0.39982690855E+02 -0.59353584440E+03  0.59760643935E+03  0.47000000000E+01 0. -1.
         -5    1    1    2    0  502  0.50327515395E+02  0.59081395545E+01 -0.95426199340E+03  0.95561802356E+03  0.47000000000E+01 0. -1.
        -11    1    1    2    0    0  0.33433005949E+02 -0.16665752660E+02 -0.55232497006E+02  0.66679396548E+02  0.00000000000E+00 0.  1.
         11    1    1    2    0    0 -0.26945451179E+02  0.50740303961E+02 -0.41314002386E+02  0.70763568158E+02  0.00000000000E+00 0. -1.
<mgrwt>
<rscale>  0 0.12088524E+03</rscale>
<asrwt>0</asrwt>
<pdfrwt beam="1">  1        1 0.35633150E-02 0.12972311E+03</pdfrwt>
<pdfrwt beam="2">  1       -1 0.25653934E+00 0.12972311E+03</pdfrwt>
<totfact> 0.19501034E+02</totfact>
</mgrwt>
</event>
<event>
 6    1  0.7457796E-006  0.1265869E+03  0.7546771E-02  0.1247802E+00
         -2   -1    0    0    0  501 -0.00000000000E+00  0.00000000000E+00  0.67522258072E+02  0.67522258072E+02  0.00000000000E+00 0.  1.
          2   -1    0    0  501    0  0.00000000000E+00 -0.00000000000E+00 -0.24249921814E+03  0.24249921814E+03  0.00000000000E+00 0. -1.
          5    1    1    2  502    0  0.11067068685E+02 -0.14990185781E+02  0.49277678752E+02  0.52892015487E+02  0.47000000000E+01 0.  1.
         -5    1    1    2    0  502 -0.30432899041E+02  0.99835364477E+01 -0.67682842036E+02  0.75025925187E+02  0.47000000000E+01 0.  1.
        -11    1    1    2    0    0 -0.33378656139E+02 -0.13823452724E+02 -0.49662750608E+02  0.61413445831E+02  0.00000000000E+00 0.  1.
         11    1    1    2    0    0  0.52744486495E+02  0.18830102057E+02 -0.10690904618E+03  0.12069008971E+03  0.00000000000E+00 0. -1.
<mgrwt>
<rscale>  0 0.11719245E+03</rscale>
<asrwt>0</asrwt>
<pdfrwt beam="2">  1        2 0.37307572E-01 0.12658692E+03</pdfrwt>
<pdfrwt beam="1">  1       -2 0.10388040E-01 0.12658692E+03</pdfrwt>
<totfact> 0.81207683E+03</totfact>
</mgrwt>
</event>
<event>
 6    1  0.7457796E-006  0.1362880E+03  0.7546771E-02  0.1234095E+00
         -2   -1    0    0    0  501 -0.00000000000E+00  0.00000000000E+00  0.85332949047E+02  0.85332949047E+02  0.00000000000E+00 0.  1.
          2   -1    0    0  501    0  0.00000000000E+00 -0.00000000000E+00 -0.16139860288E+03  0.16139860288E+03  0.00000000000E+00 0. -1.
          5    1    1    2  502    0 -0.29817915280E+02 -0.69753308846E+01 -0.50062611873E+02  0.58873749839E+02  0.47000000000E+01 0. -1.
         -5    1    1    2    0  502  0.81600978509E+02  0.23340392750E+02  0.37008770786E+01  0.85083959231E+02  0.47000000000E+01 0. -1.
        -11    1    1    2    0    0 -0.23953093123E+02 -0.41560469954E+02  0.90535968410E+01  0.48815888282E+02  0.00000000000E+00 0.  1.
         11    1    1    2    0    0 -0.27829970106E+02  0.25195408088E+02 -0.38757515882E+02  0.53957954578E+02  0.00000000000E+00 0. -1.
<mgrwt>
<rscale>  0 0.12562566E+03</rscale>
<asrwt>0</asrwt>
<pdfrwt beam="2">  1        2 0.24830554E-01 0.13628797E+03</pdfrwt>
<pdfrwt beam="1">  1       -2 0.13128146E-01 0.13628797E+03</pdfrwt>
<totfact> 0.87395008E+03</totfact>
</mgrwt>
</event>
<event>
 6    1  0.7457796E-006  0.1255494E+03  0.7546771E-02  0.1251322E+00
         -1   -1    0    0    0  501 -0.00000000000E+00  0.00000000000E+00  0.45366141549E+02  0.45366141549E+02  0.00000000000E+00 0.  1.
          1   -1    0    0  501    0  0.00000000000E+00 -0.00000000000E+00 -0.27564569126E+03  0.27564569126E+03  0.00000000000E+00 0. -1.
          5    1    1    2  502    0  0.14105077028E+01  0.27152650003E+02 -0.10722258618E+03  0.11071598313E+03  0.47000000000E+01 0. -1.
         -5    1    1    2    0  502  0.37375220077E+01 -0.37724451512E+02  0.19065550776E+02  0.42692956551E+02  0.47000000000E+01 0. -1.
        -11    1    1    2    0    0 -0.10892650495E+02  0.38241263937E+02 -0.24659201439E+02  0.46788036055E+02  0.00000000000E+00 0.  1.
         11    1    1    2    0    0  0.57446207842E+01 -0.27669462428E+02 -0.11746331288E+03  0.12081485708E+03  0.00000000000E+00 0. -1.
<mgrwt>
<rscale>  0 0.11514861E+03</rscale>
<asrwt>0</asrwt>
<pdfrwt beam="2">  1        1 0.42407030E-01 0.12554935E+03</pdfrwt>
<pdfrwt beam="1">  1       -1 0.69794063E-02 0.12554935E+03</pdfrwt>
<totfact> 0.97319557E+03</totfact>
</mgrwt>
</event>
<event>
 6    1  0.7457796E-006  0.1332403E+03  0.7546771E-02  0.1236191E+00
          1   -1    0    0  501    0  0.00000000000E+00  0.00000000000E+00  0.12531157914E+03  0.12531157914E+03  0.00000000000E+00 0. -1.
         -1   -1    0    0    0  501 -0.00000000000E+00 -0.00000000000E+00 -0.11001366409E+03  0.11001366409E+03  0.00000000000E+00 0.  1.
          5    1    1    2  502    0  0.25135831033E+02 -0.18195847039E+02  0.61579703517E+02  0.69116197353E+02  0.47000000000E+01 0.  1.
         -5    1    1    2    0  502  0.15244772664E+02 -0.40790238994E+01 -0.61974560586E+02  0.64124704205E+02  0.47000000000E+01 0.  1.
        -11    1    1    2    0    0  0.74271169901E+01  0.36729390670E+02  0.32277665680E+02  0.49457637504E+02  0.00000000000E+00 0. -1.
         11    1    1    2    0    0 -0.47807720687E+02 -0.14454519732E+02 -0.16584893559E+02  0.52626704175E+02  0.00000000000E+00 0.  1.
<mgrwt>
<rscale>  0 0.12428487E+03</rscale>
<asrwt>0</asrwt>
<pdfrwt beam="1">  1        1 0.19278705E-01 0.13324032E+03</pdfrwt>
<pdfrwt beam="2">  1       -1 0.16925179E-01 0.13324032E+03</pdfrwt>
<totfact> 0.67163678E+03</totfact>
</mgrwt>
</event>
<event>
 6    1  0.7457796E-006  0.2761773E+03  0.7546771E-02  0.1099770E+00
         -1   -1    0    0    0  501 -0.00000000000E+00  0.00000000000E+00  0.96544049372E+02  0.96544049372E+02  0.00000000000E+00 0.  1.
          1   -1    0    0  501    0  0.00000000000E+00 -0.00000000000E+00 -0.80136615455E+03  0.80136615455E+03  0.00000000000E+00 0. -1.
          5    1    1    2  502    0  0.94187921007E+01  0.12361031204E+03 -0.10302453611E+03  0.16125869876E+03  0.47000000000E+01 0.  1.
         -5    1    1    2    0  502  0.12882184348E+03  0.80189358799E+02 -0.14533617596E+03  0.21016682580E+03  0.47000000000E+01 0.  1.
        -11    1    1    2    0    0 -0.99740099060E+02 -0.67553370311E+02 -0.19717944397E+03  0.23106552821E+03  0.00000000000E+00 0.  1.
         11    1    1    2    0    0 -0.38500536524E+02 -0.13624630053E+03 -0.25928194914E+03  0.29541915115E+03  0.00000000000E+00 0. -1.
<mgrwt>
<rscale>  0 0.27265437E+03</rscale>
<asrwt>0</asrwt>
<pdfrwt beam="2">  1        1 0.12328710E+00 0.27617726E+03</pdfrwt>
<pdfrwt beam="1">  1       -1 0.14852930E-01 0.27617726E+03</pdfrwt>
<totfact> 0.75251378E+02</totfact>
</mgrwt>
</event>
<event>
 6    1  0.7457796E-006  0.1287407E+03  0.7546771E-02  0.1242274E+00
          2   -1    0    0  501    0  0.00000000000E+00  0.00000000000E+00  0.72073299463E+03  0.72073299463E+03  0.00000000000E+00 0. -1.
         -2   -1    0    0    0  501 -0.00000000000E+00 -0.00000000000E+00 -0.19610243218E+02  0.19610243218E+02  0.00000000000E+00 0.  1.
          5    1    1    2  502    0  0.38116722318E+02 -0.14241359327E+02  0.36280125505E+02  0.54717806447E+02  0.47000000000E+01 0.  1.
         -5    1    1    2    0  502 -0.55690141284E+02  0.39363805283E+02  0.25000632696E+03  0.25918363089E+03  0.47000000000E+01 0.  1.
        -11    1    1    2    0    0  0.15161017493E+02 -0.56937413145E+02  0.34030467391E+03  0.34536791477E+03  0.00000000000E+00 0. -1.
         11    1    1    2    0    0  0.24124014729E+01  0.31814967189E+02  0.74531625043E+02  0.81073885744E+02  0.00000000000E+00 0.  1.
<mgrwt>
<rscale>  0 0.12050011E+03</rscale>
<asrwt>0</asrwt>
<pdfrwt beam="1">  1        2 0.11088198E+00 0.12874075E+03</pdfrwt>
<pdfrwt beam="2">  1       -2 0.30169611E-02 0.12874075E+03</pdfrwt>
<totfact> 0.16082311E+04</totfact>
</mgrwt>
</event>
<event>
 6    1  0.7457796E-006  0.1505468E+03  0.7546771E-02  0.1208853E+00
          1   -1    0    0  501    0  0.00000000000E+00  0.00000000000E+00  0.86454348519E+03  0.86454348519E+03  0.00000000000E+00 0. -1.
         -1   -1    0    0    0  501 -0.00000000000E+00 -0.00000000000E+00 -0.24390478923E+02  0.24390478923E+02  0.00000000000E+00 0.  1.
          5    1    1    2  502    0  0.79257395810E+02 -0.68550357983E+02  0.27198828124E+03  0.29151432470E+03  0.47000000000E+01 0.  1.
         -5    1    1    2    0  502 -0.14401117803E+01  0.37176068898E+02  0.39604548981E+02  0.54541216714E+02  0.47000000000E+01 0.  1.
        -11    1    1    2    0    0  0.40624194991E+01 -0.14524914106E+02  0.16783258267E+02  0.22564444155E+02  0.00000000000E+00 0.  1.
         11    1    1    2    0    0 -0.81879703528E+02  0.45899203191E+02  0.51177691777E+03  0.52031397854E+03  0.00000000000E+00 0. -1.
<mgrwt>
<rscale>  0 0.14337910E+03</rscale>
<asrwt>0</asrwt>
<pdfrwt beam="1">  1        1 0.13300667E+00 0.15054682E+03</pdfrwt>
<pdfrwt beam="2">  1       -1 0.37523820E-02 0.15054682E+03</pdfrwt>
<totfact> 0.53850859E+03</totfact>
</mgrwt>
</event>
<event>
 6    1  0.7457796E-006  0.1271229E+03  0.7546771E-02  0.1247593E+00
         -2   -1    0    0    0  501 -0.00000000000E+00  0.00000000000E+00  0.61760993052E+02  0.61760993052E+02  0.00000000000E+00 0.  1.
          2   -1    0    0  501    0  0.00000000000E+00 -0.00000000000E+00 -0.19472029339E+03  0.19472029339E+03  0.00000000000E+00 0. -1.
          5    1    1    2  502    0  0.47020262863E+02  0.27942564548E+02  0.87126233821E+01  0.55584996531E+02  0.47000000000E+01 0. -1.
         -5    1    1    2    0  502 -0.23943985194E+02 -0.27261859811E+02 -0.85326512486E+02  0.92839792979E+02  0.47000000000E+01 0. -1.
        -11    1    1    2    0    0 -0.34236179686E+02 -0.16197357593E+02  0.98687142353E+01  0.39139007564E+02  0.00000000000E+00 0.  1.
         11    1    1    2    0    0  0.11159902017E+02  0.15516652856E+02 -0.66214125466E+02  0.68917489363E+02  0.00000000000E+00 0. -1.
<mgrwt>
<rscale>  0 0.11731516E+03</rscale>
<asrwt>0</asrwt>
<pdfrwt beam="2">  1        2 0.29956969E-01 0.12712289E+03</pdfrwt>
<pdfrwt beam="1">  1       -2 0.95016911E-02 0.12712289E+03</pdfrwt>
<totfact> 0.11821102E+04</totfact>
</mgrwt>
</event>
<event>
 6    1  0.7457796E-006  0.1324082E+03  0.7546771E-02  0.1238355E+00
         -1   -1    0    0    0  501 -0.00000000000E+00  0.00000000000E+00  0.15884873477E+02  0.15884873477E+02  0.00000000000E+00 0.  1.
          1   -1    0    0  501    0  0.00000000000E+00 -0.00000000000E+00 -0.84769428479E+03  0.84769428479E+03  0.00000000000E+00 0. -1.
          5    1    1    2  502    0  0.44035598163E+02  0.21897501626E+02 -0.48104926753E+03  0.48357948909E+03  0.47000000000E+01 0.  1.
         -5    1    1    2    0  502 -0.30662963516E+02  0.19635327766E+02 -0.41158581958E+02  0.55153261888E+02  0.47000000000E+01 0.  1.
        -11    1    1    2    0    0 -0.42846607756E+02 -0.11906702246E+02 -0.80518474318E+02  0.91982748715E+02  0.00000000000E+00 0.  1.
         11    1    1    2    0    0  0.29473973109E+02 -0.29626127146E+02 -0.22908308751E+03  0.23286365857E+03  0.00000000000E+00 0. -1.
<mgrwt>
<rscale>  0 0.12292101E+03</rscale>
<asrwt>0</asrwt>
<pdfrwt beam="2">  1        1 0.13041455E+00 0.13240823E+03</pdfrwt>
<pdfrwt beam="1">  1       -1 0.24438259E-02 0.13240823E+03</pdfrwt>
<totfact> 0.10307280E+04</totfact>
</mgrwt>
</event>
<event>
 6    1  0.7457796E-006  0.2826250E+03  0.7546771E-02  0.1094264E+00
         -2   -1    0    0    0  501 -0.00000000000E+00  0.00000000000E+00  0.10459496288E+03  0.10459496288E+03  0.00000000000E+00 0.  1.
          2   -1    0    0  501    0  0.00000000000E+00 -0.00000000000E+00 -0.19091952103E+03  0.19091952103E+03  0.00000000000E+00 0. -1.
          5    1    1    2  502    0 -0.17196884878E+02  0.80353575224E+02  0.40154641184E+02  0.91580102148E+02  0.47000000000E+01 0. -1.
         -5    1    1    2    0  502  0.47238851441E+01  0.47815468766E+01 -0.61061901449E+02  0.61610259616E+02  0.47000000000E+01 0. -1.
        -11    1    1    2    0    0  0.29138398889E+02 -0.15977780311E+02  0.13685575138E+02  0.35939264327E+02  0.00000000000E+00 0.  1.
         11    1    1    2    0    0 -0.16665399155E+02 -0.69157341790E+02 -0.79102873021E+02  0.10638485782E+03  0.00000000000E+00 0. -1.
<mgrwt>
<rscale>  0 0.28262498E+03</rscale>
<asrwt>0</asrwt>
<pdfrwt beam="2">  1        2 0.29372234E-01 0.28262498E+03</pdfrwt>
<pdfrwt beam="1">  1       -2 0.16091533E-01 0.28262498E+03</pdfrwt>
<totfact> 0.54332470E+03</totfact>
</mgrwt>
</event>
<event>
 6    1  0.7457796E-006  0.1494489E+03  0.7546771E-02  0.1209913E+00
         -2   -1    0    0    0  501 -0.00000000000E+00  0.00000000000E+00  0.30167670026E+03  0.30167670026E+03  0.00000000000E+00 0.  1.
          2   -1    0    0  501    0  0.00000000000E+00 -0.00000000000E+00 -0.63852764820E+02  0.63852764820E+02  0.00000000000E+00 0. -1.
          5    1    1    2  502    0 -0.14652531709E+02 -0.23485735278E+02  0.78123991757E+02  0.83016411239E+02  0.47000000000E+01 0.  1.
         -5    1    1    2    0  502  0.76292309175E+02  0.77418870082E+02  0.83743792241E+02  0.13729279159E+03  0.47000000000E+01 0.  1.
        -11    1    1    2    0    0  0.23130155302E+01 -0.30586270866E+02  0.70544269227E+02  0.76924403977E+02  0.00000000000E+00 0.  1.
         11    1    1    2    0    0 -0.63952792996E+02 -0.23346863938E+02  0.54118822107E+01  0.68295858269E+02  0.00000000000E+00 0. -1.
<mgrwt>
<rscale>  0 0.14256909E+03</rscale>
<asrwt>0</asrwt>
<pdfrwt beam="2">  1        2 0.98235024E-02 0.14944887E+03</pdfrwt>
<pdfrwt beam="1">  1       -2 0.46411799E-01 0.14944887E+03</pdfrwt>
<totfact> 0.28210129E+03</totfact>
</mgrwt>
</event>
<event>
 6    1  0.7457796E-006  0.1285016E+03  0.7546771E-02  0.1244468E+00
         -1   -1    0    0    0  501 -0.00000000000E+00  0.00000000000E+00  0.12579349079E+03  0.12579349079E+03  0.00000000000E+00 0.  1.
          1   -1    0    0  501    0  0.00000000000E+00 -0.00000000000E+00 -0.10123287588E+03  0.10123287588E+03  0.00000000000E+00 0. -1.
          5    1    1    2  502    0  0.48880897695E+02  0.13402621594E+02  0.32355087956E+02  0.60315123656E+02  0.47000000000E+01 0. -1.
         -5    1    1    2    0  502 -0.71018345527E+02  0.64988389938E+01 -0.28639099638E+01  0.71527143728E+02  0.47000000000E+01 0. -1.
        -11    1    1    2    0    0  0.40819873915E+02 -0.30618804047E+02 -0.32273726281E+02  0.60376872027E+02  0.00000000000E+00 0. -1.
         11    1    1    2    0    0 -0.18682426082E+02  0.10717343459E+02  0.27343163200E+02  0.34807227252E+02  0.00000000000E+00 0.  1.
<mgrwt>
<rscale>  0 0.11917264E+03</rscale>
<asrwt>0</asrwt>
<pdfrwt beam="2">  1        1 0.15574289E-01 0.12850157E+03</pdfrwt>
<pdfrwt beam="1">  1       -1 0.19352845E-01 0.12850157E+03</pdfrwt>
<totfact> 0.71152489E+03</totfact>
</mgrwt>
</event>
<event>
 6    1  0.7457796E-006  0.3094814E+03  0.7546771E-02  0.1080595E+00
         -2   -1    0    0    0  501 -0.00000000000E+00  0.00000000000E+00  0.59510230091E+03  0.59510230091E+03  0.00000000000E+00 0.  1.
          2   -1    0    0  501    0  0.00000000000E+00 -0.00000000000E+00 -0.40236254571E+02  0.40236254571E+02  0.00000000000E+00 0. -1.
          5    1    1    2  502    0 -0.19219054222E+02 -0.15529568402E+02  0.15997499664E+03  0.16194020221E+03  0.47000000000E+01 0. -1.
         -5    1    1    2    0  502 -0.69701035048E+02  0.75355421616E+02  0.85672267792E+02  0.13378528066E+03  0.47000000000E+01 0. -1.
        -11    1    1    2    0    0  0.34276910473E+02 -0.99490063981E+01  0.19651653866E+02  0.40744040295E+02  0.00000000000E+00 0. -1.
         11    1    1    2    0    0  0.54643178797E+02 -0.49876846816E+02  0.28956712804E+03  0.29886903232E+03  0.00000000000E+00 0.  1.
<mgrwt>
<rscale>  0 0.30948142E+03</rscale>
<asrwt>0</asrwt>
<pdfrwt beam="2">  1        2 0.61901934E-02 0.30948142E+03</pdfrwt>
<pdfrwt beam="1">  1       -2 0.91554194E-01 0.30948142E+03</pdfrwt>
<totfact> 0.12503133E+03</totfact>
</mgrwt>
</event>
<event>
 6    1  0.7457796E-006  0.1270770E+03  0.7546771E-02  0.1247185E+00
          1   -1    0    0  501    0  0.00000000000E+00  0.00000000000E+00  0.98333932490E+01  0.98333932490E+01  0.00000000000E+00 0. -1.
         -1   -1    0    0    0  501 -0.00000000000E+00 -0.00000000000E+00 -0.12654318905E+04  0.12654318905E+04  0.00000000000E+00 0.  1.
          5    1    1    2  502    0  0.21147318095E+02  0.41375239531E+02 -0.12734558093E+03  0.13563961992E+03  0.47000000000E+01 0. -1.
         -5    1    1    2    0  502 -0.37004677854E+02 -0.24880478384E+02 -0.69725807779E+03  0.69869829070E+03  0.47000000000E+01 0. -1.
        -11    1    1    2    0    0  0.47207176937E+02 -0.31728982634E+02 -0.22972969849E+03  0.23666639023E+03  0.00000000000E+00 0. -1.
         11    1    1    2    0    0 -0.31349817178E+02  0.15234221486E+02 -0.20126513999E+03  0.20426098285E+03  0.00000000000E+00 0.  1.
<mgrwt>
<rscale>  0 0.11755534E+03</rscale>
<asrwt>0</asrwt>
<pdfrwt beam="1">  1        1 0.15128303E-02 0.12707697E+03</pdfrwt>
<pdfrwt beam="2">  1       -1 0.19468176E+00 0.12707697E+03</pdfrwt>
<totfact> 0.15819506E+03</totfact>
</mgrwt>
</event>
<event>
 6    1  0.7457796E-006  0.3529955E+03  0.7546771E-02  0.1061392E+00
         -2   -1    0    0    0  501 -0.00000000000E+00  0.00000000000E+00  0.81774654615E+03  0.81774654615E+03  0.00000000000E+00 0.  1.
          2   -1    0    0  501    0  0.00000000000E+00 -0.00000000000E+00 -0.38094265475E+02  0.38094265475E+02  0.00000000000E+00 0. -1.
          5    1    1    2  502    0 -0.54240810756E+02 -0.10356345131E+02  0.11140738957E+03  0.12443076744E+03  0.47000000000E+01 0. -1.
         -5    1    1    2    0  502  0.10069182027E+02 -0.33694841010E+01  0.55778835683E+03  0.55790920665E+03  0.47000000000E+01 0. -1.
        -11    1    1    2    0    0  0.72151126599E+02 -0.29895826153E+02  0.45438031289E+02  0.90355742365E+02  0.00000000000E+00 0.  1.
         11    1    1    2    0    0 -0.27979497871E+02  0.43621655385E+02  0.65018502989E+02  0.83145095169E+02  0.00000000000E+00 0. -1.
<mgrwt>
<rscale>  0 0.35299549E+03</rscale>
<asrwt>0</asrwt>
<pdfrwt beam="2">  1        2 0.58606568E-02 0.35299549E+03</pdfrwt>
<pdfrwt beam="1">  1       -2 0.12580715E+00 0.35299549E+03</pdfrwt>
<totfact> 0.63322452E+02</totfact>
</mgrwt>
</event>
<event>
 6    1  0.7457796E-006  0.1327957E+03  0.7546771E-02  0.1236631E+00
         -4   -1    0    0    0  501 -0.00000000000E+00  0.00000000000E+00  0.35690905241E+03  0.35690905241E+03  0.00000000000E+00 0.  1.
          4   -1    0    0  501    0  0.00000000000E+00 -0.00000000000E+00 -0.44692583910E+02  0.44692583910E+02  0.00000000000E+00 0. -1.
          5    1    1    2  502    0  0.15228730702E+02 -0.76982859632E+01 -0.10707651679E+02  0.20686267185E+02  0.47000000000E+01 0. -1.
         -5    1    1    2    0  502  0.14816026990E+02 -0.25577140110E+02  0.26047584684E+03  0.26218974339E+03  0.47000000000E+01 0. -1.
        -11    1    1    2    0    0 -0.46354603816E+02 -0.15994512862E+02  0.31997192369E+02  0.58552489752E+02  0.00000000000E+00 0.  1.
         11    1    1    2    0    0  0.16309846125E+02  0.49269938936E+02  0.30451080976E+02  0.60173135999E+02  0.00000000000E+00 0. -1.
<mgrwt>
<rscale>  0 0.12400567E+03</rscale>
<asrwt>0</asrwt>
<pdfrwt beam="2">  1        4 0.68757824E-02 0.13279566E+03</pdfrwt>
<pdfrwt beam="1">  1       -4 0.54909083E-01 0.13279566E+03</pdfrwt>
<totfact> 0.74775153E+02</totfact>
</mgrwt>
</event>
<event>
 6    1  0.7457796E-006  0.1731026E+03  0.7546771E-02  0.1180848E+00
         -1   -1    0    0    0  501 -0.00000000000E+00  0.00000000000E+00  0.56114660908E+02  0.56114660908E+02  0.00000000000E+00 0.  1.
          1   -1    0    0  501    0  0.00000000000E+00 -0.00000000000E+00 -0.49962335474E+03  0.49962335474E+03  0.00000000000E+00 0. -1.
          5    1    1    2  502    0  0.40875653657E+02 -0.46612366256E+02 -0.76144566932E+01  0.62638659792E+02  0.47000000000E+01 0. -1.
         -5    1    1    2    0  502 -0.32593113199E+02 -0.72847115064E+02 -0.15728116368E+03  0.17643261504E+03  0.47000000000E+01 0. -1.
        -11    1    1    2    0    0 -0.22289696555E+02  0.88265123412E+02 -0.26440378165E+03  0.27963712617E+03  0.00000000000E+00 0. -1.
         11    1    1    2    0    0  0.14007156098E+02  0.31194357909E+02 -0.14209291816E+02  0.37029614651E+02  0.00000000000E+00 0.  1.
<mgrwt>
<rscale>  0 0.16715424E+03</rscale>
<asrwt>0</asrwt>
<pdfrwt beam="2">  1        1 0.76865129E-01 0.17310260E+03</pdfrwt>
<pdfrwt beam="1">  1       -1 0.86330250E-02 0.17310260E+03</pdfrwt>
<totfact> 0.33955602E+03</totfact>
</mgrwt>
</event>
<event>
 6    1  0.7457796E-006  0.2007447E+03  0.7546771E-02  0.1152712E+00
         -3   -1    0    0    0  501 -0.00000000000E+00  0.00000000000E+00  0.30539984806E+03  0.30539984806E+03  0.00000000000E+00 0.  1.
          3   -1    0    0  501    0  0.00000000000E+00 -0.00000000000E+00 -0.12502163636E+03  0.12502163636E+03  0.00000000000E+00 0. -1.
          5    1    1    2  502    0 -0.91205828051E+01 -0.51231547576E+02  0.11498765449E+03  0.12630165155E+03  0.47000000000E+01 0. -1.
         -5    1    1    2    0  502 -0.74634856270E+02 -0.83463287408E+02  0.15515185203E+02  0.11313396080E+03  0.47000000000E+01 0.  1.
        -11    1    1    2    0    0  0.32641108193E+02 -0.46966371455E+01  0.22743162133E+02  0.40059353069E+02  0.00000000000E+00 0.  1.
         11    1    1    2    0    0  0.51114330882E+02  0.13939147213E+03  0.27132209878E+02  0.15092651900E+03  0.00000000000E+00 0. -1.
<mgrwt>
<rscale>  0 0.19651640E+03</rscale>
<asrwt>0</asrwt>
<pdfrwt beam="2">  1        3 0.19234098E-01 0.20074467E+03</pdfrwt>
<pdfrwt beam="1">  1       -3 0.46984592E-01 0.20074467E+03</pdfrwt>
<totfact> 0.26584979E+02</totfact>
</mgrwt>
</event>
<event>
 6    1  0.7457796E-006  0.2763671E+03  0.7546771E-02  0.1097690E+00
          1   -1    0    0  501    0  0.00000000000E+00  0.00000000000E+00  0.18469869496E+02  0.18469869496E+02  0.00000000000E+00 0. -1.
         -1   -1    0    0    0  501 -0.00000000000E+00 -0.00000000000E+00 -0.10338291494E+04  0.10338291494E+04  0.00000000000E+00 0.  1.
          5    1    1    2  502    0  0.23035391126E+01 -0.21663725065E+02 -0.50328645539E+03  0.50377968345E+03  0.47000000000E+01 0. -1.
         -5    1    1    2    0  502  0.36803163951E+02  0.72935923637E+02 -0.26753483652E+03  0.27976972779E+03  0.47000000000E+01 0. -1.
        -11    1    1    2    0    0 -0.75324558705E+01 -0.25875454508E+02 -0.70866845539E+01  0.27865716130E+02  0.00000000000E+00 0. -1.
         11    1    1    2    0    0 -0.31574247193E+02 -0.25396744063E+02 -0.23745130346E+03  0.24088389155E+03  0.00000000000E+00 0.  1.
<mgrwt>
<rscale>  0 0.27636707E+03</rscale>
<asrwt>0</asrwt>
<pdfrwt beam="1">  1        1 0.28415174E-02 0.27636707E+03</pdfrwt>
<pdfrwt beam="2">  1       -1 0.15905069E+00 0.27636707E+03</pdfrwt>
<totfact> 0.11896510E+03</totfact>
</mgrwt>
</event>
<event>
 6    1  0.7457796E-006  0.1287145E+03  0.7546771E-02  0.1242363E+00
          2   -1    0    0  501    0  0.00000000000E+00  0.00000000000E+00  0.31094259392E+03  0.31094259392E+03  0.00000000000E+00 0. -1.
         -2   -1    0    0    0  501 -0.00000000000E+00 -0.00000000000E+00 -0.48398721787E+02  0.48398721787E+02  0.00000000000E+00 0.  1.
          5    1    1    2  502    0 -0.21121993774E+02 -0.46664663126E+02  0.59773306042E+02  0.78858528523E+02  0.47000000000E+01 0.  1.
         -5    1    1    2    0  502  0.51795526426E+02  0.46277178581E+02  0.19447618841E+02  0.72281765984E+02  0.47000000000E+01 0.  1.
        -11    1    1    2    0    0 -0.45028659543E+02 -0.31755969522E+02  0.14970937530E+03  0.15952717271E+03  0.00000000000E+00 0.  1.
         11    1    1    2    0    0  0.14355126891E+02  0.32143454067E+02  0.33613571945E+02  0.48673848485E+02  0.00000000000E+00 0. -1.
<mgrwt>
<rscale>  0 0.12044606E+03</rscale>
<asrwt>0</asrwt>
<pdfrwt beam="1">  1        2 0.47837321E-01 0.12871454E+03</pdfrwt>
<pdfrwt beam="2">  1       -2 0.74459574E-02 0.12871454E+03</pdfrwt>
<totfact> 0.10480304E+04</totfact>
</mgrwt>
</event>
<event>
 6    1  0.7457796E-006  0.1896287E+03  0.7546771E-02  0.1163513E+00
         -4   -1    0    0    0  501 -0.00000000000E+00  0.00000000000E+00  0.25208470729E+03  0.25208470729E+03  0.00000000000E+00 0.  1.
          4   -1    0    0  501    0  0.00000000000E+00 -0.00000000000E+00 -0.12844830987E+03  0.12844830987E+03  0.00000000000E+00 0. -1.
          5    1    1    2  502    0 -0.71980815157E+02  0.11032147915E+03  0.52332087575E+02  0.14181961748E+03  0.47000000000E+01 0.  1.
         -5    1    1    2    0  502 -0.47532077750E+02 -0.32534349097E+02  0.20722710751E+02  0.61394649827E+02  0.47000000000E+01 0.  1.
        -11    1    1    2    0    0  0.23945412849E+02 -0.70073152815E+02  0.23440196666E+02  0.77672854728E+02  0.00000000000E+00 0.  1.
         11    1    1    2    0    0  0.95567480059E+02 -0.77139772334E+01  0.27141402426E+02  0.99645895125E+02  0.00000000000E+00 0. -1.
<mgrwt>
<rscale>  0 0.18450542E+03</rscale>
<asrwt>0</asrwt>
<pdfrwt beam="2">  1        4 0.19761278E-01 0.18962868E+03</pdfrwt>
<pdfrwt beam="1">  1       -4 0.38782263E-01 0.18962868E+03</pdfrwt>
<totfact> 0.26294521E+02</totfact>
</mgrwt>
</event>
<event>
 6    1  0.7457796E-006  0.1726846E+03  0.7546771E-02  0.1181063E+00
         -1   -1    0    0    0  501 -0.00000000000E+00  0.00000000000E+00  0.11177877833E+03  0.11177877833E+03  0.00000000000E+00 0.  1.
          1   -1    0    0  501    0  0.00000000000E+00 -0.00000000000E+00 -0.23904058419E+03  0.23904058419E+03  0.00000000000E+00 0. -1.
          5    1    1    2  502    0  0.80107065100E+01  0.58273186972E+02 -0.83293064547E+02  0.10207722733E+03  0.47000000000E+01 0.  1.
         -5    1    1    2    0  502 -0.21947799520E+02  0.60054922960E+02  0.40497079871E+02  0.75831412710E+02  0.47000000000E+01 0.  1.
        -11    1    1    2    0    0 -0.26555419120E+02 -0.75582937452E+02 -0.81006192737E+02  0.11392968876E+03  0.00000000000E+00 0. -1.
         11    1    1    2    0    0  0.40492512130E+02 -0.42745172480E+02 -0.34596284463E+01  0.58981033714E+02  0.00000000000E+00 0.  1.
<mgrwt>
<rscale>  0 0.16695350E+03</rscale>
<asrwt>0</asrwt>
<pdfrwt beam="2">  1        1 0.36775474E-01 0.17268465E+03</pdfrwt>
<pdfrwt beam="1">  1       -1 0.17196735E-01 0.17268465E+03</pdfrwt>
<totfact> 0.29510282E+03</totfact>
</mgrwt>
</event>
<event>
 6    1  0.7457796E-006  0.1678322E+03  0.7546771E-02  0.1184805E+00
          1   -1    0    0  501    0  0.00000000000E+00  0.00000000000E+00  0.22035685457E+03  0.22035685457E+03  0.00000000000E+00 0. -1.
         -1   -1    0    0    0  501 -0.00000000000E+00 -0.00000000000E+00 -0.11716126972E+03  0.11716126972E+03  0.00000000000E+00 0.  1.
          5    1    1    2  502    0 -0.22083625912E+02 -0.49586534449E+02  0.57168184210E+02  0.78973427290E+02  0.47000000000E+01 0. -1.
         -5    1    1    2    0  502 -0.88954651897E+02  0.51095087155E+01 -0.23354853697E+02  0.92231103022E+02  0.47000000000E+01 0.  1.
        -11    1    1    2    0    0  0.53490834551E+02  0.68360025849E+02  0.26791879663E+02  0.90841440604E+02  0.00000000000E+00 0. -1.
         11    1    1    2    0    0  0.57547443259E+02 -0.23883000116E+02  0.42590374679E+02  0.75472153377E+02  0.00000000000E+00 0.  1.
<mgrwt>
<rscale>  0 0.16349651E+03</rscale>
<asrwt>0</asrwt>
<pdfrwt beam="1">  1        1 0.33901055E-01 0.16783221E+03</pdfrwt>
<pdfrwt beam="2">  1       -1 0.18024811E-01 0.16783221E+03</pdfrwt>
<totfact> 0.30264064E+03</totfact>
</mgrwt>
</event>
<event>
 6    1  0.7457796E-006  0.1345287E+03  0.7546771E-02  0.1227463E+00
         -1   -1    0    0    0  501 -0.00000000000E+00  0.00000000000E+00  0.18645586489E+03  0.18645586489E+03  0.00000000000E+00 0.  1.
          1   -1    0    0  501    0  0.00000000000E+00 -0.00000000000E+00 -0.96503153203E+02  0.96503153203E+02  0.00000000000E+00 0. -1.
          5    1    1    2  502    0  0.67344651879E+02 -0.38218272800E+02  0.88107154166E+02  0.11739207438E+03  0.47000000000E+01 0. -1.
         -5    1    1    2    0  502 -0.37592842748E+02 -0.28456991361E+02  0.82754209794E+01  0.48099841741E+02  0.47000000000E+01 0.  1.
        -11    1    1    2    0    0  0.18859679348E+02  0.42539262858E+02 -0.32992538432E+02  0.57041949316E+02  0.00000000000E+00 0.  1.
         11    1    1    2    0    0 -0.48611488480E+02  0.24136001302E+02  0.26562674969E+02  0.60425152648E+02  0.00000000000E+00 0. -1.
<mgrwt>
<rscale>  0 0.12999522E+03</rscale>
<asrwt>0</asrwt>
<pdfrwt beam="2">  1        1 0.14846639E-01 0.13452871E+03</pdfrwt>
<pdfrwt beam="1">  1       -1 0.28685518E-01 0.13452871E+03</pdfrwt>
<totfact> 0.39944205E+03</totfact>
</mgrwt>
</event>
<event>
 6    1  0.7457796E-006  0.1955694E+03  0.7546771E-02  0.1226932E+00
         -2   -1    0    0    0  501 -0.00000000000E+00  0.00000000000E+00  0.20389822991E+02  0.20389822991E+02  0.00000000000E+00 0.  1.
          2   -1    0    0  501    0  0.00000000000E+00 -0.00000000000E+00 -0.67533252703E+03  0.67533252703E+03  0.00000000000E+00 0. -1.
          5    1    1    2  502    0 -0.93377329877E+02 -0.50625529000E+01 -0.24731228928E+03  0.26444359248E+03  0.47000000000E+01 0. -1.
         -5    1    1    2    0  502  0.92693591755E+02  0.42049343346E+02 -0.28147353883E+03  0.29934878034E+03  0.47000000000E+01 0.  1.
        -11    1    1    2    0    0 -0.45450455476E+01 -0.16149811637E+02 -0.46787415741E+02  0.49704487993E+02  0.00000000000E+00 0.  1.
         11    1    1    2    0    0  0.52287836699E+01 -0.20836978809E+02 -0.79369460193E+02  0.82225489210E+02  0.00000000000E+00 0. -1.
<mgrwt>
<rscale>  0 0.13035346E+03</rscale>
<asrwt>0</asrwt>
<pdfrwt beam="2">  1        2 0.10389732E+00 0.19556939E+03</pdfrwt>
<pdfrwt beam="1">  1       -2 0.31368957E-02 0.19556939E+03</pdfrwt>
<totfact> 0.16909984E+04</totfact>
</mgrwt>
</event>
<event>
 6    1  0.7457796E-006  0.1291252E+03  0.7546771E-02  0.1235544E+00
         -1   -1    0    0    0  501 -0.00000000000E+00  0.00000000000E+00  0.41580313498E+02  0.41580313498E+02  0.00000000000E+00 0.  1.
          1   -1    0    0  501    0  0.00000000000E+00 -0.00000000000E+00 -0.37210668908E+03  0.37210668908E+03  0.00000000000E+00 0. -1.
          5    1    1    2  502    0  0.13550325623E+02 -0.16311381067E+02  0.20279670591E+02  0.29715778907E+02  0.47000000000E+01 0.  1.
         -5    1    1    2    0  502 -0.34564400683E+02 -0.83223030388E+01 -0.14659949011E+03  0.15092202962E+03  0.47000000000E+01 0.  1.
        -11    1    1    2    0    0  0.15810126010E+02 -0.32538455712E+02 -0.14926595047E+03  0.15358722327E+03  0.00000000000E+00 0. -1.
         11    1    1    2    0    0  0.52039490508E+01  0.57172139818E+02 -0.54940605598E+02  0.79461970782E+02  0.00000000000E+00 0.  1.
<mgrwt>
<rscale>  0 0.12469660E+03</rscale>
<asrwt>0</asrwt>
<pdfrwt beam="2">  1        1 0.57247185E-01 0.12912521E+03</pdfrwt>
<pdfrwt beam="1">  1       -1 0.63969710E-02 0.12912521E+03</pdfrwt>
<totfact> 0.76577354E+03</totfact>
</mgrwt>
</event>
<event>
 6    1  0.7457796E-006  0.1442686E+03  0.7546771E-02  0.1217902E+00
         -1   -1    0    0    0  501 -0.00000000000E+00  0.00000000000E+00  0.64149809433E+02  0.64149809433E+02  0.00000000000E+00 0.  1.
          1   -1    0    0  501    0  0.00000000000E+00 -0.00000000000E+00 -0.26440659246E+03  0.26440659246E+03  0.00000000000E+00 0. -1.
          5    1    1    2  502    0 -0.50593067441E+02 -0.63918111322E+02 -0.63748985285E+02  0.10359153707E+03  0.47000000000E+01 0.  1.
         -5    1    1    2    0  502  0.61937977589E+02 -0.72333612033E+01 -0.43615411011E+02  0.76243220418E+02  0.47000000000E+01 0.  1.
        -11    1    1    2    0    0  0.38895035795E+02  0.41527524542E+02 -0.36533008655E+02  0.67616712619E+02  0.00000000000E+00 0. -1.
         11    1    1    2    0    0 -0.50239945942E+02  0.29623947983E+02 -0.56359378072E+02  0.81104931780E+02  0.00000000000E+00 0.  1.
<mgrwt>
<rscale>  0 0.13665541E+03</rscale>
<asrwt>0</asrwt>
<pdfrwt beam="2">  1        1 0.40677938E-01 0.14426859E+03</pdfrwt>
<pdfrwt beam="1">  1       -1 0.98692013E-02 0.14426859E+03</pdfrwt>
<totfact> 0.61284801E+03</totfact>
</mgrwt>
</event>
<event>
 6    1  0.7457796E-006  0.3721672E+03  0.7546771E-02  0.1053867E+00
         -2   -1    0    0    0  501 -0.00000000000E+00  0.00000000000E+00  0.50136989684E+02  0.50136989684E+02  0.00000000000E+00 0.  1.
          2   -1    0    0  501    0  0.00000000000E+00 -0.00000000000E+00 -0.69064985351E+03  0.69064985351E+03  0.00000000000E+00 0. -1.
          5    1    1    2  502    0 -0.22777215124E+02 -0.11699385526E+02 -0.24707714102E+02  0.35892036535E+02  0.47000000000E+01 0.  1.
         -5    1    1    2    0  502  0.13953489320E+03  0.58022204523E+02 -0.14285584784E+03  0.20800587948E+03  0.47000000000E+01 0.  1.
        -11    1    1    2    0    0 -0.69008460982E+02 -0.66082899285E+02 -0.24092122039E+03  0.25917590880E+03  0.00000000000E+00 0.  1.
         11    1    1    2    0    0 -0.47749217092E+02  0.19760080288E+02 -0.23202808149E+03  0.23771301838E+03  0.00000000000E+00 0. -1.
<mgrwt>
<rscale>  0 0.37216719E+03</rscale>
<asrwt>0</asrwt>
<pdfrwt beam="2">  1        2 0.10625382E+00 0.37216719E+03</pdfrwt>
<pdfrwt beam="1">  1       -2 0.77133831E-02 0.37216719E+03</pdfrwt>
<totfact> 0.42906447E+03</totfact>
</mgrwt>
</event>
<event>
 6    1  0.7457796E-006  0.3523890E+03  0.7546771E-02  0.1061639E+00
         -1   -1    0    0    0  501 -0.00000000000E+00  0.00000000000E+00  0.79492858560E+02  0.79492858560E+02  0.00000000000E+00 0.  1.
          1   -1    0    0  501    0  0.00000000000E+00 -0.00000000000E+00 -0.39053199314E+03  0.39053199314E+03  0.00000000000E+00 0. -1.
          5    1    1    2  502    0 -0.94604443037E+01 -0.35587101165E+02 -0.79131159505E+02  0.87405790313E+02  0.47000000000E+01 0. -1.
         -5    1    1    2    0  502 -0.12555537234E+03  0.60703646468E+02 -0.11031717553E+03  0.17787932268E+03  0.47000000000E+01 0. -1.
        -11    1    1    2    0    0  0.71229369998E+02 -0.58054004023E+02 -0.56740903042E+02  0.10799731761E+03  0.00000000000E+00 0.  1.
         11    1    1    2    0    0  0.63786446650E+02  0.32937458719E+02 -0.64849896500E+02  0.96742421094E+02  0.00000000000E+00 0. -1.
<mgrwt>
<rscale>  0 0.35238902E+03</rscale>
<asrwt>0</asrwt>
<pdfrwt beam="2">  1        1 0.60081844E-01 0.35238902E+03</pdfrwt>
<pdfrwt beam="1">  1       -1 0.12229671E-01 0.35238902E+03</pdfrwt>
<totfact> 0.27872353E+03</totfact>
</mgrwt>
</event>
<event>
 6    1  0.7457796E-006  0.2035084E+03  0.7546771E-02  0.1150897E+00
         -3   -1    0    0    0  501 -0.00000000000E+00  0.00000000000E+00  0.16528685796E+03  0.16528685796E+03  0.00000000000E+00 0.  1.
          3   -1    0    0  501    0  0.00000000000E+00 -0.00000000000E+00 -0.24671255301E+03  0.24671255301E+03  0.00000000000E+00 0. -1.
          5    1    1    2  502    0 -0.17529221201E+02  0.80454105440E+02 -0.39242613392E+02  0.91335696110E+02  0.47000000000E+01 0. -1.
         -5    1    1    2    0  502  0.10959387695E+03  0.51127509797E+02 -0.60052510315E+02  0.13510453034E+03  0.47000000000E+01 0. -1.
        -11    1    1    2    0    0 -0.30615557373E+02 -0.11188226554E+03  0.30199465348E+02  0.11986226013E+03  0.00000000000E+00 0. -1.
         11    1    1    2    0    0 -0.61449098380E+02 -0.19699349693E+02 -0.12330036689E+02  0.65696924393E+02  0.00000000000E+00 0.  1.
<mgrwt>
<rscale>  0 0.19863305E+03</rscale>
<asrwt>0</asrwt>
<pdfrwt beam="2">  1        3 0.37955777E-01 0.20350836E+03</pdfrwt>
<pdfrwt beam="1">  1       -3 0.25428747E-01 0.20350836E+03</pdfrwt>
<totfact> 0.24498041E+02</totfact>
</mgrwt>
</event>
<event>
 6    1  0.7457796E-006  0.1290426E+03  0.7546771E-02  0.1246402E+00
         -1   -1    0    0    0  501 -0.00000000000E+00  0.00000000000E+00  0.72596717036E+03  0.72596717036E+03  0.00000000000E+00 0.  1.
          1   -1    0    0  501    0  0.00000000000E+00 -0.00000000000E+00 -0.18006965699E+02  0.18006965699E+02  0.00000000000E+00 0. -1.
          5    1    1    2  502    0 -0.56268690819E+02  0.28235516103E+02  0.20832921303E+03  0.21768454455E+03  0.47000000000E+01 0.  1.
         -5    1    1    2    0  502  0.63531003012E+02  0.32091990022E+01  0.30692948710E+03  0.31348730015E+03  0.47000000000E+01 0.  1.
        -11    1    1    2    0    0 -0.36823228839E+02 -0.11432309789E+02  0.38369365981E+02  0.54395368691E+02  0.00000000000E+00 0. -1.
         11    1    1    2    0    0  0.29560916647E+02 -0.20012405317E+02  0.15433213856E+03  0.15840692268E+03  0.00000000000E+00 0.  1.
<mgrwt>
<rscale>  0 0.11801872E+03</rscale>
<asrwt>0</asrwt>
<pdfrwt beam="2">  1        1 0.27703030E-02 0.12904263E+03</pdfrwt>
<pdfrwt beam="1">  1       -1 0.11168723E+00 0.12904263E+03</pdfrwt>
<totfact> 0.28708088E+03</totfact>
</mgrwt>
</event>
<event>
 6    1  0.7457796E-006  0.1251741E+03  0.7546771E-02  0.1252833E+00
          2   -1    0    0  501    0  0.00000000000E+00  0.00000000000E+00  0.38019076607E+02  0.38019076607E+02  0.00000000000E+00 0. -1.
         -2   -1    0    0    0  501 -0.00000000000E+00 -0.00000000000E+00 -0.36693925891E+03  0.36693925891E+03  0.00000000000E+00 0.  1.
          5    1    1    2  502    0 -0.56961952816E+02  0.16966168142E+02 -0.11216310955E+03  0.12702428144E+03  0.47000000000E+01 0. -1.
         -5    1    1    2    0  502  0.59632397071E+02 -0.23789320881E+02 -0.16405496395E+03  0.17623301553E+03  0.47000000000E+01 0. -1.
        -11    1    1    2    0    0  0.34909164666E+02  0.25614094406E+02 -0.36637159320E+02  0.56718718717E+02  0.00000000000E+00 0.  1.
         11    1    1    2    0    0 -0.37579608922E+02 -0.18790941666E+02 -0.16064949486E+02  0.44982319831E+02  0.00000000000E+00 0. -1.
<mgrwt>
<rscale>  0 0.11428554E+03</rscale>
<asrwt>0</asrwt>
<pdfrwt beam="1">  1        2 0.58490887E-02 0.12517413E+03</pdfrwt>
<pdfrwt beam="2">  1       -2 0.56452194E-01 0.12517413E+03</pdfrwt>
<totfact> 0.36341194E+03</totfact>
</mgrwt>
</event>
<event>
 6    1  0.7457796E-006  0.2701637E+03  0.7546771E-02  0.1101186E+00
          2   -1    0    0  501    0  0.00000000000E+00  0.00000000000E+00  0.40252756425E+03  0.40252756425E+03  0.00000000000E+00 0. -1.
         -2   -1    0    0    0  501 -0.00000000000E+00 -0.00000000000E+00 -0.45331324278E+02  0.45331324278E+02  0.00000000000E+00 0.  1.
          5    1    1    2  502    0 -0.76126536147E+02  0.99951381709E+01  0.13178072234E+02  0.78044243097E+02  0.47000000000E+01 0.  1.
         -5    1    1    2    0  502  0.13777179765E+02 -0.13848795929E+02  0.99381237648E+02  0.10139191401E+03  0.47000000000E+01 0.  1.
        -11    1    1    2    0    0  0.39383880055E+02 -0.36679226961E+02  0.18544541791E+03  0.19309701894E+03  0.00000000000E+00 0.  1.
         11    1    1    2    0    0  0.22965476327E+02  0.40532884719E+02  0.59191512179E+02  0.75325712480E+02  0.00000000000E+00 0. -1.
<mgrwt>
<rscale>  0 0.27016371E+03</rscale>
<asrwt>0</asrwt>
<pdfrwt beam="1">  1        2 0.61927315E-01 0.27016371E+03</pdfrwt>
<pdfrwt beam="2">  1       -2 0.69740502E-02 0.27016371E+03</pdfrwt>
<totfact> 0.92209652E+03</totfact>
</mgrwt>
</event>
<event>
 6    1  0.7457796E-006  0.1469068E+03  0.7546771E-02  0.1214010E+00
         -1   -1    0    0    0  501 -0.00000000000E+00  0.00000000000E+00  0.77816504119E+02  0.77816504119E+02  0.00000000000E+00 0.  1.
          1   -1    0    0  501    0  0.00000000000E+00 -0.00000000000E+00 -0.24702877584E+03  0.24702877584E+03  0.00000000000E+00 0. -1.
          5    1    1    2  502    0 -0.29123014413E+02 -0.55706321840E+01  0.40116539141E+02  0.50105973936E+02  0.47000000000E+01 0. -1.
         -5    1    1    2    0  502 -0.23183467188E+02 -0.51192050488E+02 -0.87790968344E+02  0.10434291211E+03  0.47000000000E+01 0. -1.
        -11    1    1    2    0    0 -0.16298474619E+02  0.45776250700E+02 -0.37640432832E+02  0.61464685689E+02  0.00000000000E+00 0. -1.
         11    1    1    2    0    0  0.68604956221E+02  0.10986431972E+02 -0.83897409685E+02  0.10893170823E+03  0.00000000000E+00 0.  1.
<mgrwt>
<rscale>  0 0.13949531E+03</rscale>
<asrwt>0</asrwt>
<pdfrwt beam="2">  1        1 0.38004426E-01 0.14690680E+03</pdfrwt>
<pdfrwt beam="1">  1       -1 0.11971770E-01 0.14690680E+03</pdfrwt>
<totfact> 0.49605547E+03</totfact>
</mgrwt>
</event>
<event>
 6    1  0.7457796E-006  0.1266506E+03  0.7546771E-02  0.1251027E+00
         -1   -1    0    0    0  501 -0.00000000000E+00  0.00000000000E+00  0.30871094204E+03  0.30871094204E+03  0.00000000000E+00 0.  1.
          1   -1    0    0  501    0  0.00000000000E+00 -0.00000000000E+00 -0.39138323433E+02  0.39138323433E+02  0.00000000000E+00 0. -1.
          5    1    1    2  502    0  0.57429412093E+02  0.63903421623E+01  0.12362451051E+03  0.13654333908E+03  0.47000000000E+01 0.  1.
         -5    1    1    2    0  502 -0.63114408878E+02  0.13182456552E+02  0.74912114178E+02  0.98950091558E+02  0.47000000000E+01 0.  1.
        -11    1    1    2    0    0  0.24422439806E+02 -0.26974015469E+02 -0.21466783877E+01  0.36450806640E+02  0.00000000000E+00 0. -1.
         11    1    1    2    0    0 -0.18737443021E+02  0.74012167549E+01  0.73182672303E+02  0.75905028198E+02  0.00000000000E+00 0.  1.
<mgrwt>
<rscale>  0 0.11531815E+03</rscale>
<asrwt>0</asrwt>
<pdfrwt beam="2">  1        1 0.60212808E-02 0.12665056E+03</pdfrwt>
<pdfrwt beam="1">  1       -1 0.47493989E-01 0.12665056E+03</pdfrwt>
<totfact> 0.55050773E+03</totfact>
</mgrwt>
</event>
<event>
 6    1  0.7457796E-006  0.1774167E+03  0.7546771E-02  0.1185885E+00
          1   -1    0    0  501    0  0.00000000000E+00  0.00000000000E+00  0.54606260230E+03  0.54606260230E+03  0.00000000000E+00 0. -1.
         -1   -1    0    0    0  501 -0.00000000000E+00 -0.00000000000E+00 -0.72455666972E+02  0.72455666972E+02  0.00000000000E+00 0.  1.
          5    1    1    2  502    0  0.32599411702E+02 -0.93970398479E+02  0.78215480546E+02  0.12662112316E+03  0.47000000000E+01 0. -1.
         -5    1    1    2    0  502  0.37904072103E+02  0.44576605316E+02 -0.16910306415E+02  0.61088795098E+02  0.47000000000E+01 0.  1.
        -11    1    1    2    0    0 -0.51787382328E+02 -0.13739551498E+02  0.24960962303E+03  0.25529526465E+03  0.00000000000E+00 0.  1.
         11    1    1    2    0    0 -0.18716101477E+02  0.63133344661E+02  0.16269213816E+03  0.17551308636E+03  0.00000000000E+00 0. -1.
<mgrwt>
<rscale>  0 0.16251641E+03</rscale>
<asrwt>0</asrwt>
<pdfrwt beam="1">  1        1 0.84009628E-01 0.17741671E+03</pdfrwt>
<pdfrwt beam="2">  1       -1 0.11147026E-01 0.17741671E+03</pdfrwt>
<totfact> 0.20400970E+03</totfact>
</mgrwt>
</event>
<event>
 6    1  0.7457796E-006  0.1779402E+03  0.7546771E-02  0.1185106E+00
          1   -1    0    0  501    0  0.00000000000E+00  0.00000000000E+00  0.46771477788E+03  0.46771477788E+03  0.00000000000E+00 0. -1.
         -1   -1    0    0    0  501 -0.00000000000E+00 -0.00000000000E+00 -0.67897576100E+02  0.67897576100E+02  0.00000000000E+00 0.  1.
          5    1    1    2  502    0  0.52906213063E+02 -0.36457539659E+02  0.11464233674E+03  0.13150351688E+03  0.47000000000E+01 0. -1.
         -5    1    1    2    0  502 -0.35895540492E+02 -0.47791944723E+02 -0.28276381995E+02  0.66288789296E+02  0.47000000000E+01 0.  1.
        -11    1    1    2    0    0 -0.11966881571E+02 -0.10668132969E+02  0.79914998034E+01  0.17913106506E+02  0.00000000000E+00 0.  1.
         11    1    1    2    0    0 -0.50437910003E+01  0.94917617351E+02  0.30545974723E+03  0.31990694130E+03  0.00000000000E+00 0. -1.
<mgrwt>
<rscale>  0 0.16322252E+03</rscale>
<asrwt>0</asrwt>
<pdfrwt beam="1">  1        1 0.71956118E-01 0.17794021E+03</pdfrwt>
<pdfrwt beam="2">  1       -1 0.10445781E-01 0.17794021E+03</pdfrwt>
<totfact> 0.27669873E+03</totfact>
</mgrwt>
</event>
<event>
 6    1  0.7457796E-006  0.1443173E+03  0.7546771E-02  0.1219011E+00
         -2   -1    0    0    0  501 -0.00000000000E+00  0.00000000000E+00  0.90440919549E+02  0.90440919549E+02  0.00000000000E+00 0.  1.
          2   -1    0    0  501    0  0.00000000000E+00 -0.00000000000E+00 -0.18416336080E+03  0.18416336080E+03  0.00000000000E+00 0. -1.
          5    1    1    2  502    0  0.28706901320E+02  0.40346396647E+02 -0.81016445814E+02  0.95066673435E+02  0.47000000000E+01 0.  1.
         -5    1    1    2    0  502 -0.50194454816E+02  0.28497894112E+02  0.20489891836E+02  0.61429137472E+02  0.47000000000E+01 0.  1.
        -11    1    1    2    0    0 -0.24045869940E+02 -0.57751411710E+02 -0.35589606305E+01  0.62658563792E+02  0.00000000000E+00 0. -1.
         11    1    1    2    0    0  0.45533423436E+02 -0.11092879049E+02 -0.29636926638E+02  0.55449905645E+02  0.00000000000E+00 0.  1.
<mgrwt>
<rscale>  0 0.13586002E+03</rscale>
<asrwt>0</asrwt>
<pdfrwt beam="2">  1        2 0.28332824E-01 0.14431727E+03</pdfrwt>
<pdfrwt beam="1">  1       -2 0.13913988E-01 0.14431727E+03</pdfrwt>
<totfact> 0.69109150E+03</totfact>
</mgrwt>
</event>
<event>
 6    1  0.7457796E-006  0.1541868E+03  0.7546771E-02  0.1209297E+00
          2   -1    0    0  501    0  0.00000000000E+00  0.00000000000E+00  0.66834937865E+03  0.66834937865E+03  0.00000000000E+00 0. -1.
         -2   -1    0    0    0  501 -0.00000000000E+00 -0.00000000000E+00 -0.28494264616E+02  0.28494264616E+02  0.00000000000E+00 0.  1.
          5    1    1    2  502    0  0.31795141734E+01 -0.56196174728E+02  0.12556178279E+03  0.13768068369E+03  0.47000000000E+01 0. -1.
         -5    1    1    2    0  502  0.67919523567E+02  0.68326625865E+02  0.15903261420E+03  0.18599745123E+03  0.47000000000E+01 0.  1.
        -11    1    1    2    0    0 -0.56780842298E+02  0.25575689214E+02  0.12790422290E+03  0.14225916549E+03  0.00000000000E+00 0. -1.
         11    1    1    2    0    0 -0.14318195442E+02 -0.37706140352E+02  0.22735649414E+03  0.23090634285E+03  0.00000000000E+00 0.  1.
<mgrwt>
<rscale>  0 0.14303908E+03</rscale>
<asrwt>0</asrwt>
<pdfrwt beam="1">  1        2 0.10282297E+00 0.15418678E+03</pdfrwt>
<pdfrwt beam="2">  1       -2 0.43837335E-02 0.15418678E+03</pdfrwt>
<totfact> 0.10236014E+04</totfact>
</mgrwt>
</event>
<event>
 6    1  0.7457796E-006  0.1452527E+03  0.7546771E-02  0.1216985E+00
         -2   -1    0    0    0  501 -0.00000000000E+00  0.00000000000E+00  0.36533372496E+02  0.36533372496E+02  0.00000000000E+00 0.  1.
          2   -1    0    0  501    0  0.00000000000E+00 -0.00000000000E+00 -0.57398871099E+03  0.57398871099E+03  0.00000000000E+00 0. -1.
          5    1    1    2  502    0 -0.84938170163E+02  0.44164419825E+02 -0.16877723416E+03  0.19409490848E+03  0.47000000000E+01 0. -1.
         -5    1    1    2    0  502  0.17674911124E+02 -0.13374881317E+02  0.66199446138E+01  0.23605160456E+02  0.47000000000E+01 0. -1.
        -11    1    1    2    0    0  0.15216329267E+02  0.16494104665E+02 -0.18277037156E+02  0.28942049897E+02  0.00000000000E+00 0.  1.
         11    1    1    2    0    0  0.52046929772E+02 -0.47283643173E+02 -0.35702101180E+03  0.36387996465E+03  0.00000000000E+00 0. -1.
<mgrwt>
<rscale>  0 0.13731745E+03</rscale>
<asrwt>0</asrwt>
<pdfrwt beam="2">  1        2 0.88305952E-01 0.14525265E+03</pdfrwt>
<pdfrwt beam="1">  1       -2 0.56205190E-02 0.14525265E+03</pdfrwt>
<totfact> 0.83611746E+03</totfact>
</mgrwt>
</event>
<event>
 6    1  0.7457796E-006  0.2890600E+03  0.7546771E-02  0.1090841E+00
          1   -1    0    0  501    0  0.00000000000E+00  0.00000000000E+00  0.15809412544E+03  0.15809412544E+03  0.00000000000E+00 0. -1.
         -1   -1    0    0    0  501 -0.00000000000E+00 -0.00000000000E+00 -0.13212961242E+03  0.13212961242E+03  0.00000000000E+00 0.  1.
          5    1    1    2  502    0  0.51354940836E+00 -0.33597224826E+02 -0.28360531938E+02  0.44220436687E+02  0.47000000000E+01 0. -1.
         -5    1    1    2    0  502  0.27724513617E+02  0.87320709392E+02 -0.41638835895E+02  0.10074441721E+03  0.47000000000E+01 0.  1.
        -11    1    1    2    0    0  0.60692747030E+01 -0.55032228843E+02  0.96121001182E+02  0.11092623303E+03  0.00000000000E+00 0. -1.
         11    1    1    2    0    0 -0.34307337728E+02  0.13087442767E+01 -0.15712033086E+00  0.34332650937E+02  0.00000000000E+00 0.  1.
<mgrwt>
<rscale>  0 0.28905996E+03</rscale>
<asrwt>0</asrwt>
<pdfrwt beam="1">  1        1 0.24322173E-01 0.28905996E+03</pdfrwt>
<pdfrwt beam="2">  1       -1 0.20327633E-01 0.28905996E+03</pdfrwt>
<totfact> 0.38770007E+03</totfact>
</mgrwt>
</event>
<event>
 6    1  0.7457796E-006  0.4142958E+03  0.7546771E-02  0.1039688E+00
          2   -1    0    0  501    0  0.00000000000E+00  0.00000000000E+00  0.28834068082E+03  0.28834068082E+03  0.00000000000E+00 0. -1.
         -2   -1    0    0    0  501 -0.00000000000E+00 -0.00000000000E+00 -0.77330225441E+03  0.77330225441E+03  0.00000000000E+00 0.  1.
          5    1    1    2  502    0 -0.23824930284E+03 -0.85288215826E+01 -0.39697895824E+03  0.46308730752E+03  0.47000000000E+01 0. -1.
         -5    1    1    2    0  502 -0.15551636419E+03 -0.22528350473E+02 -0.11116160557E+03  0.19254053771E+03  0.47000000000E+01 0. -1.
        -11    1    1    2    0    0  0.22050309051E+03 -0.17439522195E+02  0.41888764014E+02  0.22512311833E+03  0.00000000000E+00 0.  1.
         11    1    1    2    0    0  0.17326257653E+03  0.48496694251E+02 -0.18709773799E+02  0.18089197167E+03  0.00000000000E+00 0. -1.
<mgrwt>
<rscale>  0 0.41204178E+03</rscale>
<asrwt>0</asrwt>
<pdfrwt beam="1">  1        2 0.44360106E-01 0.41429583E+03</pdfrwt>
<pdfrwt beam="2">  1       -2 0.11896958E+00 0.41429583E+03</pdfrwt>
<totfact> 0.64344283E+01</totfact>
</mgrwt>
</event>
<event>
 6    1  0.7457796E-006  0.2558256E+03  0.7546771E-02  0.1112004E+00
          1   -1    0    0  501    0  0.00000000000E+00  0.00000000000E+00  0.32233150913E+03  0.32233150913E+03  0.00000000000E+00 0. -1.
         -1   -1    0    0    0  501 -0.00000000000E+00 -0.00000000000E+00 -0.27523381930E+03  0.27523381930E+03  0.00000000000E+00 0.  1.
          5    1    1    2  502    0  0.37236126764E+02 -0.92571299393E+02 -0.11651940081E+03  0.15347584622E+03  0.47000000000E+01 0.  1.
         -5    1    1    2    0  502 -0.38848116439E+02 -0.13061634405E+03 -0.24151471008E+02  0.13847450681E+03  0.47000000000E+01 0.  1.
        -11    1    1    2    0    0 -0.23001195042E+02  0.14879314745E+03  0.16637635277E+03  0.22438704611E+03  0.00000000000E+00 0. -1.
         11    1    1    2    0    0  0.24613184717E+02  0.74394495990E+02  0.21392208877E+02  0.81227929286E+02  0.00000000000E+00 0.  1.
<mgrwt>
<rscale>  0 0.25206966E+03</rscale>
<asrwt>0</asrwt>
<pdfrwt beam="1">  1        1 0.49589463E-01 0.25582555E+03</pdfrwt>
<pdfrwt beam="2">  1       -1 0.42343665E-01 0.25582555E+03</pdfrwt>
<totfact> 0.44829673E+02</totfact>
</mgrwt>
</event>
<event>
 6    1  0.7457796E-006  0.2477510E+03  0.7546771E-02  0.1114734E+00
          1   -1    0    0  501    0  0.00000000000E+00  0.00000000000E+00  0.11532351683E+03  0.11532351683E+03  0.00000000000E+00 0. -1.
         -1   -1    0    0    0  501 -0.00000000000E+00 -0.00000000000E+00 -0.13306165812E+03  0.13306165812E+03  0.00000000000E+00 0.  1.
          5    1    1    2  502    0  0.57815699914E+01 -0.33988689212E+02 -0.33202960510E+02  0.48095572900E+02  0.47000000000E+01 0.  1.
         -5    1    1    2    0  502  0.78129543383E+01  0.88994434861E+02  0.13820195699E+02  0.90521486405E+02  0.47000000000E+01 0.  1.
        -11    1    1    2    0    0  0.38589553080E+02 -0.25304423243E+02 -0.13041580994E+02  0.47953626322E+02  0.00000000000E+00 0.  1.
         11    1    1    2    0    0 -0.52184077410E+02 -0.29701322406E+02  0.14686204511E+02  0.61814489326E+02  0.00000000000E+00 0. -1.
<mgrwt>
<rscale>  0 0.24775099E+03</rscale>
<asrwt>0</asrwt>
<pdfrwt beam="1">  1        1 0.17742080E-01 0.24775099E+03</pdfrwt>
<pdfrwt beam="2">  1       -1 0.20471024E-01 0.24775099E+03</pdfrwt>
<totfact> 0.57203813E+03</totfact>
</mgrwt>
</event>
<event>
 6    1  0.7457796E-006  0.2215291E+03  0.7546771E-02  0.1132748E+00
         -4   -1    0    0    0  501 -0.00000000000E+00  0.00000000000E+00  0.16693144807E+03  0.16693144807E+03  0.00000000000E+00 0.  1.
          4   -1    0    0  501    0  0.00000000000E+00 -0.00000000000E+00 -0.73495951115E+02  0.73495951115E+02  0.00000000000E+00 0. -1.
          5    1    1    2  502    0  0.18058582465E+02  0.11128382976E+02  0.86543269596E+02  0.89228811606E+02  0.47000000000E+01 0.  1.
         -5    1    1    2    0  502 -0.24373198886E+02 -0.33815736482E+02 -0.28370354812E+02  0.50641128443E+02  0.47000000000E+01 0.  1.
        -11    1    1    2    0    0  0.46751642445E+02  0.25952183030E+01  0.28726506496E+02  0.54933263191E+02  0.00000000000E+00 0.  1.
         11    1    1    2    0    0 -0.40437026023E+02  0.20092135203E+02  0.65360756794E+01  0.45624195948E+02  0.00000000000E+00 0. -1.
<mgrwt>
<rscale>  0 0.22152910E+03</rscale>
<asrwt>0</asrwt>
<pdfrwt beam="2">  1        4 0.11307069E-01 0.22152910E+03</pdfrwt>
<pdfrwt beam="1">  1       -4 0.25681761E-01 0.22152910E+03</pdfrwt>
<totfact> 0.15920400E+03</totfact>
</mgrwt>
</event>
<event>
 6    1  0.7457796E-006  0.1931722E+03  0.7546771E-02  0.1160752E+00
         -2   -1    0    0    0  501 -0.00000000000E+00  0.00000000000E+00  0.27357471476E+02  0.27357471476E+02  0.00000000000E+00 0.  1.
          2   -1    0    0  501    0  0.00000000000E+00 -0.00000000000E+00 -0.12270783185E+04  0.12270783185E+04  0.00000000000E+00 0. -1.
          5    1    1    2  502    0  0.37888803262E+02 -0.27346611429E+02 -0.35223627362E+03  0.35535317787E+03  0.47000000000E+01 0.  1.
         -5    1    1    2    0  502  0.10891775689E+03  0.38955379148E+02 -0.21988587066E+03  0.24850047373E+03  0.47000000000E+01 0.  1.
        -11    1    1    2    0    0 -0.35483319833E+02 -0.40777110187E+02 -0.25276585074E+03  0.25848097416E+03  0.00000000000E+00 0. -1.
         11    1    1    2    0    0 -0.11132324031E+03  0.29168342469E+02 -0.37483285203E+03  0.39210116424E+03  0.00000000000E+00 0.  1.
<mgrwt>
<rscale>  0 0.18748189E+03</rscale>
<asrwt>0</asrwt>
<pdfrwt beam="2">  1        2 0.18878126E+00 0.19317216E+03</pdfrwt>
<pdfrwt beam="1">  1       -2 0.42088423E-02 0.19317216E+03</pdfrwt>
<totfact> 0.48646203E+03</totfact>
</mgrwt>
</event>
<event>
 6    1  0.7457796E-006  0.2339173E+03  0.7546771E-02  0.1126839E+00
          1   -1    0    0  501    0  0.00000000000E+00  0.00000000000E+00  0.44261778482E+02  0.44261778482E+02  0.00000000000E+00 0. -1.
         -1   -1    0    0    0  501 -0.00000000000E+00 -0.00000000000E+00 -0.11548693306E+04  0.11548693306E+04  0.00000000000E+00 0.  1.
          5    1    1    2  502    0 -0.71775934924E+02 -0.58668567177E+02 -0.20162995372E+03  0.22196962370E+03  0.47000000000E+01 0. -1.
         -5    1    1    2    0  502 -0.12593700250E+03  0.58510429245E+02 -0.40702478577E+03  0.43008704370E+03  0.47000000000E+01 0. -1.
        -11    1    1    2    0    0  0.95641367542E+02 -0.16141160425E+02 -0.13764285169E+03  0.16838456837E+03  0.00000000000E+00 0.  1.
         11    1    1    2    0    0  0.10207156988E+03  0.16299298357E+02 -0.36430996091E+03  0.37868987328E+03  0.00000000000E+00 0. -1.
<mgrwt>
<rscale>  0 0.22971704E+03</rscale>
<asrwt>0</asrwt>
<pdfrwt beam="1">  1        1 0.68095033E-02 0.23391731E+03</pdfrwt>
<pdfrwt beam="2">  1       -1 0.17767223E+00 0.23391731E+03</pdfrwt>
<totfact> 0.25820131E+02</totfact>
</mgrwt>
</event>
<event>
 6    1  0.7457796E-006  0.1883873E+03  0.7546771E-02  0.1164780E+00
          2   -1    0    0  501    0  0.00000000000E+00  0.00000000000E+00  0.35221799023E+02  0.35221799023E+02  0.00000000000E+00 0.  1.
         -2   -1    0    0    0  501 -0.00000000000E+00 -0.00000000000E+00 -0.90739459418E+03  0.90739459418E+03  0.00000000000E+00 0. -1.
          5    1    1    2  502    0 -0.80872789262E+02 -0.93308633679E+02 -0.26673986660E+03  0.29397135166E+03  0.47000000000E+01 0. -1.
         -5    1    1    2    0  502 -0.49824949422E+02  0.40549944823E+02 -0.16170460569E+03  0.17406117634E+03  0.47000000000E+01 0. -1.
        -11    1    1    2    0    0  0.23116149839E+02  0.56039104384E+02 -0.15295505570E+03  0.16452959207E+03  0.00000000000E+00 0.  1.
         11    1    1    2    0    0  0.10758158885E+03 -0.32804155276E+01 -0.29077326717E+03  0.31005427313E+03  0.00000000000E+00 0. -1.
<mgrwt>
<rscale>  0 0.18315939E+03</rscale>
<asrwt>0</asrwt>
<pdfrwt beam="1">  1        2 0.54187386E-02 0.18838732E+03</pdfrwt>
<pdfrwt beam="2">  1       -2 0.13959916E+00 0.18838732E+03</pdfrwt>
<totfact> 0.53341730E+02</totfact>
</mgrwt>
</event>
<event>
 6    1  0.7457796E-006  0.2342076E+03  0.7546771E-02  0.1126570E+00
         -2   -1    0    0    0  501 -0.00000000000E+00  0.00000000000E+00  0.42004906506E+02  0.42004906506E+02  0.00000000000E+00 0.  1.
          2   -1    0    0  501    0  0.00000000000E+00 -0.00000000000E+00 -0.12181808752E+04  0.12181808752E+04  0.00000000000E+00 0. -1.
          5    1    1    2  502    0 -0.11154220839E+03  0.13827739956E+03 -0.37074089387E+03  0.41113647840E+03  0.47000000000E+01 0. -1.
         -5    1    1    2    0  502  0.14130126089E+02  0.34172698971E+02 -0.24173274641E+03  0.24458995176E+03  0.47000000000E+01 0. -1.
        -11    1    1    2    0    0  0.86699506891E+02 -0.14011474156E+03 -0.53537386027E+03  0.56015543875E+03  0.00000000000E+00 0. -1.
         11    1    1    2    0    0  0.10712575411E+02 -0.32335356973E+02 -0.28328468180E+02  0.44303912829E+02  0.00000000000E+00 0.  1.
<mgrwt>
<rscale>  0 0.23009855E+03</rscale>
<asrwt>0</asrwt>
<pdfrwt beam="2">  1        2 0.18741242E+00 0.23420758E+03</pdfrwt>
<pdfrwt beam="1">  1       -2 0.64622940E-02 0.23420758E+03</pdfrwt>
<totfact> 0.25703748E+03</totfact>
</mgrwt>
</event>
<event>
 6    1  0.7457796E-006  0.1902657E+03  0.7546771E-02  0.1162866E+00
         -1   -1    0    0    0  501 -0.00000000000E+00  0.00000000000E+00  0.55248276176E+02  0.55248276176E+02  0.00000000000E+00 0.  1.
          1   -1    0    0  501    0  0.00000000000E+00 -0.00000000000E+00 -0.62506815324E+03  0.62506815324E+03  0.00000000000E+00 0. -1.
          5    1    1    2  502    0 -0.58436354081E+02 -0.35943381041E+02 -0.14113526102E+03  0.15699677074E+03  0.47000000000E+01 0.  1.
         -5    1    1    2    0  502 -0.80462820356E+02  0.71767121624E+02 -0.77676670264E+02  0.13296819285E+03  0.47000000000E+01 0.  1.
        -11    1    1    2    0    0  0.14362558322E+03 -0.17341287570E+02 -0.26166356435E+03  0.29899305898E+03  0.00000000000E+00 0.  1.
         11    1    1    2    0    0 -0.47264087802E+01 -0.18482453013E+02 -0.89344381424E+02  0.91358406846E+02  0.00000000000E+00 0. -1.
<mgrwt>
<rscale>  0 0.18519662E+03</rscale>
<asrwt>0</asrwt>
<pdfrwt beam="2">  1        1 0.96164330E-01 0.19026565E+03</pdfrwt>
<pdfrwt beam="1">  1       -1 0.84997349E-02 0.19026565E+03</pdfrwt>
<totfact> 0.25764576E+03</totfact>
</mgrwt>
</event>
<event>
 6    1  0.7457796E-006  0.1988714E+03  0.7546771E-02  0.1155272E+00
         -4   -1    0    0    0  501 -0.00000000000E+00  0.00000000000E+00  0.74210248620E+02  0.74210248620E+02  0.00000000000E+00 0.  1.
          4   -1    0    0  501    0  0.00000000000E+00 -0.00000000000E+00 -0.53906332088E+03  0.53906332088E+03  0.00000000000E+00 0. -1.
          5    1    1    2  502    0  0.11752682701E+02  0.60888823922E+02 -0.58860157457E+02  0.85628164556E+02  0.47000000000E+01 0. -1.
         -5    1    1    2    0  502 -0.11220298298E+03  0.56743888851E+02 -0.28623081485E+03  0.31266523261E+03  0.47000000000E+01 0. -1.
        -11    1    1    2    0    0  0.87390087754E+02 -0.34215972758E+02 -0.68701609716E+02  0.11630851821E+03  0.00000000000E+00 0. -1.
         11    1    1    2    0    0  0.13060212526E+02 -0.83416740015E+02 -0.51060490236E+02  0.98671654132E+02  0.00000000000E+00 0.  1.
<mgrwt>
<rscale>  0 0.19357892E+03</rscale>
<asrwt>0</asrwt>
<pdfrwt beam="2">  1        4 0.82932819E-01 0.19887144E+03</pdfrwt>
<pdfrwt beam="1">  1       -4 0.11416961E-01 0.19887144E+03</pdfrwt>
<totfact> 0.14100705E+02</totfact>
</mgrwt>
</event>
<event>
 6    1  0.7457796E-006  0.1376616E+03  0.7546771E-02  0.1227770E+00
         -2   -1    0    0    0  501 -0.00000000000E+00  0.00000000000E+00  0.13433724418E+03  0.13433724418E+03  0.00000000000E+00 0.  1.
          2   -1    0    0  501    0  0.00000000000E+00 -0.00000000000E+00 -0.13068174410E+03  0.13068174410E+03  0.00000000000E+00 0. -1.
          5    1    1    2  502    0 -0.74167793449E+01 -0.33437718352E+02  0.58094653620E+02  0.67603020670E+02  0.47000000000E+01 0.  1.
         -5    1    1    2    0  502  0.63732615890E+02  0.45826763986E+02 -0.76504950935E+01  0.79009864579E+02  0.47000000000E+01 0.  1.
        -11    1    1    2    0    0  0.21995074990E+01  0.33333089303E+02 -0.68990407575E+01  0.34110547329E+02  0.00000000000E+00 0.  1.
         11    1    1    2    0    0 -0.58515344044E+02 -0.45722134936E+02 -0.39889617691E+02  0.84295555703E+02  0.00000000000E+00 0. -1.
<mgrwt>
<rscale>  0 0.12978861E+03</rscale>
<asrwt>0</asrwt>
<pdfrwt beam="2">  1        2 0.20104884E-01 0.13766163E+03</pdfrwt>
<pdfrwt beam="1">  1       -2 0.20667269E-01 0.13766163E+03</pdfrwt>
<totfact> 0.52289207E+03</totfact>
</mgrwt>
</event>
<event>
 6    1  0.7457796E-006  0.1384133E+03  0.7546771E-02  0.1222722E+00
          1   -1    0    0  501    0  0.00000000000E+00  0.00000000000E+00  0.11716798474E+03  0.11716798474E+03  0.00000000000E+00 0. -1.
         -1   -1    0    0    0  501 -0.00000000000E+00 -0.00000000000E+00 -0.17968095976E+03  0.17968095976E+03  0.00000000000E+00 0.  1.
          5    1    1    2  502    0 -0.35426926451E+02 -0.57062534052E+02 -0.91954064329E+02  0.11396859154E+03  0.47000000000E+01 0. -1.
         -5    1    1    2    0  502 -0.38908414953E+02  0.41295364071E+02 -0.96749122875E+01  0.57748296734E+02  0.47000000000E+01 0.  1.
        -11    1    1    2    0    0 -0.11799377260E+02  0.59254382556E+01 -0.17250759073E+02  0.21723830483E+02  0.00000000000E+00 0.  1.
         11    1    1    2    0    0  0.86134718664E+02  0.98417317259E+01  0.56366760675E+02  0.10340822574E+03  0.00000000000E+00 0. -1.
<mgrwt>
<rscale>  0 0.13324267E+03</rscale>
<asrwt>0</asrwt>
<pdfrwt beam="1">  1        1 0.18025844E-01 0.13841330E+03</pdfrwt>
<pdfrwt beam="2">  1       -1 0.27643225E-01 0.13841330E+03</pdfrwt>
<totfact> 0.33144199E+03</totfact>
</mgrwt>
</event>
<event>
 6    1  0.7457796E-006  0.1468767E+03  0.7546771E-02  0.1213974E+00
         -2   -1    0    0    0  501 -0.00000000000E+00  0.00000000000E+00  0.38251609672E+02  0.38251609672E+02  0.00000000000E+00 0.  1.
          2   -1    0    0  501    0  0.00000000000E+00 -0.00000000000E+00 -0.63693882749E+03  0.63693882749E+03  0.00000000000E+00 0. -1.
          5    1    1    2  502    0 -0.52024694386E+01 -0.66670606733E+02 -0.14200299146E+03  0.15703176454E+03  0.47000000000E+01 0. -1.
         -5    1    1    2    0  502 -0.48467368702E+02  0.12199309185E+02 -0.44703952641E+01  0.50398248058E+02  0.47000000000E+01 0.  1.
        -11    1    1    2    0    0  0.47527933512E+02 -0.10378393312E+02 -0.12514516506E+03  0.13426811926E+03  0.00000000000E+00 0. -1.
         11    1    1    2    0    0  0.61419046280E+01  0.64849690861E+02 -0.32706866604E+03  0.33349230531E+03  0.00000000000E+00 0.  1.
<mgrwt>
<rscale>  0 0.13952145E+03</rscale>
<asrwt>0</asrwt>
<pdfrwt beam="2">  1        2 0.97990589E-01 0.14687667E+03</pdfrwt>
<pdfrwt beam="1">  1       -2 0.58848630E-02 0.14687667E+03</pdfrwt>
<totfact> 0.69281126E+03</totfact>
</mgrwt>
</event>
<event>
 6    1  0.7457796E-006  0.1546050E+03  0.7546771E-02  0.1205043E+00
          1   -1    0    0  501    0  0.00000000000E+00  0.00000000000E+00  0.25964862340E+03  0.25964862340E+03  0.00000000000E+00 0. -1.
         -1   -1    0    0    0  501 -0.00000000000E+00 -0.00000000000E+00 -0.78481957997E+02  0.78481957997E+02  0.00000000000E+00 0.  1.
          5    1    1    2  502    0 -0.10269098756E+03 -0.20112884666E+02  0.60528670840E+02  0.12097841564E+03  0.47000000000E+01 0. -1.
         -5    1    1    2    0  502  0.14754051250E+02  0.43410722688E+02  0.30549265593E+01  0.46190858932E+02  0.47000000000E+01 0. -1.
        -11    1    1    2    0    0  0.36350405593E+02 -0.83995196837E+01 -0.45127864869E+01  0.37580169765E+02  0.00000000000E+00 0.  1.
         11    1    1    2    0    0  0.51586530719E+02 -0.14898318338E+02  0.12209585449E+03  0.13338113707E+03  0.00000000000E+00 0. -1.
<mgrwt>
<rscale>  0 0.14634054E+03</rscale>
<asrwt>0</asrwt>
<pdfrwt beam="1">  1        1 0.39945942E-01 0.15460496E+03</pdfrwt>
<pdfrwt beam="2">  1       -1 0.12074148E-01 0.15460496E+03</pdfrwt>
<totfact> 0.46153687E+03</totfact>
</mgrwt>
</event>
<event>
 6    1  0.7457796E-006  0.1265841E+03  0.7546771E-02  0.1247720E+00
          2   -1    0    0  501    0  0.00000000000E+00  0.00000000000E+00  0.57610683321E+03  0.57610683321E+03  0.00000000000E+00 0. -1.
         -2   -1    0    0    0  501 -0.00000000000E+00 -0.00000000000E+00 -0.23366939393E+02  0.23366939393E+02  0.00000000000E+00 0.  1.
          5    1    1    2  502    0  0.46569515524E+02 -0.55734778888E+02  0.13174918930E+03  0.15051586041E+03  0.47000000000E+01 0. -1.
         -5    1    1    2    0  502 -0.30652878066E+02  0.43793787457E+02  0.86974642952E+02  0.10219673806E+03  0.47000000000E+01 0. -1.
        -11    1    1    2    0    0 -0.41168114892E+02 -0.23793186231E+02  0.13938302639E+03  0.14727035492E+03  0.00000000000E+00 0. -1.
         11    1    1    2    0    0  0.25251477435E+02  0.35734177662E+02  0.19463303517E+03  0.19949081920E+03  0.00000000000E+00 0.  1.
<mgrwt>
<rscale>  0 0.11724060E+03</rscale>
<asrwt>0</asrwt>
<pdfrwt beam="1">  1        2 0.88631810E-01 0.12658413E+03</pdfrwt>
<pdfrwt beam="2">  1       -2 0.35949142E-02 0.12658413E+03</pdfrwt>
<totfact> 0.16078876E+04</totfact>
</mgrwt>
</event>
<event>
 6    1  0.7457796E-006  0.1915432E+03  0.7546771E-02  0.1186384E+00
          2   -1    0    0  501    0  0.00000000000E+00  0.00000000000E+00  0.77264321708E+02  0.77264321708E+02  0.00000000000E+00 0. -1.
         -2   -1    0    0    0  501 -0.00000000000E+00 -0.00000000000E+00 -0.29177687649E+03  0.29177687649E+03  0.00000000000E+00 0.  1.
          5    1    1    2  502    0  0.34800730724E+01  0.87279177817E+02 -0.25640843140E+02  0.91155409197E+02  0.47000000000E+01 0. -1.
         -5    1    1    2    0  502  0.48278347216E+02 -0.53688937720E+02 -0.15993763195E+03  0.17554326235E+03  0.47000000000E+01 0.  1.
        -11    1    1    2    0    0 -0.69397267239E+02 -0.33773243265E+02 -0.12406800229E+02  0.78169951726E+02  0.00000000000E+00 0. -1.
         11    1    1    2    0    0  0.17638846951E+02  0.18300316847E+00 -0.16527279461E+02  0.24172574921E+02  0.00000000000E+00 0.  1.
<mgrwt>
<rscale>  0 0.16206595E+03</rscale>
<asrwt>0</asrwt>
<pdfrwt beam="1">  1        2 0.11886819E-01 0.19154324E+03</pdfrwt>
<pdfrwt beam="2">  1       -2 0.44888749E-01 0.19154324E+03</pdfrwt>
<totfact> 0.24147867E+03</totfact>
</mgrwt>
</event>
<event>
 6    1  0.7457796E-006  0.1476851E+03  0.7546771E-02  0.1214147E+00
          1   -1    0    0  501    0  0.00000000000E+00  0.00000000000E+00  0.68890464137E+02  0.68890464137E+02  0.00000000000E+00 0. -1.
         -1   -1    0    0    0  501 -0.00000000000E+00 -0.00000000000E+00 -0.26938727652E+03  0.26938727652E+03  0.00000000000E+00 0.  1.
          5    1    1    2  502    0  0.62672824574E+01 -0.88745933935E+02 -0.71212230677E+02  0.11405433537E+03  0.47000000000E+01 0. -1.
         -5    1    1    2    0  502  0.46328614206E+02  0.30274241253E+02 -0.79261037436E+02  0.96784669412E+02  0.47000000000E+01 0. -1.
        -11    1    1    2    0    0 -0.32770891267E+02  0.33341295182E+02  0.19690415489E+02  0.50727563917E+02  0.00000000000E+00 0. -1.
         11    1    1    2    0    0 -0.19825005397E+02  0.25130397500E+02 -0.69713959764E+02  0.76711171960E+02  0.00000000000E+00 0.  1.
<mgrwt>
<rscale>  0 0.13939397E+03</rscale>
<asrwt>0</asrwt>
<pdfrwt beam="1">  1        1 0.10598533E-01 0.14768508E+03</pdfrwt>
<pdfrwt beam="2">  1       -1 0.41444196E-01 0.14768508E+03</pdfrwt>
<totfact> 0.33214432E+03</totfact>
</mgrwt>
</event>
<event>
 6    1  0.7457796E-006  0.2512805E+03  0.7546771E-02  0.1112498E+00
          2   -1    0    0  501    0  0.00000000000E+00  0.00000000000E+00  0.23101891583E+03  0.23101891583E+03  0.00000000000E+00 0.  1.
         -2   -1    0    0    0  501 -0.00000000000E+00 -0.00000000000E+00 -0.68329766752E+02  0.68329766752E+02  0.00000000000E+00 0. -1.
          5    1    1    2  502    0  0.13499471974E+01  0.10439865655E+02 -0.27987355772E+02  0.30268717110E+02  0.47000000000E+01 0. -1.
         -5    1    1    2    0  502 -0.54903594199E+02  0.51447557352E+01  0.12738663472E+03  0.13888958879E+03  0.47000000000E+01 0. -1.
        -11    1    1    2    0    0  0.14592005191E+02 -0.19053567395E+02  0.82992409728E+02  0.86392737648E+02  0.00000000000E+00 0.  1.
         11    1    1    2    0    0  0.38961641810E+02  0.34689460040E+01 -0.19702539596E+02  0.43797639040E+02  0.00000000000E+00 0. -1.
<mgrwt>
<rscale>  0 0.25128047E+03</rscale>
<asrwt>0</asrwt>
<pdfrwt beam="1">  1        2 0.35541371E-01 0.25128047E+03</pdfrwt>
<pdfrwt beam="2">  1       -2 0.10512272E-01 0.25128047E+03</pdfrwt>
<totfact> 0.87839198E+03</totfact>
</mgrwt>
</event>
<event>
 6    1  0.7457796E-006  0.1500392E+03  0.7546771E-02  0.1209671E+00
          2   -1    0    0  501    0  0.00000000000E+00  0.00000000000E+00  0.39326063680E+03  0.39326063680E+03  0.00000000000E+00 0. -1.
         -2   -1    0    0    0  501 -0.00000000000E+00 -0.00000000000E+00 -0.67373493472E+02  0.67373493472E+02  0.00000000000E+00 0.  1.
          5    1    1    2  502    0  0.18125376433E+02 -0.55326956401E+02 -0.35181900900E+02  0.68186930759E+02  0.47000000000E+01 0. -1.
         -5    1    1    2    0  502 -0.12059229147E+02 -0.27438024363E+02  0.84450616718E+02  0.89734424011E+02  0.47000000000E+01 0. -1.
        -11    1    1    2    0    0 -0.38825622893E+02  0.43682258354E+02  0.21462257509E+03  0.22243744834E+03  0.00000000000E+00 0. -1.
         11    1    1    2    0    0  0.32759475607E+02  0.39082722411E+02  0.61995852425E+02  0.80275327163E+02  0.00000000000E+00 0.  1.
<mgrwt>
<rscale>  0 0.14275378E+03</rscale>
<asrwt>0</asrwt>
<pdfrwt beam="1">  1        2 0.60501635E-01 0.15003915E+03</pdfrwt>
<pdfrwt beam="2">  1       -2 0.10365153E-01 0.15003915E+03</pdfrwt>
<totfact> 0.49271538E+03</totfact>
</mgrwt>
</event>
<event>
 6    1  0.7457796E-006  0.1527973E+03  0.7546771E-02  0.1205905E+00
         -1   -1    0    0    0  501 -0.00000000000E+00  0.00000000000E+00  0.42075374522E+02  0.42075374522E+02  0.00000000000E+00 0.  1.
          1   -1    0    0  501    0  0.00000000000E+00 -0.00000000000E+00 -0.51883007056E+03  0.51883007056E+03  0.00000000000E+00 0. -1.
          5    1    1    2  502    0  0.23996515187E+02  0.90167251928E+01  0.58627067520E+01  0.26713206562E+02  0.47000000000E+01 0. -1.
         -5    1    1    2    0  502 -0.87108296041E+02  0.48838590341E+02 -0.17246484863E+03  0.19934712729E+03  0.47000000000E+01 0.  1.
        -11    1    1    2    0    0 -0.13780074968E+02  0.14245282755E+02 -0.65965390634E+02  0.68878525742E+02  0.00000000000E+00 0.  1.
         11    1    1    2    0    0  0.76891855822E+02 -0.72100598288E+02 -0.24418716353E+03  0.26596658549E+03  0.00000000000E+00 0. -1.
<mgrwt>
<rscale>  0 0.14566399E+03</rscale>
<asrwt>0</asrwt>
<pdfrwt beam="2">  1        1 0.79820013E-01 0.15279725E+03</pdfrwt>
<pdfrwt beam="1">  1       -1 0.64731344E-02 0.15279725E+03</pdfrwt>
<totfact> 0.49650938E+03</totfact>
</mgrwt>
</event>
<event>
 6    1  0.7457796E-006  0.1626195E+03  0.7546771E-02  0.1193000E+00
         -3   -1    0    0    0  501 -0.00000000000E+00  0.00000000000E+00  0.75745287474E+02  0.75745287474E+02  0.00000000000E+00 0.  1.
          3   -1    0    0  501    0  0.00000000000E+00 -0.00000000000E+00 -0.35692973348E+03  0.35692973348E+03  0.00000000000E+00 0. -1.
          5    1    1    2  502    0  0.54308374533E+02 -0.62209001520E+01 -0.54832624536E+02  0.77568072405E+02  0.47000000000E+01 0.  1.
         -5    1    1    2    0  502 -0.25565644870E+01  0.96449928072E+02 -0.85824844957E+01  0.96978728014E+02  0.47000000000E+01 0.  1.
        -11    1    1    2    0    0 -0.23560033015E+02 -0.10420887152E+03 -0.16108022018E+03  0.19329097597E+03  0.00000000000E+00 0. -1.
         11    1    1    2    0    0 -0.28191777031E+02  0.13979843604E+02 -0.56689116791E+02  0.64837244559E+02  0.00000000000E+00 0.  1.
<mgrwt>
<rscale>  0 0.15624679E+03</rscale>
<asrwt>0</asrwt>
<pdfrwt beam="2">  1        3 0.54912265E-01 0.16261952E+03</pdfrwt>
<pdfrwt beam="1">  1       -3 0.11653121E-01 0.16261952E+03</pdfrwt>
<totfact> 0.44908546E+02</totfact>
</mgrwt>
</event>
<event>
 6    1  0.7457796E-006  0.3564900E+03  0.7546771E-02  0.1059982E+00
         -2   -1    0    0    0  501 -0.00000000000E+00  0.00000000000E+00  0.98915695447E+02  0.98915695447E+02  0.00000000000E+00 0.  1.
          2   -1    0    0  501    0  0.00000000000E+00 -0.00000000000E+00 -0.32119558343E+03  0.32119558343E+03  0.00000000000E+00 0. -1.
          5    1    1    2  502    0  0.17171503559E+01  0.25583442625E+02  0.63140435088E+01  0.26821973964E+02  0.47000000000E+01 0. -1.
         -5    1    1    2    0  502  0.42612836866E+02 -0.13831164232E+03 -0.43120312006E+02  0.15108744347E+03  0.47000000000E+01 0. -1.
        -11    1    1    2    0    0  0.58786887592E+01  0.28654137408E+02 -0.12210941699E+03  0.12556404060E+03  0.00000000000E+00 0. -1.
         11    1    1    2    0    0 -0.50208675981E+02  0.84074062290E+02 -0.63364202490E+02  0.11663782084E+03  0.00000000000E+00 0.  1.
<mgrwt>
<rscale>  0 0.35649003E+03</rscale>
<asrwt>0</asrwt>
<pdfrwt beam="2">  1        2 0.49414706E-01 0.35649003E+03</pdfrwt>
<pdfrwt beam="1">  1       -2 0.15217799E-01 0.35649003E+03</pdfrwt>
<totfact> 0.34055741E+03</totfact>
</mgrwt>
</event>
<event>
 6    1  0.7457796E-006  0.3087256E+03  0.7546771E-02  0.1080958E+00
         -1   -1    0    0    0  501 -0.00000000000E+00  0.00000000000E+00  0.43891432967E+02  0.43891432967E+02  0.00000000000E+00 0.  1.
          1   -1    0    0  501    0  0.00000000000E+00 -0.00000000000E+00 -0.54288229213E+03  0.54288229213E+03  0.00000000000E+00 0. -1.
          5    1    1    2  502    0  0.11447283735E+02  0.21155618477E+02 -0.10818816790E+02  0.26790619530E+02  0.47000000000E+01 0. -1.
         -5    1    1    2    0  502 -0.71664789883E+02 -0.11111867744E+03 -0.22990776072E+03  0.26526000645E+03  0.47000000000E+01 0. -1.
        -11    1    1    2    0    0 -0.15217608730E+01  0.44599301164E+02 -0.17902490390E+03  0.18450292582E+03  0.00000000000E+00 0. -1.
         11    1    1    2    0    0  0.61739267021E+02  0.45363757799E+02 -0.79239377758E+02  0.11022017330E+03  0.00000000000E+00 0.  1.
<mgrwt>
<rscale>  0 0.30872565E+03</rscale>
<asrwt>0</asrwt>
<pdfrwt beam="2">  1        1 0.83520352E-01 0.30872565E+03</pdfrwt>
<pdfrwt beam="1">  1       -1 0.67525282E-02 0.30872565E+03</pdfrwt>
<totfact> 0.45094128E+03</totfact>
</mgrwt>
</event>
<event>
 6    1  0.7457796E-006  0.1400232E+03  0.7546771E-02  0.1223836E+00
         -3   -1    0    0    0  501 -0.00000000000E+00  0.00000000000E+00  0.10633284570E+03  0.10633284570E+03  0.00000000000E+00 0.  1.
          3   -1    0    0  501    0  0.00000000000E+00 -0.00000000000E+00 -0.14975526582E+03  0.14975526582E+03  0.00000000000E+00 0. -1.
          5    1    1    2  502    0  0.53245796434E+02  0.52256188456E+02  0.12948143661E+02  0.75865463118E+02  0.47000000000E+01 0.  1.
         -5    1    1    2    0  502 -0.51052586509E+02  0.10811789778E+02 -0.41971845198E+02  0.67134098465E+02  0.47000000000E+01 0.  1.
        -11    1    1    2    0    0  0.17470452158E+02 -0.39745129196E+02 -0.49991082035E+02  0.66211783517E+02  0.00000000000E+00 0. -1.
         11    1    1    2    0    0 -0.19663662083E+02 -0.23322849038E+02  0.35592363451E+02  0.46876766418E+02  0.00000000000E+00 0.  1.
<mgrwt>
<rscale>  0 0.13246997E+03</rscale>
<asrwt>0</asrwt>
<pdfrwt beam="2">  1        3 0.23039272E-01 0.14002321E+03</pdfrwt>
<pdfrwt beam="1">  1       -3 0.16358899E-01 0.14002321E+03</pdfrwt>
<totfact> 0.12869972E+03</totfact>
</mgrwt>
</event>
<event>
 6    1  0.7457796E-006  0.1669903E+03  0.7546771E-02  0.1187931E+00
          1   -1    0    0  501    0  0.00000000000E+00  0.00000000000E+00  0.20334631529E+02  0.20334631529E+02  0.00000000000E+00 0. -1.
         -1   -1    0    0    0  501 -0.00000000000E+00 -0.00000000000E+00 -0.12310292529E+04  0.12310292529E+04  0.00000000000E+00 0.  1.
          5    1    1    2  502    0  0.56263341021E+02  0.41051305226E+02 -0.14065616647E+03  0.15702554050E+03  0.47000000000E+01 0.  1.
         -5    1    1    2    0  502  0.24439481413E+02  0.34767611095E+02 -0.63325305278E+03  0.63469488251E+03  0.47000000000E+01 0.  1.
        -11    1    1    2    0    0 -0.64276126426E+02 -0.28803418978E+02 -0.36824116538E+03  0.37491680844E+03  0.00000000000E+00 0.  1.
         11    1    1    2    0    0 -0.16426696008E+02 -0.47015497343E+02 -0.68544236704E+02  0.84726652934E+02  0.00000000000E+00 0. -1.
<mgrwt>
<rscale>  0 0.16068035E+03</rscale>
<asrwt>0</asrwt>
<pdfrwt beam="1">  1        1 0.31284055E-02 0.16699026E+03</pdfrwt>
<pdfrwt beam="2">  1       -1 0.18938908E+00 0.16699026E+03</pdfrwt>
<totfact> 0.62859759E+02</totfact>
</mgrwt>
</event>
<event>
 6    1  0.7457796E-006  0.1320007E+03  0.7546771E-02  0.1242094E+00
         -2   -1    0    0    0  501 -0.00000000000E+00  0.00000000000E+00  0.41458772530E+03  0.41458772530E+03  0.00000000000E+00 0.  1.
          2   -1    0    0  501    0  0.00000000000E+00 -0.00000000000E+00 -0.37246860016E+02  0.37246860016E+02  0.00000000000E+00 0. -1.
          5    1    1    2  502    0  0.57589950450E+02  0.52802240988E+02  0.27247502964E+03  0.28349499259E+03  0.47000000000E+01 0. -1.
         -5    1    1    2    0  502 -0.34493207873E+02 -0.17202345925E+02  0.40150146376E+02  0.55855405725E+02  0.47000000000E+01 0. -1.
        -11    1    1    2    0    0  0.21556221386E+02 -0.15983374049E+02 -0.51043223365E+01  0.27316534058E+02  0.00000000000E+00 0.  1.
         11    1    1    2    0    0 -0.44652963963E+02 -0.19616521015E+02  0.69820011600E+02  0.85167652940E+02  0.00000000000E+00 0. -1.
<mgrwt>
<rscale>  0 0.12060988E+03</rscale>
<asrwt>0</asrwt>
<pdfrwt beam="2">  1        2 0.57302864E-02 0.13200073E+03</pdfrwt>
<pdfrwt beam="1">  1       -2 0.63782724E-01 0.13200073E+03</pdfrwt>
<totfact> 0.29156490E+03</totfact>
</mgrwt>
</event>
<event>
 6    1  0.7457796E-006  0.1251110E+03  0.7546771E-02  0.1244452E+00
         -1   -1    0    0    0  501 -0.00000000000E+00  0.00000000000E+00  0.24580824269E+03  0.24580824269E+03  0.00000000000E+00 0.  1.
          1   -1    0    0  501    0  0.00000000000E+00 -0.00000000000E+00 -0.13148471205E+03  0.13148471205E+03  0.00000000000E+00 0. -1.
          5    1    1    2  502    0  0.60403087213E+02  0.55481036565E+01  0.79143115757E+02  0.99825032786E+02  0.47000000000E+01 0.  1.
         -5    1    1    2    0  502 -0.60965775574E+02 -0.10794451663E+02  0.12577900081E+03  0.14027042819E+03  0.47000000000E+01 0.  1.
        -11    1    1    2    0    0  0.22699852885E+02 -0.11633769298E+02  0.13903756683E+02  0.29050686033E+02  0.00000000000E+00 0.  1.
         11    1    1    2    0    0 -0.22137164524E+02  0.16880117304E+02 -0.10450234261E+03  0.10814680774E+03  0.00000000000E+00 0. -1.
<mgrwt>
<rscale>  0 0.11918231E+03</rscale>
<asrwt>0</asrwt>
<pdfrwt beam="2">  1        1 0.20228417E-01 0.12511098E+03</pdfrwt>
<pdfrwt beam="1">  1       -1 0.37816653E-01 0.12511098E+03</pdfrwt>
<totfact> 0.16743544E+03</totfact>
</mgrwt>
</event>
<event>
 6    1  0.7457796E-006  0.2098220E+03  0.7546771E-02  0.1145374E+00
          1   -1    0    0  501    0  0.00000000000E+00  0.00000000000E+00  0.41078976074E+03  0.41078976074E+03  0.00000000000E+00 0. -1.
         -1   -1    0    0    0  501 -0.00000000000E+00 -0.00000000000E+00 -0.11595072046E+03  0.11595072046E+03  0.00000000000E+00 0.  1.
          5    1    1    2  502    0 -0.25598426981E+01 -0.15903399569E+03  0.59927020078E+02  0.17003441509E+03  0.47000000000E+01 0. -1.
         -5    1    1    2    0  502  0.43971516722E+02 -0.67772133218E+01 -0.95595271135E+01  0.45748218128E+02  0.47000000000E+01 0.  1.
        -11    1    1    2    0    0 -0.24102225926E+02  0.16631025038E+03  0.18928488440E+03  0.25311812290E+03  0.00000000000E+00 0.  1.
         11    1    1    2    0    0 -0.17309448098E+02 -0.49904136761E+00  0.55186662912E+02  0.57839725095E+02  0.00000000000E+00 0. -1.
<mgrwt>
<rscale>  0 0.20526190E+03</rscale>
<asrwt>0</asrwt>
<pdfrwt beam="1">  1        1 0.63198424E-01 0.20982197E+03</pdfrwt>
<pdfrwt beam="2">  1       -1 0.17838573E-01 0.20982197E+03</pdfrwt>
<totfact> 0.14169847E+03</totfact>
</mgrwt>
</event>
<event>
 6    1  0.7457796E-006  0.1337059E+03  0.7546771E-02  0.1235511E+00
         -2   -1    0    0    0  501 -0.00000000000E+00  0.00000000000E+00  0.22521990853E+02  0.22521990853E+02  0.00000000000E+00 0.  1.
          2   -1    0    0  501    0  0.00000000000E+00 -0.00000000000E+00 -0.65697871346E+03  0.65697871346E+03  0.00000000000E+00 0. -1.
          5    1    1    2  502    0  0.12385995406E+02 -0.80884791904E+02 -0.17696819145E+03  0.19502716023E+03  0.47000000000E+01 0. -1.
         -5    1    1    2    0  502  0.20639386470E+02  0.46820163784E+02 -0.93673277537E+02  0.10684046488E+03  0.47000000000E+01 0. -1.
        -11    1    1    2    0    0 -0.64062222581E+02  0.25605033022E+02 -0.25408425670E+03  0.26328386882E+03  0.00000000000E+00 0. -1.
         11    1    1    2    0    0  0.31036840705E+02  0.84595950977E+01 -0.10973099692E+03  0.11434921039E+03  0.00000000000E+00 0.  1.
<mgrwt>
<rscale>  0 0.12471765E+03</rscale>
<asrwt>0</asrwt>
<pdfrwt beam="2">  1        2 0.10107364E+00 0.13370587E+03</pdfrwt>
<pdfrwt beam="1">  1       -2 0.34649218E-02 0.13370587E+03</pdfrwt>
<totfact> 0.14672823E+04</totfact>
</mgrwt>
</event>
<event>
 6    1  0.7457796E-006  0.1327685E+03  0.7546771E-02  0.1233825E+00
          1   -1    0    0  501    0  0.00000000000E+00  0.00000000000E+00  0.35444723983E+02  0.35444723983E+02  0.00000000000E+00 0. -1.
         -1   -1    0    0    0  501 -0.00000000000E+00 -0.00000000000E+00 -0.44031500505E+03  0.44031500505E+03  0.00000000000E+00 0.  1.
          5    1    1    2  502    0  0.27674598015E+01  0.30032323476E+02 -0.14942339798E+02  0.33984743721E+02  0.47000000000E+01 0. -1.
         -5    1    1    2    0  502 -0.14389445982E+02 -0.73148403329E+02 -0.27402932299E+03  0.28402800025E+03  0.47000000000E+01 0. -1.
        -11    1    1    2    0    0  0.23283363795E+01  0.57032226959E+02 -0.20126886054E+02  0.60524272853E+02  0.00000000000E+00 0. -1.
         11    1    1    2    0    0  0.92936498006E+01 -0.13916147106E+02 -0.95771732225E+02  0.97222712214E+02  0.00000000000E+00 0.  1.
<mgrwt>
<rscale>  0 0.12579974E+03</rscale>
<asrwt>0</asrwt>
<pdfrwt beam="1">  1        1 0.54530344E-02 0.13276853E+03</pdfrwt>
<pdfrwt beam="2">  1       -1 0.67740770E-01 0.13276853E+03</pdfrwt>
<totfact> 0.32467959E+03</totfact>
</mgrwt>
</event>
<event>
 6    1  0.7457796E-006  0.3047328E+03  0.7546771E-02  0.1082898E+00
          1   -1    0    0  501    0  0.00000000000E+00  0.00000000000E+00  0.40584875360E+03  0.40584875360E+03  0.00000000000E+00 0. -1.
         -1   -1    0    0    0  501 -0.00000000000E+00 -0.00000000000E+00 -0.57202392082E+02  0.57202392082E+02  0.00000000000E+00 0.  1.
          5    1    1    2  502    0  0.26624327651E+02 -0.27708013628E+02  0.11482549607E+02  0.40379794298E+02  0.47000000000E+01 0. -1.
         -5    1    1    2    0  502  0.11620298370E+02  0.11344427149E+03  0.98429544659E+02  0.15071529229E+03  0.47000000000E+01 0. -1.
        -11    1    1    2    0    0 -0.57142116260E+02 -0.39366157640E+02  0.82009666391E+02  0.10742672479E+03  0.00000000000E+00 0.  1.
         11    1    1    2    0    0  0.18897490239E+02 -0.46370100219E+02  0.15672460086E+03  0.16452933430E+03  0.00000000000E+00 0. -1.
<mgrwt>
<rscale>  0 0.30473280E+03</rscale>
<asrwt>0</asrwt>
<pdfrwt beam="1">  1        1 0.62438268E-01 0.30473280E+03</pdfrwt>
<pdfrwt beam="2">  1       -1 0.88003682E-02 0.30473280E+03</pdfrwt>
<totfact> 0.44140511E+03</totfact>
</mgrwt>
</event>
<event>
 6    1  0.7457796E-006  0.1256268E+03  0.7546771E-02  0.1249940E+00
         -3   -1    0    0    0  501 -0.00000000000E+00  0.00000000000E+00  0.27061088959E+02  0.27061088959E+02  0.00000000000E+00 0.  1.
          3   -1    0    0  501    0  0.00000000000E+00 -0.00000000000E+00 -0.44249154042E+03  0.44249154042E+03  0.00000000000E+00 0. -1.
          5    1    1    2  502    0  0.14702672849E+02 -0.17856455449E+02 -0.21455565185E+03  0.21585003899E+03  0.47000000000E+01 0. -1.
         -5    1    1    2    0  502 -0.23781236498E+02  0.11055558567E+02  0.62860983360E+01  0.27374762408E+02  0.47000000000E+01 0. -1.
        -11    1    1    2    0    0 -0.27566849481E+02 -0.19084163998E+02 -0.14979209124E+03  0.15349855734E+03  0.00000000000E+00 0. -1.
         11    1    1    2    0    0  0.36645413130E+02  0.25885060880E+02 -0.57368806701E+02  0.72829270644E+02  0.00000000000E+00 0.  1.
<mgrwt>
<rscale>  0 0.11594528E+03</rscale>
<asrwt>0</asrwt>
<pdfrwt beam="2">  1        3 0.68075625E-01 0.12562682E+03</pdfrwt>
<pdfrwt beam="1">  1       -3 0.41632442E-02 0.12562682E+03</pdfrwt>
<totfact> 0.14624911E+03</totfact>
</mgrwt>
</event>
<event>
 6    1  0.7457796E-006  0.4024881E+03  0.7546771E-02  0.1067616E+00
          1   -1    0    0  501    0  0.00000000000E+00  0.00000000000E+00  0.26459324543E+03  0.26459324543E+03  0.00000000000E+00 0. -1.
         -1   -1    0    0    0  501 -0.00000000000E+00 -0.00000000000E+00 -0.44082396471E+03  0.44082396471E+03  0.00000000000E+00 0.  1.
          5    1    1    2  502    0  0.41848965542E+02 -0.10253146735E+03  0.28176737876E+02  0.11436807366E+03  0.47000000000E+01 0. -1.
         -5    1    1    2    0  502  0.90306999139E+02  0.20029402097E+03 -0.29770112629E+03  0.37002851177E+03  0.47000000000E+01 0.  1.
        -11    1    1    2    0    0 -0.78649616659E+02 -0.49915773934E+02 -0.11649349146E+02  0.93877867592E+02  0.00000000000E+00 0.  1.
         11    1    1    2    0    0 -0.53506348021E+02 -0.47846779687E+02  0.10494301828E+03  0.12714275713E+03  0.00000000000E+00 0. -1.
<mgrwt>
<rscale>  0 0.33808088E+03</rscale>
<asrwt>0</asrwt>
<pdfrwt beam="1">  1        1 0.40706653E-01 0.40248808E+03</pdfrwt>
<pdfrwt beam="2">  1       -1 0.67819071E-01 0.40248808E+03</pdfrwt>
<totfact> 0.23412577E+02</totfact>
</mgrwt>
</event>
<event>
 6    1  0.7457796E-006  0.1499389E+03  0.7546771E-02  0.1212179E+00
         -4   -1    0    0    0  501 -0.00000000000E+00  0.00000000000E+00  0.85847944144E+03  0.85847944144E+03  0.00000000000E+00 0.  1.
          4   -1    0    0  501    0  0.00000000000E+00 -0.00000000000E+00 -0.21198829501E+02  0.21198829501E+02  0.00000000000E+00 0. -1.
          5    1    1    2  502    0 -0.73419973438E+01 -0.14098038632E+02  0.15246843314E+01  0.16645548371E+02  0.47000000000E+01 0. -1.
         -5    1    1    2    0  502  0.53852880319E+02 -0.54409118454E+02  0.53376044732E+03  0.53924279320E+03  0.47000000000E+01 0. -1.
        -11    1    1    2    0    0 -0.40291216247E+02  0.76547834639E+02  0.30144310057E+03  0.31360946410E+03  0.00000000000E+00 0.  1.
         11    1    1    2    0    0 -0.62196667281E+01 -0.80406775526E+01  0.55237971515E+00  0.10180465268E+02  0.00000000000E+00 0. -1.
<mgrwt>
<rscale>  0 0.14085821E+03</rscale>
<asrwt>0</asrwt>
<pdfrwt beam="2">  1        4 0.32613590E-02 0.14993891E+03</pdfrwt>
<pdfrwt beam="1">  1       -4 0.13207373E+00 0.14993891E+03</pdfrwt>
<totfact> 0.35219711E+02</totfact>
</mgrwt>
</event>
<event>
 6    1  0.7457796E-006  0.1448118E+03  0.7546771E-02  0.1216785E+00
         -3   -1    0    0    0  501 -0.00000000000E+00  0.00000000000E+00  0.24366068862E+03  0.24366068862E+03  0.00000000000E+00 0.  1.
          3   -1    0    0  501    0  0.00000000000E+00 -0.00000000000E+00 -0.94490068056E+02  0.94490068056E+02  0.00000000000E+00 0. -1.
          5    1    1    2  502    0  0.42932082195E+02  0.96744781425E+01 -0.11758409526E+01  0.44274505202E+02  0.47000000000E+01 0.  1.
         -5    1    1    2    0  502  0.15814116900E+02 -0.53208883907E+02  0.16615183602E+03  0.17524210177E+03  0.47000000000E+01 0.  1.
        -11    1    1    2    0    0 -0.78239567816E+02  0.54316249931E+02 -0.14224104258E+02  0.96301662086E+02  0.00000000000E+00 0. -1.
         11    1    1    2    0    0  0.19493368720E+02 -0.10781844166E+02 -0.15812702439E+01  0.22332487619E+02  0.00000000000E+00 0.  1.
<mgrwt>
<rscale>  0 0.13746217E+03</rscale>
<asrwt>0</asrwt>
<pdfrwt beam="2">  1        3 0.14536934E-01 0.14481182E+03</pdfrwt>
<pdfrwt beam="1">  1       -3 0.37486260E-01 0.14481182E+03</pdfrwt>
<totfact> 0.64450331E+02</totfact>
</mgrwt>
</event>
<event>
 6    1  0.7457796E-006  0.4899579E+03  0.7546771E-02  0.1016434E+00
         -1   -1    0    0    0  501 -0.00000000000E+00  0.00000000000E+00  0.85549148934E+02  0.85549148934E+02  0.00000000000E+00 0.  1.
          1   -1    0    0  501    0  0.00000000000E+00 -0.00000000000E+00 -0.70152289330E+03  0.70152289330E+03  0.00000000000E+00 0. -1.
          5    1    1    2  502    0 -0.95751281534E+01 -0.11729112703E+02 -0.63580737645E+02  0.65527516078E+02  0.47000000000E+01 0. -1.
         -5    1    1    2    0  502 -0.12700120757E+03 -0.55402027514E+02  0.33629410486E+01  0.13867981378E+03  0.47000000000E+01 0.  1.
        -11    1    1    2    0    0  0.84598545903E+02  0.25613554421E+01 -0.36829503724E+03  0.37789510313E+03  0.00000000000E+00 0. -1.
         11    1    1    2    0    0  0.51977789821E+02  0.64569784775E+02 -0.18746091053E+03  0.20496960925E+03  0.00000000000E+00 0.  1.
<mgrwt>
<rscale>  0 0.48995790E+03</rscale>
<asrwt>0</asrwt>
<pdfrwt beam="2">  1        1 0.10792660E+00 0.48995790E+03</pdfrwt>
<pdfrwt beam="1">  1       -1 0.13161408E-01 0.48995790E+03</pdfrwt>
<totfact> 0.11116155E+03</totfact>
</mgrwt>
</event>
<event>
 6    1  0.7457796E-006  0.1272953E+03  0.7546771E-02  0.1246454E+00
          2   -1    0    0  501    0  0.00000000000E+00  0.00000000000E+00  0.68878312375E+03  0.68878312375E+03  0.00000000000E+00 0. -1.
         -2   -1    0    0    0  501 -0.00000000000E+00 -0.00000000000E+00 -0.18059713489E+02  0.18059713489E+02  0.00000000000E+00 0.  1.
          5    1    1    2  502    0 -0.35503614630E+02 -0.52499723394E+02  0.21589461274E+03  0.22505399667E+03  0.47000000000E+01 0.  1.
         -5    1    1    2    0  502  0.52644397159E+02  0.35628590536E+02  0.21366634383E+03  0.22297135579E+03  0.47000000000E+01 0.  1.
        -11    1    1    2    0    0 -0.35592638198E+02  0.45613854091E+02  0.17568789116E+03  0.18496944256E+03  0.00000000000E+00 0. -1.
         11    1    1    2    0    0  0.18451855669E+02 -0.28742721233E+02  0.65474562522E+02  0.73848042215E+02  0.00000000000E+00 0.  1.
<mgrwt>
<rscale>  0 0.11798777E+03</rscale>
<asrwt>0</asrwt>
<pdfrwt beam="1">  1        2 0.10596661E+00 0.12729533E+03</pdfrwt>
<pdfrwt beam="2">  1       -2 0.27784180E-02 0.12729533E+03</pdfrwt>
<totfact> 0.19131837E+04</totfact>
</mgrwt>
</event>
<event>
 6    1  0.7457796E-006  0.2913889E+03  0.7546771E-02  0.1100029E+00
         -2   -1    0    0    0  501 -0.00000000000E+00  0.00000000000E+00  0.89813717255E+02  0.89813717255E+02  0.00000000000E+00 0.  1.
          2   -1    0    0  501    0  0.00000000000E+00 -0.00000000000E+00 -0.83501426403E+03  0.83501426403E+03  0.00000000000E+00 0. -1.
          5    1    1    2  502    0 -0.91004269276E+02 -0.18347751603E+03 -0.22588438224E+03  0.30494527387E+03  0.47000000000E+01 0. -1.
         -5    1    1    2    0  502  0.76366043828E+02 -0.12511003585E+02 -0.30949713138E+02  0.83476179859E+02  0.47000000000E+01 0.  1.
        -11    1    1    2    0    0  0.56721316685E+02  0.76983830646E+02 -0.21480478052E+03  0.23512743711E+03  0.00000000000E+00 0.  1.
         11    1    1    2    0    0 -0.42083091237E+02  0.11900468897E+03 -0.27356167087E+03  0.30127909044E+03  0.00000000000E+00 0. -1.
<mgrwt>
<rscale>  0 0.27219719E+03</rscale>
<asrwt>0</asrwt>
<pdfrwt beam="2">  1        2 0.12846374E+00 0.29138887E+03</pdfrwt>
<pdfrwt beam="1">  1       -2 0.13817495E-01 0.29138887E+03</pdfrwt>
<totfact> 0.13174128E+03</totfact>
</mgrwt>
</event>
<event>
 6    1  0.7457796E-006  0.1620904E+03  0.7546771E-02  0.1193610E+00
         -2   -1    0    0    0  501 -0.00000000000E+00  0.00000000000E+00  0.94897440132E+02  0.94897440132E+02  0.00000000000E+00 0.  1.
          2   -1    0    0  501    0  0.00000000000E+00 -0.00000000000E+00 -0.33312777958E+03  0.33312777958E+03  0.00000000000E+00 0. -1.
          5    1    1    2  502    0  0.11684162121E+03 -0.47357307639E+02 -0.11481266264E+02  0.12668302376E+03  0.47000000000E+01 0.  1.
         -5    1    1    2    0  502 -0.33079241400E+02 -0.12884664418E+02  0.52239850839E-01  0.35809824319E+02  0.47000000000E+01 0.  1.
        -11    1    1    2    0    0  0.17360789961E+02  0.12663475714E+02 -0.15494542452E+02  0.26492291162E+02  0.00000000000E+00 0.  1.
         11    1    1    2    0    0 -0.10112316977E+03  0.47578496343E+02 -0.21130677058E+03  0.23904008047E+03  0.00000000000E+00 0. -1.
<mgrwt>
<rscale>  0 0.15572483E+03</rscale>
<asrwt>0</asrwt>
<pdfrwt beam="2">  1        2 0.51250427E-01 0.16209042E+03</pdfrwt>
<pdfrwt beam="1">  1       -2 0.14599606E-01 0.16209042E+03</pdfrwt>
<totfact> 0.34060595E+03</totfact>
</mgrwt>
</event>
<event>
 6    1  0.7457796E-006  0.1482789E+03  0.7546771E-02  0.1211781E+00
          1   -1    0    0  501    0  0.00000000000E+00  0.00000000000E+00  0.12431356424E+04  0.12431356424E+04  0.00000000000E+00 0. -1.
         -1   -1    0    0    0  501 -0.00000000000E+00 -0.00000000000E+00 -0.15006412814E+02  0.15006412814E+02  0.00000000000E+00 0.  1.
          5    1    1    2  502    0 -0.24095015294E+02 -0.25618997312E+02  0.18362686605E+03  0.18702357798E+03  0.47000000000E+01 0. -1.
         -5    1    1    2    0  502  0.49063821561E+02  0.10145798754E+03  0.58354340424E+03  0.59434499784E+03  0.47000000000E+01 0. -1.
        -11    1    1    2    0    0 -0.34931660020E+02  0.56846119014E+01  0.87422211370E+02  0.94314255153E+02  0.00000000000E+00 0.  1.
         11    1    1    2    0    0  0.99628537524E+01 -0.81523602125E+02  0.37353674789E+03  0.38245922421E+03  0.00000000000E+00 0. -1.
<mgrwt>
<rscale>  0 0.14115665E+03</rscale>
<asrwt>0</asrwt>
<pdfrwt beam="1">  1        1 0.19125156E+00 0.14827888E+03</pdfrwt>
<pdfrwt beam="2">  1       -1 0.23086799E-02 0.14827888E+03</pdfrwt>
<totfact> 0.58186574E+03</totfact>
</mgrwt>
</event>
<event>
 6    1  0.7457796E-006  0.1348987E+03  0.7546771E-02  0.1232696E+00
         -2   -1    0    0    0  501 -0.00000000000E+00  0.00000000000E+00  0.14196604823E+03  0.14196604823E+03  0.00000000000E+00 0.  1.
          2   -1    0    0  501    0  0.00000000000E+00 -0.00000000000E+00 -0.11137946836E+03  0.11137946836E+03  0.00000000000E+00 0. -1.
          5    1    1    2  502    0  0.30947772304E+02 -0.58007950218E+01 -0.37087041491E+02  0.48876911523E+02  0.47000000000E+01 0.  1.
         -5    1    1    2    0  502  0.77239759235E+01 -0.27018808261E+02  0.92797390817E+02  0.97072764184E+02  0.47000000000E+01 0.  1.
        -11    1    1    2    0    0 -0.30419205682E+02 -0.17391936506E+02  0.19162776638E+02  0.39937695705E+02  0.00000000000E+00 0.  1.
         11    1    1    2    0    0 -0.82525425462E+01  0.50211539789E+02 -0.44286546098E+02  0.67458145184E+02  0.00000000000E+00 0. -1.
<mgrwt>
<rscale>  0 0.12653115E+03</rscale>
<asrwt>0</asrwt>
<pdfrwt beam="2">  1        2 0.17135303E-01 0.13489872E+03</pdfrwt>
<pdfrwt beam="1">  1       -2 0.21840931E-01 0.13489872E+03</pdfrwt>
<totfact> 0.57030902E+03</totfact>
</mgrwt>
</event>
<event>
 6    1  0.7457796E-006  0.1282145E+03  0.7546771E-02  0.1244466E+00
          2   -1    0    0  501    0  0.00000000000E+00  0.00000000000E+00  0.16325005014E+03  0.16325005014E+03  0.00000000000E+00 0.  1.
         -2   -1    0    0    0  501 -0.00000000000E+00 -0.00000000000E+00 -0.78419339547E+02  0.78419339547E+02  0.00000000000E+00 0. -1.
          5    1    1    2  502    0  0.48431877176E+02  0.10872891570E+02 -0.24647717177E+02  0.55618939759E+02  0.47000000000E+01 0. -1.
         -5    1    1    2    0  502 -0.48760215036E+02  0.17659600317E+02  0.55806467965E+02  0.76327399539E+02  0.47000000000E+01 0. -1.
        -11    1    1    2    0    0 -0.80637039055E+01  0.21220730820E+02 -0.12962237161E+02  0.26141199846E+02  0.00000000000E+00 0. -1.
         11    1    1    2    0    0  0.83920417654E+01 -0.49753222706E+02  0.66634196961E+02  0.83581850538E+02  0.00000000000E+00 0.  1.
<mgrwt>
<rscale>  0 0.11917381E+03</rscale>
<asrwt>0</asrwt>
<pdfrwt beam="1">  1        2 0.25115392E-01 0.12821454E+03</pdfrwt>
<pdfrwt beam="2">  1       -2 0.12064514E-01 0.12821454E+03</pdfrwt>
<totfact> 0.98350318E+03</totfact>
</mgrwt>
</event>
<event>
 6    1  0.7457796E-006  0.1648530E+03  0.7546771E-02  0.1190394E+00
          2   -1    0    0  501    0  0.00000000000E+00  0.00000000000E+00  0.13752563527E+04  0.13752563527E+04  0.00000000000E+00 0.  1.
         -2   -1    0    0    0  501 -0.00000000000E+00 -0.00000000000E+00 -0.17836642503E+02  0.17836642503E+02  0.00000000000E+00 0. -1.
          5    1    1    2  502    0 -0.49550733278E+02  0.98890597332E+02  0.54864233216E+03  0.55970092375E+03  0.47000000000E+01 0.  1.
         -5    1    1    2    0  502  0.28144681477E+02  0.64365110979E+01  0.29733377135E+02  0.41709896744E+02  0.47000000000E+01 0.  1.
        -11    1    1    2    0    0 -0.63830757601E+01 -0.11194190662E+03  0.63736786555E+03  0.64715495065E+03  0.00000000000E+00 0. -1.
         11    1    1    2    0    0  0.27789127562E+02  0.66147981936E+01  0.14167613537E+03  0.14452722408E+03  0.00000000000E+00 0.  1.
<mgrwt>
<rscale>  0 0.15850602E+03</rscale>
<asrwt>0</asrwt>
<pdfrwt beam="1">  1        2 0.21157782E+00 0.16485301E+03</pdfrwt>
<pdfrwt beam="2">  1       -2 0.27440999E-02 0.16485301E+03</pdfrwt>
<totfact> 0.75908725E+03</totfact>
</mgrwt>
</event>
<event>
 6    1  0.7457796E-006  0.1255372E+03  0.7546771E-02  0.1249538E+00
         -2   -1    0    0    0  501 -0.00000000000E+00  0.00000000000E+00  0.31164676738E+03  0.31164676738E+03  0.00000000000E+00 0.  1.
          2   -1    0    0  501    0  0.00000000000E+00 -0.00000000000E+00 -0.44342351131E+02  0.44342351131E+02  0.00000000000E+00 0. -1.
          5    1    1    2  502    0  0.17020994577E+02  0.54687060557E+02  0.14077330413E+03  0.15205131373E+03  0.47000000000E+01 0.  1.
         -5    1    1    2    0  502 -0.28589799085E+02 -0.55658069076E+02  0.77160839765E+02  0.99453921282E+02  0.47000000000E+01 0.  1.
        -11    1    1    2    0    0 -0.23191568733E+02 -0.32567248195E+02  0.37340197621E+02  0.54706168516E+02  0.00000000000E+00 0.  1.
         11    1    1    2    0    0  0.34760373241E+02  0.33538256713E+02  0.12030074725E+02  0.49777714985E+02  0.00000000000E+00 0. -1.
<mgrwt>
<rscale>  0 0.11617840E+03</rscale>
<asrwt>0</asrwt>
<pdfrwt beam="2">  1        2 0.68219004E-02 0.12553721E+03</pdfrwt>
<pdfrwt beam="1">  1       -2 0.47945655E-01 0.12553721E+03</pdfrwt>
<totfact> 0.41328205E+03</totfact>
</mgrwt>
</event>
<event>
 6    1  0.7457796E-006  0.1409968E+03  0.7546771E-02  0.1222799E+00
          4   -1    0    0  501    0  0.00000000000E+00  0.00000000000E+00  0.10854539739E+03  0.10854539739E+03  0.00000000000E+00 0. -1.
         -4   -1    0    0    0  501 -0.00000000000E+00 -0.00000000000E+00 -0.15531135259E+03  0.15531135259E+03  0.00000000000E+00 0.  1.
          5    1    1    2  502    0  0.16843826221E+02 -0.54555410512E+02 -0.36031289640E+02  0.67678291431E+02  0.47000000000E+01 0.  1.
         -5    1    1    2    0  502  0.47355786474E+02  0.66125599688E+02 -0.18840781942E+02  0.83619558184E+02  0.47000000000E+01 0.  1.
        -11    1    1    2    0    0 -0.25369898860E+02  0.22430713623E+02 -0.32463134611E+02  0.46910806757E+02  0.00000000000E+00 0.  1.
         11    1    1    2    0    0 -0.38829713835E+02 -0.34000902800E+02  0.40569251002E+02  0.65648093609E+02  0.00000000000E+00 0. -1.
<mgrwt>
<rscale>  0 0.13318938E+03</rscale>
<asrwt>0</asrwt>
<pdfrwt beam="1">  1        4 0.16699292E-01 0.14099679E+03</pdfrwt>
<pdfrwt beam="2">  1       -4 0.23894054E-01 0.14099679E+03</pdfrwt>
<totfact> 0.84611915E+02</totfact>
</mgrwt>
</event>
<event>
 6    1  0.7457796E-006  0.1331500E+03  0.7546771E-02  0.1235335E+00
         -2   -1    0    0    0  501 -0.00000000000E+00  0.00000000000E+00  0.10225208870E+03  0.10225208870E+03  0.00000000000E+00 0.  1.
          2   -1    0    0  501    0  0.00000000000E+00 -0.00000000000E+00 -0.14153299958E+03  0.14153299958E+03  0.00000000000E+00 0. -1.
          5    1    1    2  502    0  0.45868763330E+02  0.17857571579E+01  0.19677814159E+02  0.50164118133E+02  0.47000000000E+01 0.  1.
         -5    1    1    2    0  502 -0.69688580440E+02 -0.40947119303E+02 -0.18239872516E+02  0.82993661037E+02  0.47000000000E+01 0.  1.
        -11    1    1    2    0    0 -0.19556013398E+02  0.44074263554E+02  0.36858786065E+01  0.48358702102E+02  0.00000000000E+00 0.  1.
         11    1    1    2    0    0  0.43375830509E+02 -0.49129014095E+01 -0.44404731121E+02  0.62268607007E+02  0.00000000000E+00 0. -1.
<mgrwt>
<rscale>  0 0.12482988E+03</rscale>
<asrwt>0</asrwt>
<pdfrwt beam="2">  1        2 0.21774307E-01 0.13315001E+03</pdfrwt>
<pdfrwt beam="1">  1       -2 0.15731091E-01 0.13315001E+03</pdfrwt>
<totfact> 0.75230452E+03</totfact>
</mgrwt>
</event>
<event>
 6    1  0.7457796E-006  0.2512849E+03  0.7546771E-02  0.1116118E+00
          2   -1    0    0  501    0  0.00000000000E+00  0.00000000000E+00  0.10805692844E+04  0.10805692844E+04  0.00000000000E+00 0. -1.
         -2   -1    0    0    0  501 -0.00000000000E+00 -0.00000000000E+00 -0.53787264551E+02  0.53787264551E+02  0.00000000000E+00 0.  1.
          5    1    1    2  502    0 -0.12266311373E+03  0.15797430651E+03  0.39977364290E+03  0.44703822716E+03  0.47000000000E+01 0.  1.
         -5    1    1    2    0  502  0.21424022385E+02  0.35079427336E+02  0.18272738434E+03  0.18735245380E+03  0.47000000000E+01 0.  1.
        -11    1    1    2    0    0  0.15873403897E+02 -0.42513780392E+02  0.41153567767E+02  0.61261754908E+02  0.00000000000E+00 0.  1.
         11    1    1    2    0    0  0.85365687445E+02 -0.15053995345E+03  0.40312742488E+03  0.43870411312E+03  0.00000000000E+00 0. -1.
<mgrwt>
<rscale>  0 0.24559958E+03</rscale>
<asrwt>0</asrwt>
<pdfrwt beam="1">  1        2 0.16624141E+00 0.25128488E+03</pdfrwt>
<pdfrwt beam="2">  1       -2 0.82749645E-02 0.25128488E+03</pdfrwt>
<totfact> 0.21011816E+03</totfact>
</mgrwt>
</event>
<event>
 6    1  0.7457796E-006  0.1480820E+03  0.7546771E-02  0.1212433E+00
         -1   -1    0    0    0  501 -0.00000000000E+00  0.00000000000E+00  0.18767585514E+03  0.18767585514E+03  0.00000000000E+00 0.  1.
          1   -1    0    0  501    0  0.00000000000E+00 -0.00000000000E+00 -0.33648785252E+03  0.33648785252E+03  0.00000000000E+00 0. -1.
          5    1    1    2  502    0 -0.69077362123E+01  0.38389522485E+02  0.88752629607E+01  0.40278189493E+02  0.47000000000E+01 0. -1.
         -5    1    1    2    0  502 -0.65382388293E+02 -0.71199874537E+02  0.13570587302E+03  0.16668069116E+03  0.47000000000E+01 0. -1.
        -11    1    1    2    0    0 -0.11269996100E+02  0.27352353030E+02 -0.13319912883E+03  0.13644475787E+03  0.00000000000E+00 0. -1.
         11    1    1    2    0    0  0.83560120606E+02  0.54579990217E+01 -0.16019400453E+03  0.18076006914E+03  0.00000000000E+00 0.  1.
<mgrwt>
<rscale>  0 0.14066786E+03</rscale>
<asrwt>0</asrwt>
<pdfrwt beam="2">  1        1 0.51767361E-01 0.14808198E+03</pdfrwt>
<pdfrwt beam="1">  1       -1 0.28873209E-01 0.14808198E+03</pdfrwt>
<totfact> 0.82506134E+02</totfact>
</mgrwt>
</event>
<event>
 6    1  0.7457796E-006  0.1764926E+03  0.7546771E-02  0.1198845E+00
         -1   -1    0    0    0  501 -0.00000000000E+00  0.00000000000E+00  0.19999805126E+03  0.19999805126E+03  0.00000000000E+00 0.  1.
          1   -1    0    0  501    0  0.00000000000E+00 -0.00000000000E+00 -0.10274835421E+03  0.10274835421E+03  0.00000000000E+00 0. -1.
          5    1    1    2  502    0  0.23297083962E+02  0.60523634818E+02  0.13982097382E+03  0.15420071081E+03  0.47000000000E+01 0. -1.
         -5    1    1    2    0  502  0.74302811358E+00 -0.41365461427E+02 -0.32093953711E+02  0.52571526083E+02  0.47000000000E+01 0.  1.
        -11    1    1    2    0    0  0.24465966473E+02  0.11434601998E+01 -0.31017267574E+02  0.39521663735E+02  0.00000000000E+00 0. -1.
         11    1    1    2    0    0 -0.48506078549E+02 -0.20301633590E+02  0.20539944511E+02  0.56452504844E+02  0.00000000000E+00 0.  1.
<mgrwt>
<rscale>  0 0.15133266E+03</rscale>
<asrwt>0</asrwt>
<pdfrwt beam="2">  1        1 0.15807439E-01 0.17649263E+03</pdfrwt>
<pdfrwt beam="1">  1       -1 0.30768931E-01 0.17649263E+03</pdfrwt>
<totfact> 0.33196048E+03</totfact>
</mgrwt>
</event>
<event>
 6    1  0.7457796E-006  0.1462893E+03  0.7546771E-02  0.1215492E+00
         -2   -1    0    0    0  501 -0.00000000000E+00  0.00000000000E+00  0.44207112197E+02  0.44207112197E+02  0.00000000000E+00 0.  1.
          2   -1    0    0  501    0  0.00000000000E+00 -0.00000000000E+00 -0.39646986030E+03  0.39646986030E+03  0.00000000000E+00 0. -1.
          5    1    1    2  502    0  0.31014119334E+02  0.51055744364E+02 -0.48858053298E+02  0.77316000948E+02  0.47000000000E+01 0. -1.
         -5    1    1    2    0  502  0.44294976307E+02 -0.61217240975E+02 -0.16800858467E+03  0.18427851216E+03  0.47000000000E+01 0. -1.
        -11    1    1    2    0    0 -0.29440220598E+02 -0.35275404789E+02 -0.87022713761E+02  0.98407486921E+02  0.00000000000E+00 0. -1.
         11    1    1    2    0    0 -0.45868875043E+02  0.45436901400E+02 -0.48373396369E+02  0.80674972469E+02  0.00000000000E+00 0.  1.
<mgrwt>
<rscale>  0 0.13840490E+03</rscale>
<asrwt>0</asrwt>
<pdfrwt beam="2">  1        2 0.60995361E-01 0.14628927E+03</pdfrwt>
<pdfrwt beam="1">  1       -2 0.68010944E-02 0.14628927E+03</pdfrwt>
<totfact> 0.93861840E+03</totfact>
</mgrwt>
</event>
<event>
 6    1  0.7457796E-006  0.1258385E+03  0.7546771E-02  0.1249695E+00
         -2   -1    0    0    0  501 -0.00000000000E+00  0.00000000000E+00  0.62226124916E+02  0.62226124916E+02  0.00000000000E+00 0.  1.
          2   -1    0    0  501    0  0.00000000000E+00 -0.00000000000E+00 -0.23581472811E+03  0.23581472811E+03  0.00000000000E+00 0. -1.
          5    1    1    2  502    0  0.35796386550E+02 -0.94929217688E+01 -0.69731179954E+02  0.79095033418E+02  0.47000000000E+01 0. -1.
         -5    1    1    2    0  502 -0.33728692856E+02 -0.48793831890E+01  0.37414552329E+02  0.50826880959E+02  0.47000000000E+01 0. -1.
        -11    1    1    2    0    0  0.20719181547E+01  0.38131584874E+02 -0.17477818635E+02  0.41997437470E+02  0.00000000000E+00 0.  1.
         11    1    1    2    0    0 -0.41396118487E+01 -0.23759279916E+02 -0.12379415694E+03  0.12612150118E+03  0.00000000000E+00 0. -1.
<mgrwt>
<rscale>  0 0.11608754E+03</rscale>
<asrwt>0</asrwt>
<pdfrwt beam="2">  1        2 0.36279189E-01 0.12583855E+03</pdfrwt>
<pdfrwt beam="1">  1       -2 0.95732500E-02 0.12583855E+03</pdfrwt>
<totfact> 0.95052722E+03</totfact>
</mgrwt>
</event>
<event>
 6    1  0.7457796E-006  0.1501845E+03  0.7546771E-02  0.1220242E+00
          1   -1    0    0  501    0  0.00000000000E+00  0.00000000000E+00  0.22510742072E+03  0.22510742072E+03  0.00000000000E+00 0. -1.
         -1   -1    0    0    0  501 -0.00000000000E+00 -0.00000000000E+00 -0.24993826071E+03  0.24993826071E+03  0.00000000000E+00 0.  1.
          5    1    1    2  502    0  0.66917657768E+02 -0.29761396019E+02 -0.39628553120E+02  0.83403991730E+02  0.47000000000E+01 0. -1.
         -5    1    1    2    0  502 -0.25816450011E+02  0.24177643106E+02 -0.17469639325E+03  0.17830302110E+03  0.47000000000E+01 0.  1.
        -11    1    1    2    0    0  0.14060637569E+02 -0.29235887708E+02  0.54869017566E+02  0.63742040661E+02  0.00000000000E+00 0.  1.
         11    1    1    2    0    0 -0.55161845325E+02  0.34819640621E+02  0.13462508882E+03  0.14959662794E+03  0.00000000000E+00 0. -1.
<mgrwt>
<rscale>  0 0.13498424E+03</rscale>
<asrwt>0</asrwt>
<pdfrwt beam="1">  1        1 0.34631911E-01 0.15018448E+03</pdfrwt>
<pdfrwt beam="2">  1       -1 0.38452040E-01 0.15018448E+03</pdfrwt>
<totfact> 0.83308151E+02</totfact>
</mgrwt>
</event>
<event>
 6    1  0.7457796E-006  0.2487697E+03  0.7546771E-02  0.1114085E+00
          1   -1    0    0  501    0  0.00000000000E+00  0.00000000000E+00  0.57703242798E+02  0.57703242798E+02  0.00000000000E+00 0. -1.
         -1   -1    0    0    0  501 -0.00000000000E+00 -0.00000000000E+00 -0.26812342291E+03  0.26812342291E+03  0.00000000000E+00 0.  1.
          5    1    1    2  502    0  0.31987874239E+01 -0.13593911232E+01 -0.13392240395E+03  0.13404991781E+03  0.47000000000E+01 0. -1.
         -5    1    1    2    0  502 -0.17740026172E+02 -0.56343842854E+02 -0.10288839182E+01  0.59266227806E+02  0.47000000000E+01 0. -1.
        -11    1    1    2    0    0  0.36622422888E+02  0.73206449766E+02 -0.54489411923E+02  0.98333525093E+02  0.00000000000E+00 0.  1.
         11    1    1    2    0    0 -0.22081184139E+02 -0.15503215788E+02 -0.20979480322E+02  0.34176995002E+02  0.00000000000E+00 0. -1.
<mgrwt>
<rscale>  0 0.24876970E+03</rscale>
<asrwt>0</asrwt>
<pdfrwt beam="1">  1        1 0.88774222E-02 0.24876970E+03</pdfrwt>
<pdfrwt beam="2">  1       -1 0.41249756E-01 0.24876970E+03</pdfrwt>
<totfact> 0.43625447E+03</totfact>
</mgrwt>
</event>
<event>
 6    1  0.7457796E-006  0.2780491E+03  0.7546771E-02  0.1096759E+00
         -1   -1    0    0    0  501 -0.00000000000E+00  0.00000000000E+00  0.89358217924E+03  0.89358217924E+03  0.00000000000E+00 0.  1.
          1   -1    0    0  501    0  0.00000000000E+00 -0.00000000000E+00 -0.21629602504E+02  0.21629602504E+02  0.00000000000E+00 0. -1.
          5    1    1    2  502    0  0.13799237756E+02 -0.10030363540E+03  0.44819192632E+03  0.45950988135E+03  0.47000000000E+01 0. -1.
         -5    1    1    2    0  502 -0.11736502221E+02  0.19708994342E+02  0.17141788279E+02  0.29019318527E+02  0.47000000000E+01 0. -1.
        -11    1    1    2    0    0  0.34495068501E+02  0.83084442668E+02  0.32490013470E+03  0.33712465334E+03  0.00000000000E+00 0.  1.
         11    1    1    2    0    0 -0.36557804035E+02 -0.24898016094E+01  0.81718727437E+02  0.89557928526E+02  0.00000000000E+00 0. -1.
<mgrwt>
<rscale>  0 0.27804911E+03</rscale>
<asrwt>0</asrwt>
<pdfrwt beam="2">  1        1 0.33276319E-02 0.27804911E+03</pdfrwt>
<pdfrwt beam="1">  1       -1 0.13747415E+00 0.27804911E+03</pdfrwt>
<totfact> 0.13943160E+03</totfact>
</mgrwt>
</event>
<event>
 6    1  0.7457796E-006  0.1254785E+03  0.7546771E-02  0.1249594E+00
         -1   -1    0    0    0  501 -0.00000000000E+00  0.00000000000E+00  0.48414631036E+02  0.48414631036E+02  0.00000000000E+00 0.  1.
          1   -1    0    0  501    0  0.00000000000E+00 -0.00000000000E+00 -0.24493569704E+03  0.24493569704E+03  0.00000000000E+00 0. -1.
          5    1    1    2  502    0  0.51102167023E+02  0.21746547932E+01 -0.10914250214E+03  0.12062477511E+03  0.47000000000E+01 0. -1.
         -5    1    1    2    0  502 -0.43611910652E+02  0.57974732259E+01  0.21182715607E+01  0.44296574596E+02  0.47000000000E+01 0. -1.
        -11    1    1    2    0    0 -0.41100867058E+02  0.22330172017E+02 -0.42787862225E+02  0.63393367232E+02  0.00000000000E+00 0.  1.
         11    1    1    2    0    0  0.33610610686E+02 -0.30302300036E+02 -0.46708973199E+02  0.65035611133E+02  0.00000000000E+00 0. -1.
<mgrwt>
<rscale>  0 0.11614599E+03</rscale>
<asrwt>0</asrwt>
<pdfrwt beam="2">  1        1 0.37682415E-01 0.12547855E+03</pdfrwt>
<pdfrwt beam="1">  1       -1 0.74484047E-02 0.12547855E+03</pdfrwt>
<totfact> 0.10211854E+04</totfact>
</mgrwt>
</event>
<event>
 6    1  0.7457796E-006  0.1741568E+03  0.7546771E-02  0.1177146E+00
          2   -1    0    0  501    0  0.00000000000E+00  0.00000000000E+00  0.10259225881E+04  0.10259225881E+04  0.00000000000E+00 0.  1.
         -2   -1    0    0    0  501 -0.00000000000E+00 -0.00000000000E+00 -0.30952490068E+02  0.30952490068E+02  0.00000000000E+00 0. -1.
          5    1    1    2  502    0 -0.43237142886E+02  0.87909318743E+02  0.11918202041E+03  0.15435006588E+03  0.47000000000E+01 0.  1.
         -5    1    1    2    0  502  0.46306649365E+02  0.33327473583E+02  0.21498734642E+03  0.22247848299E+03  0.47000000000E+01 0.  1.
        -11    1    1    2    0    0  0.93177806377E+01 -0.11455216849E+03  0.65469007620E+03  0.66470152416E+03  0.00000000000E+00 0.  1.
         11    1    1    2    0    0 -0.12387287117E+02 -0.66846238377E+01  0.61106549705E+01  0.15345005120E+02  0.00000000000E+00 0. -1.
<mgrwt>
<rscale>  0 0.17067493E+03</rscale>
<asrwt>0</asrwt>
<pdfrwt beam="1">  1        2 0.15783422E+00 0.17415680E+03</pdfrwt>
<pdfrwt beam="2">  1       -2 0.47619223E-02 0.17415680E+03</pdfrwt>
<totfact> 0.52575126E+03</totfact>
</mgrwt>
</event>
<event>
 6    1  0.7457796E-006  0.3678354E+03  0.7546771E-02  0.1055524E+00
          2   -1    0    0  501    0  0.00000000000E+00  0.00000000000E+00  0.10404758474E+03  0.10404758474E+03  0.00000000000E+00 0. -1.
         -2   -1    0    0    0  501 -0.00000000000E+00 -0.00000000000E+00 -0.32509850407E+03  0.32509850407E+03  0.00000000000E+00 0.  1.
          5    1    1    2  502    0  0.11365665643E+03 -0.11312475095E+03 -0.77677885321E+02  0.17824418279E+03  0.47000000000E+01 0. -1.
         -5    1    1    2    0  502  0.68054787145E+01  0.26392562725E+02 -0.40249479937E+02  0.48836385441E+02  0.47000000000E+01 0. -1.
        -11    1    1    2    0    0 -0.41493269379E+02 -0.37114765688E+01  0.30735455889E+01  0.41772157529E+02  0.00000000000E+00 0. -1.
         11    1    1    2    0    0 -0.78968865769E+02  0.90443664794E+02 -0.10619709967E+03  0.16029336305E+03  0.00000000000E+00 0.  1.
<mgrwt>
<rscale>  0 0.36783537E+03</rscale>
<asrwt>0</asrwt>
<pdfrwt beam="1">  1        2 0.16007321E-01 0.36783537E+03</pdfrwt>
<pdfrwt beam="2">  1       -2 0.50015154E-01 0.36783537E+03</pdfrwt>
<totfact> 0.13928076E+03</totfact>
</mgrwt>
</event>
<event>
 6    1  0.7457796E-006  0.1203214E+03  0.7546771E-02  0.1304841E+00
          4   -1    0    0  501    0  0.00000000000E+00  0.00000000000E+00  0.12891835850E+02  0.12891835850E+02  0.00000000000E+00 0.  1.
         -4   -1    0    0    0  501 -0.00000000000E+00 -0.00000000000E+00 -0.48557590896E+03  0.48557590896E+03  0.00000000000E+00 0. -1.
          5    1    1    2  502    0 -0.24568187771E+00  0.49713269211E+02 -0.63167399240E+02  0.80521300424E+02  0.47000000000E+01 0.  1.
         -5    1    1    2    0  502  0.24369585801E+01 -0.21713536025E+02 -0.32734555205E+03  0.32810762999E+03  0.47000000000E+01 0. -1.
        -11    1    1    2    0    0 -0.10020689219E+02 -0.41009274299E+01 -0.19392837193E+02  0.22210672042E+02  0.00000000000E+00 0. -1.
         11    1    1    2    0    0  0.78294125163E+01 -0.23898805756E+02 -0.62778284629E+02  0.67628142351E+02  0.00000000000E+00 0.  1.
<mgrwt>
<rscale>  0 0.89183480E+02</rscale>
<asrwt>0</asrwt>
<pdfrwt beam="1">  1        4 0.19833595E-02 0.12032139E+03</pdfrwt>
<pdfrwt beam="2">  1       -4 0.74703979E-01 0.12032139E+03</pdfrwt>
<totfact> 0.27211906E+03</totfact>
</mgrwt>
</event>
<event>
 6    1  0.7457796E-006  0.2248203E+03  0.7546771E-02  0.1133640E+00
         -1   -1    0    0    0  501 -0.00000000000E+00  0.00000000000E+00  0.47641075063E+03  0.47641075063E+03  0.00000000000E+00 0.  1.
          1   -1    0    0  501    0  0.00000000000E+00 -0.00000000000E+00 -0.99995294372E+02  0.99995294372E+02  0.00000000000E+00 0. -1.
          5    1    1    2  502    0  0.15836364951E+02  0.39808811069E+02  0.10670909637E+03  0.11508454779E+03  0.47000000000E+01 0. -1.
         -5    1    1    2    0  502  0.16651633276E+03  0.10493473471E+01  0.12939530984E+03  0.21093607187E+03  0.47000000000E+01 0. -1.
        -11    1    1    2    0    0 -0.14778116059E+03 -0.24915166399E+02  0.14900462063E+03  0.21133483837E+03  0.00000000000E+00 0.  1.
         11    1    1    2    0    0 -0.34571537122E+02 -0.15942992017E+02 -0.86935705718E+01  0.39050586970E+02  0.00000000000E+00 0. -1.
<mgrwt>
<rscale>  0 0.22032679E+03</rscale>
<asrwt>0</asrwt>
<pdfrwt beam="2">  1        1 0.15383892E-01 0.22482027E+03</pdfrwt>
<pdfrwt beam="1">  1       -1 0.73293960E-01 0.22482027E+03</pdfrwt>
<totfact> 0.70382282E+02</totfact>
</mgrwt>
</event>
<event>
 6    1  0.7457796E-006  0.1340967E+03  0.7546771E-02  0.1234200E+00
          2   -1    0    0  501    0  0.00000000000E+00  0.00000000000E+00  0.43393557721E+03  0.43393557721E+03  0.00000000000E+00 0. -1.
         -2   -1    0    0    0  501 -0.00000000000E+00 -0.00000000000E+00 -0.36576694464E+02  0.36576694464E+02  0.00000000000E+00 0.  1.
          5    1    1    2  502    0  0.14689060028E+00 -0.22858023150E+02 -0.14331903028E+02  0.27386205352E+02  0.47000000000E+01 0.  1.
         -5    1    1    2    0  502 -0.45550949994E+02  0.40031838375E+02  0.15719485954E+03  0.16855192374E+03  0.47000000000E+01 0.  1.
        -11    1    1    2    0    0  0.48751629889E+02 -0.30311864436E+02  0.25462456666E+03  0.26101570928E+03  0.00000000000E+00 0. -1.
         11    1    1    2    0    0 -0.33475704950E+01  0.13138049210E+02 -0.12864043388E+00  0.13558433303E+02  0.00000000000E+00 0.  1.
<mgrwt>
<rscale>  0 0.12555770E+03</rscale>
<asrwt>0</asrwt>
<pdfrwt beam="1">  1        2 0.66759316E-01 0.13409670E+03</pdfrwt>
<pdfrwt beam="2">  1       -2 0.56271841E-02 0.13409670E+03</pdfrwt>
<totfact> 0.11293369E+04</totfact>
</mgrwt>
</event>
<event>
 6    1  0.7457796E-006  0.2088874E+03  0.7546771E-02  0.1158759E+00
         -1   -1    0    0    0  501 -0.00000000000E+00  0.00000000000E+00  0.11329186163E+03  0.11329186163E+03  0.00000000000E+00 0.  1.
          1   -1    0    0  501    0  0.00000000000E+00 -0.00000000000E+00 -0.28957511952E+03  0.28957511952E+03  0.00000000000E+00 0. -1.
          5    1    1    2  502    0 -0.27145139644E+02  0.12982758357E+03 -0.16019809244E+02  0.13368165301E+03  0.47000000000E+01 0. -1.
         -5    1    1    2    0  502  0.66978563469E+02 -0.27584376104E+02 -0.38669776378E+02  0.82246382137E+02  0.47000000000E+01 0.  1.
        -11    1    1    2    0    0 -0.56732297879E+02 -0.89164246679E+02 -0.12667835795E+03  0.16497340052E+03  0.00000000000E+00 0.  1.
         11    1    1    2    0    0  0.16898874054E+02 -0.13078960789E+02  0.50846856794E+01  0.21965545476E+02  0.00000000000E+00 0. -1.
<mgrwt>
<rscale>  0 0.18967001E+03</rscale>
<asrwt>0</asrwt>
<pdfrwt beam="2">  1        1 0.44550018E-01 0.20888745E+03</pdfrwt>
<pdfrwt beam="1">  1       -1 0.17429517E-01 0.20888745E+03</pdfrwt>
<totfact> 0.22885101E+03</totfact>
</mgrwt>
</event>
<event>
 6    1  0.7457796E-006  0.1363933E+03  0.7546771E-02  0.1229965E+00
          1   -1    0    0  501    0  0.00000000000E+00  0.00000000000E+00  0.26409434281E+03  0.26409434281E+03  0.00000000000E+00 0. -1.
         -1   -1    0    0    0  501 -0.00000000000E+00 -0.00000000000E+00 -0.57618214662E+02  0.57618214662E+02  0.00000000000E+00 0.  1.
          5    1    1    2  502    0 -0.20288268802E+02  0.40724424893E+02  0.86821481981E+02  0.98133339734E+02  0.47000000000E+01 0. -1.
         -5    1    1    2    0  502  0.63923385403E+02 -0.79637316126E+01  0.19771801215E+01  0.64619033293E+02  0.47000000000E+01 0. -1.
        -11    1    1    2    0    0 -0.26018940737E+02 -0.54015138388E+02  0.30004874636E+02  0.67044112001E+02  0.00000000000E+00 0.  1.
         11    1    1    2    0    0 -0.17616175864E+02  0.21254445108E+02  0.87672591408E+02  0.91916072442E+02  0.00000000000E+00 0. -1.
<mgrwt>
<rscale>  0 0.12832307E+03</rscale>
<asrwt>0</asrwt>
<pdfrwt beam="1">  1        1 0.40629898E-01 0.13639330E+03</pdfrwt>
<pdfrwt beam="2">  1       -1 0.88643409E-02 0.13639330E+03</pdfrwt>
<totfact> 0.72011195E+03</totfact>
</mgrwt>
</event>
<event>
 6    1  0.7457796E-006  0.1876250E+03  0.7546771E-02  0.1165716E+00
         -4   -1    0    0    0  501 -0.00000000000E+00  0.00000000000E+00  0.18169687948E+03  0.18169687948E+03  0.00000000000E+00 0.  1.
          4   -1    0    0  501    0  0.00000000000E+00 -0.00000000000E+00 -0.20731102399E+03  0.20731102399E+03  0.00000000000E+00 0. -1.
          5    1    1    2  502    0 -0.66741774738E+02 -0.64068575279E+02  0.38887903713E+02  0.10046693928E+03  0.47000000000E+01 0.  1.
         -5    1    1    2    0  502  0.56817937640E+02 -0.75502181726E+02  0.26930381351E+02  0.98367641645E+02  0.47000000000E+01 0.  1.
        -11    1    1    2    0    0 -0.25593776982E+02  0.40548864932E+02 -0.66629638727E+02  0.82089954467E+02  0.00000000000E+00 0. -1.
         11    1    1    2    0    0  0.35517614079E+02  0.99021892073E+02 -0.24802790845E+02  0.10808336807E+03  0.00000000000E+00 0.  1.
<mgrwt>
<rscale>  0 0.18217357E+03</rscale>
<asrwt>0</asrwt>
<pdfrwt beam="2">  1        4 0.31894004E-01 0.18762501E+03</pdfrwt>
<pdfrwt beam="1">  1       -4 0.27953366E-01 0.18762501E+03</pdfrwt>
<totfact> 0.20244271E+02</totfact>
</mgrwt>
</event>
<event>
 6    1  0.7457796E-006  0.1655389E+03  0.7546771E-02  0.1189365E+00
         -2   -1    0    0    0  501 -0.00000000000E+00  0.00000000000E+00  0.86489159464E+02  0.86489159464E+02  0.00000000000E+00 0.  1.
          2   -1    0    0  501    0  0.00000000000E+00 -0.00000000000E+00 -0.27845879438E+03  0.27845879438E+03  0.00000000000E+00 0. -1.
          5    1    1    2  502    0 -0.29431384081E+02 -0.88998803027E+02 -0.11272048682E+03  0.14667989453E+03  0.47000000000E+01 0.  1.
         -5    1    1    2    0  502  0.46241666535E+01 -0.16649489250E+02  0.32626112778E+02  0.37217491110E+02  0.47000000000E+01 0.  1.
        -11    1    1    2    0    0 -0.73236709987E+01  0.16480257197E+02  0.14459007575E+02  0.23114885555E+02  0.00000000000E+00 0.  1.
         11    1    1    2    0    0  0.32130888426E+02  0.89168035079E+02 -0.12633426844E+03  0.15793568265E+03  0.00000000000E+00 0. -1.
<mgrwt>
<rscale>  0 0.15940932E+03</rscale>
<asrwt>0</asrwt>
<pdfrwt beam="2">  1        2 0.42839815E-01 0.16553894E+03</pdfrwt>
<pdfrwt beam="1">  1       -2 0.13306024E-01 0.16553894E+03</pdfrwt>
<totfact> 0.48006859E+03</totfact>
</mgrwt>
</event>
<event>
 6    1  0.7457796E-006  0.3900131E+03  0.7546771E-02  0.1047294E+00
         -2   -1    0    0    0  501 -0.00000000000E+00  0.00000000000E+00  0.44716137438E+02  0.44716137438E+02  0.00000000000E+00 0.  1.
          2   -1    0    0  501    0  0.00000000000E+00 -0.00000000000E+00 -0.85042148293E+03  0.85042148293E+03  0.00000000000E+00 0. -1.
          5    1    1    2  502    0 -0.99833233079E+01 -0.20315770402E+02 -0.69697634799E+01  0.24146736306E+02  0.47000000000E+01 0.  1.
         -5    1    1    2    0  502  0.15524041194E+03  0.36026308047E+02 -0.25679342079E+03  0.30226218972E+03  0.47000000000E+01 0.  1.
        -11    1    1    2    0    0 -0.66019483953E+02 -0.86258881320E+01 -0.10307011018E+03  0.12270462836E+03  0.00000000000E+00 0.  1.
         11    1    1    2    0    0 -0.79237604683E+02 -0.70846495134E+01 -0.43887205104E+03  0.44602406598E+03  0.00000000000E+00 0. -1.
<mgrwt>
<rscale>  0 0.39001315E+03</rscale>
<asrwt>0</asrwt>
<pdfrwt beam="2">  1        2 0.13083407E+00 0.39001315E+03</pdfrwt>
<pdfrwt beam="1">  1       -2 0.68794061E-02 0.39001315E+03</pdfrwt>
<totfact> 0.39422790E+03</totfact>
</mgrwt>
</event>
<event>
 6    1  0.7457796E-006  0.4050978E+03  0.7546771E-02  0.1042029E+00
          1   -1    0    0  501    0  0.00000000000E+00  0.00000000000E+00  0.72131796906E+03  0.72131796906E+03  0.00000000000E+00 0. -1.
         -1   -1    0    0    0  501 -0.00000000000E+00 -0.00000000000E+00 -0.56876533809E+02  0.56876533809E+02  0.00000000000E+00 0.  1.
          5    1    1    2  502    0  0.13247334701E+03 -0.10897490130E+03  0.17679196335E+03  0.24637817494E+03  0.47000000000E+01 0. -1.
         -5    1    1    2    0  502 -0.25829270148E+02 -0.32320551557E+01  0.39170302106E+02  0.47265208599E+02  0.47000000000E+01 0. -1.
        -11    1    1    2    0    0 -0.69381041905E+02  0.20028080781E+02  0.10852171975E+03  0.13035266262E+03  0.00000000000E+00 0.  1.
         11    1    1    2    0    0 -0.37263034954E+02  0.92178875673E+02  0.33995745004E+03  0.35419845671E+03  0.00000000000E+00 0. -1.
<mgrwt>
<rscale>  0 0.40509784E+03</rscale>
<asrwt>0</asrwt>
<pdfrwt beam="1">  1        1 0.11097199E+00 0.40509784E+03</pdfrwt>
<pdfrwt beam="2">  1       -1 0.87502365E-02 0.40509784E+03</pdfrwt>
<totfact> 0.20278969E+03</totfact>
</mgrwt>
</event>
<event>
 6    1  0.7457796E-006  0.1380720E+03  0.7546771E-02  0.1228874E+00
          1   -1    0    0  501    0  0.00000000000E+00  0.00000000000E+00  0.26475017669E+03  0.26475017669E+03  0.00000000000E+00 0.  1.
         -1   -1    0    0    0  501 -0.00000000000E+00 -0.00000000000E+00 -0.60344659597E+02  0.60344659597E+02  0.00000000000E+00 0. -1.
          5    1    1    2  502    0 -0.64794050506E+02  0.22930599265E+02  0.34773976876E+00  0.68893339929E+02  0.47000000000E+01 0.  1.
         -5    1    1    2    0  502  0.11648094849E+02 -0.47733834496E+02  0.71144061102E+02  0.86589632748E+02  0.47000000000E+01 0.  1.
        -11    1    1    2    0    0  0.27402998743E+02  0.34858744482E+02  0.12501799390E+02  0.46068985173E+02  0.00000000000E+00 0. -1.
         11    1    1    2    0    0  0.25742956915E+02 -0.10055509250E+02  0.12041191683E+03  0.12354287844E+03  0.00000000000E+00 0.  1.
<mgrwt>
<rscale>  0 0.12904910E+03</rscale>
<asrwt>0</asrwt>
<pdfrwt beam="1">  1        1 0.40730796E-01 0.13807200E+03</pdfrwt>
<pdfrwt beam="2">  1       -1 0.92837939E-02 0.13807200E+03</pdfrwt>
<totfact> 0.66976772E+03</totfact>
</mgrwt>
</event>
<event>
 6    1  0.7457796E-006  0.1265760E+03  0.7546771E-02  0.1251062E+00
          1   -1    0    0  501    0  0.00000000000E+00  0.00000000000E+00  0.42870496646E+03  0.42870496646E+03  0.00000000000E+00 0. -1.
         -1   -1    0    0    0  501 -0.00000000000E+00 -0.00000000000E+00 -0.27053006430E+02  0.27053006430E+02  0.00000000000E+00 0.  1.
          5    1    1    2  502    0  0.60648375266E+01 -0.45644757225E+02  0.34444548013E+02  0.57695259807E+02  0.47000000000E+01 0.  1.
         -5    1    1    2    0  502 -0.12902375365E+02  0.64526629174E+02  0.17504958274E+03  0.18706844625E+03  0.47000000000E+01 0.  1.
        -11    1    1    2    0    0  0.36258046807E+02 -0.20489756267E+02  0.46660040023E+02  0.62543068402E+02  0.00000000000E+00 0.  1.
         11    1    1    2    0    0 -0.29420508968E+02  0.16078843192E+01  0.14549778925E+03  0.14845119843E+03  0.00000000000E+00 0. -1.
<mgrwt>
<rscale>  0 0.11529805E+03</rscale>
<asrwt>0</asrwt>
<pdfrwt beam="1">  1        1 0.65954605E-01 0.12657599E+03</pdfrwt>
<pdfrwt beam="2">  1       -1 0.41620013E-02 0.12657599E+03</pdfrwt>
<totfact> 0.12082717E+04</totfact>
</mgrwt>
</event>
<event>
 6    1  0.7457796E-006  0.1560774E+03  0.7546771E-02  0.1201561E+00
         -3   -1    0    0    0  501 -0.00000000000E+00  0.00000000000E+00  0.17744360217E+03  0.17744360217E+03  0.00000000000E+00 0.  1.
          3   -1    0    0  501    0  0.00000000000E+00 -0.00000000000E+00 -0.12666312167E+03  0.12666312167E+03  0.00000000000E+00 0. -1.
          5    1    1    2  502    0 -0.26615842429E+02 -0.40176724887E+01  0.93653531399E+02  0.97558283625E+02  0.47000000000E+01 0.  1.
         -5    1    1    2    0  502 -0.46792794806E+02 -0.54090661548E+02 -0.20874107055E+02  0.74653758497E+02  0.47000000000E+01 0.  1.
        -11    1    1    2    0    0 -0.17764414976E+02 -0.47433873862E+01 -0.87644016443E+01  0.20368821751E+02  0.00000000000E+00 0. -1.
         11    1    1    2    0    0  0.91173052211E+02  0.62851721423E+02 -0.13234542198E+02  0.11152585997E+03  0.00000000000E+00 0.  1.
<mgrwt>
<rscale>  0 0.14911802E+03</rscale>
<asrwt>0</asrwt>
<pdfrwt beam="2">  1        3 0.19486634E-01 0.15607736E+03</pdfrwt>
<pdfrwt beam="1">  1       -3 0.27299016E-01 0.15607736E+03</pdfrwt>
<totfact> 0.70939421E+02</totfact>
</mgrwt>
</event>
<event>
 6    1  0.7457796E-006  0.1299141E+03  0.7546771E-02  0.1244807E+00
          1   -1    0    0  501    0  0.00000000000E+00  0.00000000000E+00  0.96517027110E+02  0.96517027110E+02  0.00000000000E+00 0. -1.
         -1   -1    0    0    0  501 -0.00000000000E+00 -0.00000000000E+00 -0.12910849916E+03  0.12910849916E+03  0.00000000000E+00 0.  1.
          5    1    1    2  502    0  0.23619884335E+02  0.54471273824E+02 -0.61507765499E+02  0.85617251911E+02  0.47000000000E+01 0.  1.
         -5    1    1    2    0  502  0.83170653516E+01 -0.38851846939E+02  0.27653054003E+02  0.48635593780E+02  0.47000000000E+01 0.  1.
        -11    1    1    2    0    0  0.19372848646E+02 -0.31486502617E+02  0.60173375875E+01  0.37455513124E+02  0.00000000000E+00 0. -1.
         11    1    1    2    0    0 -0.51309798333E+02  0.15867075733E+02 -0.47540981391E+01  0.53917167455E+02  0.00000000000E+00 0.  1.
<mgrwt>
<rscale>  0 0.11896961E+03</rscale>
<asrwt>0</asrwt>
<pdfrwt beam="1">  1        1 0.14848774E-01 0.12991415E+03</pdfrwt>
<pdfrwt beam="2">  1       -1 0.19862846E-01 0.12991415E+03</pdfrwt>
<totfact> 0.72647906E+03</totfact>
</mgrwt>
</event>
<event>
 6    1  0.7457796E-006  0.1415589E+03  0.7546771E-02  0.1221944E+00
          1   -1    0    0  501    0  0.00000000000E+00  0.00000000000E+00  0.25808767487E+03  0.25808767487E+03  0.00000000000E+00 0. -1.
         -1   -1    0    0    0  501 -0.00000000000E+00 -0.00000000000E+00 -0.77282634906E+02  0.77282634906E+02  0.00000000000E+00 0.  1.
          5    1    1    2  502    0 -0.41986584343E+02  0.89359458753E+02  0.27892121532E+02  0.10270368337E+03  0.47000000000E+01 0.  1.
         -5    1    1    2    0  502 -0.33890474951E+01 -0.40834275165E+02 -0.16083028763E+01  0.41274693328E+02  0.47000000000E+01 0.  1.
        -11    1    1    2    0    0  0.39281921713E+02 -0.64578280706E+02  0.15680254646E+03  0.17407027974E+03  0.00000000000E+00 0. -1.
         11    1    1    2    0    0  0.60937101255E+01  0.16053097118E+02 -0.22813251483E+01  0.17321653345E+02  0.00000000000E+00 0.  1.
<mgrwt>
<rscale>  0 0.13378550E+03</rscale>
<asrwt>0</asrwt>
<pdfrwt beam="1">  1        1 0.39705796E-01 0.14155894E+03</pdfrwt>
<pdfrwt beam="2">  1       -1 0.11889636E-01 0.14155894E+03</pdfrwt>
<totfact> 0.47388948E+03</totfact>
</mgrwt>
</event>
<event>
 6    1  0.7457796E-006  0.2442416E+03  0.7546771E-02  0.1116999E+00
          1   -1    0    0  501    0  0.00000000000E+00  0.00000000000E+00  0.46073734908E+02  0.46073734908E+02  0.00000000000E+00 0. -1.
         -1   -1    0    0    0  501 -0.00000000000E+00 -0.00000000000E+00 -0.32368732663E+03  0.32368732663E+03  0.00000000000E+00 0.  1.
          5    1    1    2  502    0 -0.23174844291E+02  0.20834499970E+02 -0.79030547672E+02  0.85082708362E+02  0.47000000000E+01 0. -1.
         -5    1    1    2    0  502  0.78584767628E+02 -0.45270732155E+02 -0.11778524810E+03  0.14872948451E+03  0.47000000000E+01 0.  1.
        -11    1    1    2    0    0 -0.58362856928E+02 -0.87844885700E+01 -0.83760689251E+02  0.10246581563E+03  0.00000000000E+00 0.  1.
         11    1    1    2    0    0  0.29529335911E+01  0.33220720755E+02  0.29628932971E+01  0.33483053042E+02  0.00000000000E+00 0. -1.
<mgrwt>
<rscale>  0 0.24424155E+03</rscale>
<asrwt>0</asrwt>
<pdfrwt beam="1">  1        1 0.70882671E-02 0.24424155E+03</pdfrwt>
<pdfrwt beam="2">  1       -1 0.49798049E-01 0.24424155E+03</pdfrwt>
<totfact> 0.42065590E+03</totfact>
</mgrwt>
</event>
<event>
 6    1  0.7457796E-006  0.1317859E+03  0.7546771E-02  0.1239403E+00
         -4   -1    0    0    0  501 -0.00000000000E+00  0.00000000000E+00  0.67267750029E+03  0.67267750029E+03  0.00000000000E+00 0.  1.
          4   -1    0    0  501    0  0.00000000000E+00 -0.00000000000E+00 -0.19917419390E+02  0.19917419390E+02  0.00000000000E+00 0. -1.
          5    1    1    2  502    0  0.50585104900E+02 -0.63427770674E+02  0.35035827205E+03  0.35965948302E+03  0.47000000000E+01 0.  1.
         -5    1    1    2    0  502 -0.20436998955E+02  0.34538413980E+02  0.69462394824E+02  0.80359736568E+02  0.47000000000E+01 0.  1.
        -11    1    1    2    0    0  0.23366067829E+02  0.99006834726E+01  0.20336208677E+02  0.32520117502E+02  0.00000000000E+00 0.  1.
         11    1    1    2    0    0 -0.53514173775E+02  0.18988673221E+02  0.21260320535E+03  0.22005558259E+03  0.00000000000E+00 0. -1.
<mgrwt>
<rscale>  0 0.12226706E+03</rscale>
<asrwt>0</asrwt>
<pdfrwt beam="2">  1        4 0.30642189E-02 0.13178589E+03</pdfrwt>
<pdfrwt beam="1">  1       -4 0.10348883E+00 0.13178589E+03</pdfrwt>
<totfact> 0.67966983E+02</totfact>
</mgrwt>
</event>
<event>
 6    1  0.7457796E-006  0.1520520E+03  0.7546771E-02  0.1206485E+00
         -1   -1    0    0    0  501 -0.00000000000E+00  0.00000000000E+00  0.33323511626E+03  0.33323511626E+03  0.00000000000E+00 0.  1.
          1   -1    0    0  501    0  0.00000000000E+00 -0.00000000000E+00 -0.81661175619E+02  0.81661175619E+02  0.00000000000E+00 0. -1.
          5    1    1    2  502    0 -0.46825761910E+02  0.90178064265E+02  0.21899780453E+03  0.24146814209E+03  0.47000000000E+01 0. -1.
         -5    1    1    2    0  502 -0.18857406469E+02 -0.33770633859E+02  0.25875770390E+02  0.46772887267E+02  0.47000000000E+01 0. -1.
        -11    1    1    2    0    0  0.84774847718E+01 -0.74160752503E+01  0.41994538487E+02  0.43478813035E+02  0.00000000000E+00 0.  1.
         11    1    1    2    0    0  0.57205683607E+02 -0.48991355155E+02 -0.35294172774E+02  0.83176449484E+02  0.00000000000E+00 0. -1.
<mgrwt>
<rscale>  0 0.14521045E+03</rscale>
<asrwt>0</asrwt>
<pdfrwt beam="2">  1        1 0.12563258E-01 0.15205204E+03</pdfrwt>
<pdfrwt beam="1">  1       -1 0.51266940E-01 0.15205204E+03</pdfrwt>
<totfact> 0.18114040E+03</totfact>
</mgrwt>
</event>
<event>
 6    1  0.7457796E-006  0.1756231E+03  0.7546771E-02  0.1178602E+00
          1   -1    0    0  501    0  0.00000000000E+00  0.00000000000E+00  0.24000397496E+02  0.24000397496E+02  0.00000000000E+00 0. -1.
         -1   -1    0    0    0  501 -0.00000000000E+00 -0.00000000000E+00 -0.12075381062E+04  0.12075381062E+04  0.00000000000E+00 0.  1.
          5    1    1    2  502    0  0.11193710321E+03  0.65753123401E+02 -0.64891331848E+03  0.66178846561E+03  0.47000000000E+01 0. -1.
         -5    1    1    2    0  502 -0.32628724123E+02  0.28737623167E+02 -0.15278895026E+03  0.15892462976E+03  0.47000000000E+01 0. -1.
        -11    1    1    2    0    0 -0.46948427904E+02 -0.98249179396E+02 -0.21684576206E+03  0.24265024347E+03  0.00000000000E+00 0. -1.
         11    1    1    2    0    0 -0.32359951185E+02  0.37584328279E+01 -0.16498967791E+03  0.16817516485E+03  0.00000000000E+00 0.  1.
<mgrwt>
<rscale>  0 0.16927898E+03</rscale>
<asrwt>0</asrwt>
<pdfrwt beam="1">  1        1 0.36923686E-02 0.17562305E+03</pdfrwt>
<pdfrwt beam="2">  1       -1 0.18577510E+00 0.17562305E+03</pdfrwt>
<totfact> 0.52857981E+02</totfact>
</mgrwt>
</event>
<event>
 6    1  0.7457796E-006  0.1458909E+03  0.7546771E-02  0.1216138E+00
         -2   -1    0    0    0  501 -0.00000000000E+00  0.00000000000E+00  0.23031259704E+02  0.23031259704E+02  0.00000000000E+00 0.  1.
          2   -1    0    0  501    0  0.00000000000E+00 -0.00000000000E+00 -0.76137362324E+03  0.76137362324E+03  0.00000000000E+00 0. -1.
          5    1    1    2  502    0  0.13156256245E+02  0.89238242103E+02 -0.21419923353E+03  0.23246494914E+03  0.47000000000E+01 0.  1.
         -5    1    1    2    0  502  0.41009909912E+02 -0.37034529387E+02 -0.14330367797E+03  0.15366002472E+03  0.47000000000E+01 0.  1.
        -11    1    1    2    0    0 -0.11038564339E+02  0.25447749562E+02 -0.88994619207E+02  0.93217380934E+02  0.00000000000E+00 0. -1.
         11    1    1    2    0    0 -0.43127601818E+02 -0.77651462278E+02 -0.29184483283E+03  0.30506252815E+03  0.00000000000E+00 0.  1.
<mgrwt>
<rscale>  0 0.13793245E+03</rscale>
<asrwt>0</asrwt>
<pdfrwt beam="2">  1        2 0.11713438E+00 0.14589093E+03</pdfrwt>
<pdfrwt beam="1">  1       -2 0.35432715E-02 0.14589093E+03</pdfrwt>
<totfact> 0.11976910E+04</totfact>
</mgrwt>
</event>
<event>
 6    1  0.7457796E-006  0.1515515E+03  0.7546771E-02  0.1209450E+00
          1   -1    0    0  501    0  0.00000000000E+00  0.00000000000E+00  0.35912444063E+02  0.35912444063E+02  0.00000000000E+00 0. -1.
         -1   -1    0    0    0  501 -0.00000000000E+00 -0.00000000000E+00 -0.11025035128E+04  0.11025035128E+04  0.00000000000E+00 0.  1.
          5    1    1    2  502    0 -0.88347308974E+01  0.48455545024E+02 -0.11222388311E+03  0.12264698225E+03  0.47000000000E+01 0. -1.
         -5    1    1    2    0  502 -0.46421076042E+02  0.15733818582E+01 -0.86497737875E+03  0.86623631162E+03  0.47000000000E+01 0.  1.
        -11    1    1    2    0    0 -0.25075200883E+02 -0.25775082763E+02 -0.26942888012E+02  0.44933726811E+02  0.00000000000E+00 0.  1.
         11    1    1    2    0    0  0.80331007822E+02 -0.24253844119E+02 -0.62446918841E+02  0.10459893616E+03  0.00000000000E+00 0. -1.
<mgrwt>
<rscale>  0 0.14292242E+03</rscale>
<asrwt>0</asrwt>
<pdfrwt beam="1">  1        1 0.55249909E-02 0.15155152E+03</pdfrwt>
<pdfrwt beam="2">  1       -1 0.16961594E+00 0.15155152E+03</pdfrwt>
<totfact> 0.39220885E+02</totfact>
</mgrwt>
</event>
<event>
 6    1  0.1755400E-005  0.4475007E+03  0.7546771E-02  0.1028470E+00
         -1   -1    0    0    0  501 -0.00000000000E+00  0.00000000000E+00  0.82726825175E+02  0.82726825175E+02  0.00000000000E+00 0.  1.
          1   -1    0    0  501    0  0.00000000000E+00 -0.00000000000E+00 -0.60517517366E+03  0.60517517366E+03  0.00000000000E+00 0. -1.
          5    1    1    2  502    0 -0.81385619348E+01 -0.12202809115E+03 -0.48820997150E+01  0.12248679977E+03  0.47000000000E+01 0. -1.
         -5    1    1    2    0  502 -0.35628264967E+01 -0.39823858049E+02 -0.99660808585E+02  0.10748488345E+03  0.47000000000E+01 0. -1.
        -11    1    1    2    0    0 -0.33464553591E+01  0.81973502923E+02 -0.97743681929E+02  0.12761144659E+03  0.00000000000E+00 0.  1.
         11    1    1    2    0    0  0.15047843791E+02  0.79878446274E+02 -0.32016175826E+03  0.33031886903E+03  0.00000000000E+00 0. -1.
<mgrwt>
<rscale>  0 0.44750071E+03</rscale>
<asrwt>0</asrwt>
<pdfrwt beam="2">  1        1 0.93103874E-01 0.44750071E+03</pdfrwt>
<pdfrwt beam="1">  1       -1 0.12727204E-01 0.44750071E+03</pdfrwt>
<totfact> 0.14543332E+03</totfact>
</mgrwt>
</event>
<event>
 6    1  0.7457796E-006  0.1682001E+03  0.7546771E-02  0.1186067E+00
          1   -1    0    0  501    0  0.00000000000E+00  0.00000000000E+00  0.46092631235E+03  0.46092631235E+03  0.00000000000E+00 0. -1.
         -1   -1    0    0    0  501 -0.00000000000E+00 -0.00000000000E+00 -0.73953975218E+02  0.73953975218E+02  0.00000000000E+00 0.  1.
          5    1    1    2  502    0 -0.44347723538E+02 -0.14761158548E+02  0.56937533215E+02  0.73814531586E+02  0.47000000000E+01 0.  1.
         -5    1    1    2    0  502 -0.26505780393E+02  0.10217888685E+03  0.62063701551E+01  0.10584748624E+03  0.47000000000E+01 0.  1.
        -11    1    1    2    0    0  0.54670928496E+02  0.19870189321E+01  0.13517859314E+03  0.14582904618E+03  0.00000000000E+00 0. -1.
         11    1    1    2    0    0  0.16182575435E+02 -0.89404747238E+02  0.18864984062E+03  0.20938922356E+03  0.00000000000E+00 0.  1.
<mgrwt>
<rscale>  0 0.16235133E+03</rscale>
<asrwt>0</asrwt>
<pdfrwt beam="1">  1        1 0.70911739E-01 0.16820014E+03</pdfrwt>
<pdfrwt beam="2">  1       -1 0.11377535E-01 0.16820014E+03</pdfrwt>
<totfact> 0.24672275E+03</totfact>
</mgrwt>
</event>
<event>
 6    1  0.7457796E-006  0.1594085E+03  0.7546771E-02  0.1197147E+00
          2   -1    0    0  501    0  0.00000000000E+00  0.00000000000E+00  0.39576966386E+03  0.39576966386E+03  0.00000000000E+00 0. -1.
         -2   -1    0    0    0  501 -0.00000000000E+00 -0.00000000000E+00 -0.54678426020E+02  0.54678426020E+02  0.00000000000E+00 0.  1.
          5    1    1    2  502    0 -0.54416092058E+02  0.35912070847E+02  0.16241079055E+02  0.67354662468E+02  0.47000000000E+01 0.  1.
         -5    1    1    2    0  502  0.19823164076E+02  0.56721691743E+02  0.15647813718E+03  0.16768364727E+03  0.47000000000E+01 0.  1.
        -11    1    1    2    0    0  0.37042751084E+02 -0.10533951104E+03  0.16888292965E+03  0.20245992671E+03  0.00000000000E+00 0. -1.
         11    1    1    2    0    0 -0.24498231021E+01  0.12705748448E+02 -0.51090804880E+00  0.12949853431E+02  0.00000000000E+00 0.  1.
<mgrwt>
<rscale>  0 0.15273903E+03</rscale>
<asrwt>0</asrwt>
<pdfrwt beam="1">  1        2 0.60887639E-01 0.15940853E+03</pdfrwt>
<pdfrwt beam="2">  1       -2 0.84120658E-02 0.15940853E+03</pdfrwt>
<totfact> 0.68116829E+03</totfact>
</mgrwt>
</event>
<event>
 6    1  0.7457796E-006  0.2804420E+03  0.7546771E-02  0.1095448E+00
         -1   -1    0    0    0  501 -0.00000000000E+00  0.00000000000E+00  0.31179630762E+02  0.31179630762E+02  0.00000000000E+00 0.  1.
          1   -1    0    0  501    0  0.00000000000E+00 -0.00000000000E+00 -0.63060161544E+03  0.63060161544E+03  0.00000000000E+00 0. -1.
          5    1    1    2  502    0 -0.28180087148E+02 -0.68626996157E+01 -0.83087528861E+01  0.30534232137E+02  0.47000000000E+01 0. -1.
         -5    1    1    2    0  502  0.78124625980E+02 -0.50569410228E+02 -0.24341688508E+03  0.26064265264E+03  0.47000000000E+01 0. -1.
        -11    1    1    2    0    0  0.19754789192E+02  0.48254715471E+02 -0.95667648477E+02  0.10895443188E+03  0.00000000000E+00 0.  1.
         11    1    1    2    0    0 -0.69699328024E+02  0.91773943728E+01 -0.25202869824E+03  0.26164992955E+03  0.00000000000E+00 0. -1.
<mgrwt>
<rscale>  0 0.28044198E+03</rscale>
<asrwt>0</asrwt>
<pdfrwt beam="2">  1        1 0.97015642E-01 0.28044198E+03</pdfrwt>
<pdfrwt beam="1">  1       -1 0.47968658E-02 0.28044198E+03</pdfrwt>
<totfact> 0.61258002E+03</totfact>
</mgrwt>
</event>
<event>
 6    1  0.7457796E-006  0.1275411E+03  0.7546771E-02  0.1243632E+00
         -1   -1    0    0    0  501 -0.00000000000E+00  0.00000000000E+00  0.56098704662E+03  0.56098704662E+03  0.00000000000E+00 0.  1.
          1   -1    0    0  501    0  0.00000000000E+00 -0.00000000000E+00 -0.23035709009E+02  0.23035709009E+02  0.00000000000E+00 0. -1.
          5    1    1    2  502    0 -0.45506097036E+02 -0.27612697913E+01  0.29164882489E+03  0.29522797384E+03  0.47000000000E+01 0. -1.
         -5    1    1    2    0  502  0.35147596546E+02  0.25910163621E+02  0.37437920357E+02  0.57709427328E+02  0.47000000000E+01 0. -1.
        -11    1    1    2    0    0  0.53232960198E+02 -0.12564311222E+02  0.11765510790E+03  0.12974719412E+03  0.00000000000E+00 0.  1.
         11    1    1    2    0    0 -0.42874459708E+02 -0.10584582608E+02  0.91209484460E+02  0.10133816033E+03  0.00000000000E+00 0. -1.
<mgrwt>
<rscale>  0 0.11967620E+03</rscale>
<asrwt>0</asrwt>
<pdfrwt beam="2">  1        1 0.35439557E-02 0.12754106E+03</pdfrwt>
<pdfrwt beam="1">  1       -1 0.86305689E-01 0.12754106E+03</pdfrwt>
<totfact> 0.35840280E+03</totfact>
</mgrwt>
</event>
<event>
 6    1  0.7457796E-006  0.1167539E+03  0.7546771E-02  0.1256288E+00
         -1   -1    0    0    0  501 -0.00000000000E+00  0.00000000000E+00  0.25733612485E+02  0.25733612485E+02  0.00000000000E+00 0.  1.
          1   -1    0    0  501    0  0.00000000000E+00 -0.00000000000E+00 -0.64209030083E+03  0.64209030083E+03  0.00000000000E+00 0. -1.
          5    1    1    2  502    0 -0.24527117317E+02  0.58707162119E+00 -0.15686694494E+03  0.15884348445E+03  0.47000000000E+01 0. -1.
         -5    1    1    2    0  502 -0.10935105594E+01  0.25505435279E+02  0.10831093212E+02  0.28126954586E+02  0.47000000000E+01 0.  1.
        -11    1    1    2    0    0 -0.19978778543E+02 -0.45452031309E+02 -0.20317994458E+03  0.20915814261E+03  0.00000000000E+00 0.  1.
         11    1    1    2    0    0  0.45599406419E+02  0.19359524409E+02 -0.26714089204E+03  0.27169533167E+03  0.00000000000E+00 0. -1.
<mgrwt>
<rscale>  0 0.11234487E+03</rscale>
<asrwt>0</asrwt>
<pdfrwt beam="2">  1        1 0.98783126E-01 0.11675391E+03</pdfrwt>
<pdfrwt beam="1">  1       -1 0.39590172E-02 0.11675391E+03</pdfrwt>
<totfact> 0.75964162E+03</totfact>
</mgrwt>
</event>
<event>
 6    1  0.7457796E-006  0.1529047E+03  0.7546771E-02  0.1204963E+00
         -2   -1    0    0    0  501 -0.00000000000E+00  0.00000000000E+00  0.24197527911E+03  0.24197527911E+03  0.00000000000E+00 0.  1.
          2   -1    0    0  501    0  0.00000000000E+00 -0.00000000000E+00 -0.84937645294E+02  0.84937645294E+02  0.00000000000E+00 0. -1.
          5    1    1    2  502    0  0.14741771031E+02 -0.22067655776E+02  0.12495891678E+03  0.12783239858E+03  0.47000000000E+01 0.  1.
         -5    1    1    2    0  502  0.82485574086E+01 -0.62950849641E+02 -0.86952860910E+01  0.64253763859E+02  0.47000000000E+01 0.  1.
        -11    1    1    2    0    0  0.10655587821E+02  0.29119766612E+02  0.59374297563E+02  0.66983651517E+02  0.00000000000E+00 0.  1.
         11    1    1    2    0    0 -0.33645916261E+02  0.55898738804E+02 -0.18600294441E+02  0.67843110440E+02  0.00000000000E+00 0. -1.
<mgrwt>
<rscale>  0 0.14640401E+03</rscale>
<asrwt>0</asrwt>
<pdfrwt beam="2">  1        2 0.13067330E-01 0.15290475E+03</pdfrwt>
<pdfrwt beam="1">  1       -2 0.37226966E-01 0.15290475E+03</pdfrwt>
<totfact> 0.30448349E+03</totfact>
</mgrwt>
</event>
<event>
 6    1  0.7457796E-006  0.3050517E+03  0.7546771E-02  0.1084283E+00
          2   -1    0    0  501    0  0.00000000000E+00  0.00000000000E+00  0.11019374345E+04  0.11019374345E+04  0.00000000000E+00 0.  1.
         -2   -1    0    0    0  501 -0.00000000000E+00 -0.00000000000E+00 -0.81906365984E+02  0.81906365984E+02  0.00000000000E+00 0. -1.
          5    1    1    2  502    0 -0.16757988025E+03 -0.92122747947E+01  0.15919391258E+03  0.23137129051E+03  0.47000000000E+01 0.  1.
         -5    1    1    2    0  502 -0.11055989964E+03  0.84744165884E+00  0.30146834530E+03  0.32113776294E+03  0.47000000000E+01 0.  1.
        -11    1    1    2    0    0  0.19499172430E+03  0.15324668832E+02  0.46997447610E+03  0.50905071084E+03  0.00000000000E+00 0.  1.
         11    1    1    2    0    0  0.83148055580E+02 -0.69598356966E+01  0.89394334507E+02  0.12228403617E+03  0.00000000000E+00 0. -1.
<mgrwt>
<rscale>  0 0.30192315E+03</rscale>
<asrwt>0</asrwt>
<pdfrwt beam="1">  1        2 0.16952882E+00 0.30505170E+03</pdfrwt>
<pdfrwt beam="2">  1       -2 0.12600980E-01 0.30505170E+03</pdfrwt>
<totfact> 0.10403662E+03</totfact>
</mgrwt>
</event>
<event>
 6    1  0.7457796E-006  0.1362000E+03  0.7546771E-02  0.1230509E+00
         -4   -1    0    0    0  501 -0.00000000000E+00  0.00000000000E+00  0.16512060403E+03  0.16512060403E+03  0.00000000000E+00 0. -1.
          4   -1    0    0  501    0  0.00000000000E+00 -0.00000000000E+00 -0.10953370991E+03  0.10953370991E+03  0.00000000000E+00 0.  1.
          5    1    1    2  502    0  0.31714064383E+02  0.65912936485E+02  0.11021383912E+03  0.13236116277E+03  0.47000000000E+01 0. -1.
         -5    1    1    2    0  502 -0.17981155916E+02 -0.13645858564E+02 -0.20399878677E+02  0.30785978530E+02  0.47000000000E+01 0. -1.
        -11    1    1    2    0    0  0.27154191989E+02  0.18833268622E+01 -0.34129003377E+02  0.43654162850E+02  0.00000000000E+00 0.  1.
         11    1    1    2    0    0 -0.40887100456E+02 -0.54150404784E+02 -0.98062943529E-01  0.67853009795E+02  0.00000000000E+00 0. -1.
<mgrwt>
<rscale>  0 0.12796362E+03</rscale>
<asrwt>0</asrwt>
<pdfrwt beam="2">  1        4 0.16851340E-01 0.13620001E+03</pdfrwt>
<pdfrwt beam="1">  1       -4 0.25403170E-01 0.13620001E+03</pdfrwt>
<totfact> 0.73864441E+02</totfact>
</mgrwt>
</event>
<event>
 6    1  0.7457796E-006  0.1308218E+03  0.7546771E-02  0.1238946E+00
         -1   -1    0    0    0  501 -0.00000000000E+00  0.00000000000E+00  0.95679702571E+02  0.95679702571E+02  0.00000000000E+00 0.  1.
          1   -1    0    0  501    0  0.00000000000E+00 -0.00000000000E+00 -0.15033933386E+03  0.15033933386E+03  0.00000000000E+00 0. -1.
          5    1    1    2  502    0  0.49318530484E+01  0.73311989596E+02  0.35183485697E+02  0.81602320180E+02  0.47000000000E+01 0.  1.
         -5    1    1    2    0  502 -0.62648416689E+01 -0.34727873973E+02 -0.33995957916E+02  0.49224878125E+02  0.47000000000E+01 0.  1.
        -11    1    1    2    0    0 -0.18524434205E+02 -0.13102984058E+02 -0.74506771642E+02  0.77885183920E+02  0.00000000000E+00 0. -1.
         11    1    1    2    0    0  0.19857422825E+02 -0.25481131566E+02  0.18659612568E+02  0.37306654209E+02  0.00000000000E+00 0.  1.
<mgrwt>
<rscale>  0 0.12255181E+03</rscale>
<asrwt>0</asrwt>
<pdfrwt beam="2">  1        1 0.23129128E-01 0.13082181E+03</pdfrwt>
<pdfrwt beam="1">  1       -1 0.14719954E-01 0.13082181E+03</pdfrwt>
<totfact> 0.66338726E+03</totfact>
</mgrwt>
</event>
<event>
 6    1  0.7457796E-006  0.1667926E+03  0.7546771E-02  0.1191910E+00
          2   -1    0    0  501    0  0.00000000000E+00  0.00000000000E+00  0.21178904494E+03  0.21178904494E+03  0.00000000000E+00 0. -1.
         -2   -1    0    0    0  501 -0.00000000000E+00 -0.00000000000E+00 -0.10716062730E+03  0.10716062730E+03  0.00000000000E+00 0.  1.
          5    1    1    2  502    0  0.49241244275E+02 -0.47779031844E+01  0.23549104611E+02  0.54992534262E+02  0.47000000000E+01 0.  1.
         -5    1    1    2    0  502 -0.45311390604E+02 -0.10559075125E+03  0.12737541584E+02  0.11570161552E+03  0.47000000000E+01 0.  1.
        -11    1    1    2    0    0  0.78341606534E+01  0.48072553076E+02 -0.76362758451E+01  0.49301695114E+02  0.00000000000E+00 0.  1.
         11    1    1    2    0    0 -0.11764014324E+02  0.62296101359E+02  0.75978047286E+02  0.98953827349E+02  0.00000000000E+00 0. -1.
<mgrwt>
<rscale>  0 0.15718710E+03</rscale>
<asrwt>0</asrwt>
<pdfrwt beam="1">  1        2 0.32582930E-01 0.16679260E+03</pdfrwt>
<pdfrwt beam="2">  1       -2 0.16486250E-01 0.16679260E+03</pdfrwt>
<totfact> 0.45345351E+03</totfact>
</mgrwt>
</event>
<event>
 6    1  0.7457796E-006  0.1748705E+03  0.7546771E-02  0.1181512E+00
         -2   -1    0    0    0  501 -0.00000000000E+00  0.00000000000E+00  0.43011801032E+02  0.43011801032E+02  0.00000000000E+00 0.  1.
          2   -1    0    0  501    0  0.00000000000E+00 -0.00000000000E+00 -0.70424395773E+03  0.70424395773E+03  0.00000000000E+00 0. -1.
          5    1    1    2  502    0 -0.19835820941E+02 -0.44331896166E+01 -0.11844502930E+03  0.12026815010E+03  0.47000000000E+01 0. -1.
         -5    1    1    2    0  502  0.55640220351E+02  0.10864821290E+03 -0.89519658091E+02  0.15144678099E+03  0.47000000000E+01 0.  1.
        -11    1    1    2    0    0 -0.29335645837E+02 -0.12164837843E+03 -0.38838165985E+03  0.40804316169E+03  0.00000000000E+00 0. -1.
         11    1    1    2    0    0 -0.64687535720E+01  0.17433355150E+02 -0.64885809461E+02  0.67497665989E+02  0.00000000000E+00 0.  1.
<mgrwt>
<rscale>  0 0.16653342E+03</rscale>
<asrwt>0</asrwt>
<pdfrwt beam="2">  1        2 0.10834522E+00 0.17487050E+03</pdfrwt>
<pdfrwt beam="1">  1       -2 0.66172005E-02 0.17487050E+03</pdfrwt>
<totfact> 0.51882880E+03</totfact>
</mgrwt>
</event>
<event>
 6    1  0.7457796E-006  0.1740974E+03  0.7546771E-02  0.1180176E+00
         -2   -1    0    0    0  501 -0.00000000000E+00  0.00000000000E+00  0.24566727532E+02  0.24566727532E+02  0.00000000000E+00 0.  1.
          2   -1    0    0  501    0  0.00000000000E+00 -0.00000000000E+00 -0.10764299169E+04  0.10764299169E+04  0.00000000000E+00 0. -1.
          5    1    1    2  502    0 -0.93518358077E+02  0.46917418579E+01 -0.15899394272E+03  0.18457751640E+03  0.47000000000E+01 0.  1.
         -5    1    1    2    0  502 -0.23267652877E+02 -0.37015407702E+02 -0.36368492057E+03  0.36633363963E+03  0.47000000000E+01 0.  1.
        -11    1    1    2    0    0  0.52367528182E+02 -0.25779210287E+02 -0.14667443097E+03  0.15786169387E+03  0.00000000000E+00 0. -1.
         11    1    1    2    0    0  0.64418482773E+02  0.58102876131E+02 -0.38250989509E+03  0.39222379451E+03  0.00000000000E+00 0.  1.
<mgrwt>
<rscale>  0 0.16778641E+03</rscale>
<asrwt>0</asrwt>
<pdfrwt beam="2">  1        2 0.16560463E+00 0.17409741E+03</pdfrwt>
<pdfrwt beam="1">  1       -2 0.37794959E-02 0.17409741E+03</pdfrwt>
<totfact> 0.69408005E+03</totfact>
</mgrwt>
</event>
<event>
 6    1  0.7457796E-006  0.1327032E+03  0.7546771E-02  0.1236274E+00
         -2   -1    0    0    0  501 -0.00000000000E+00  0.00000000000E+00  0.10469821787E+03  0.10469821787E+03  0.00000000000E+00 0.  1.
          2   -1    0    0  501    0  0.00000000000E+00 -0.00000000000E+00 -0.17161849149E+03  0.17161849149E+03  0.00000000000E+00 0. -1.
          5    1    1    2  502    0 -0.59450669908E+02  0.12512179357E+02  0.25097908837E+02  0.65900924218E+02  0.47000000000E+01 0.  1.
         -5    1    1    2    0  502  0.43842868943E+02 -0.54256436850E+02  0.44761816799E+01  0.70057721197E+02  0.47000000000E+01 0.  1.
        -11    1    1    2    0    0 -0.21395627226E+02  0.50322615595E+02 -0.26599478932E+02  0.60808476253E+02  0.00000000000E+00 0.  1.
         11    1    1    2    0    0  0.37003428190E+02 -0.85783581011E+01 -0.69894885198E+02  0.79549587695E+02  0.00000000000E+00 0. -1.
<mgrwt>
<rscale>  0 0.12423210E+03</rscale>
<asrwt>0</asrwt>
<pdfrwt beam="2">  1        2 0.26402845E-01 0.13270315E+03</pdfrwt>
<pdfrwt beam="1">  1       -2 0.16107418E-01 0.13270315E+03</pdfrwt>
<totfact> 0.58441179E+03</totfact>
</mgrwt>
</event>
<event>
 6    1  0.7457796E-006  0.1372484E+03  0.7546771E-02  0.1234326E+00
          1   -1    0    0  501    0  0.00000000000E+00  0.00000000000E+00  0.36862515236E+03  0.36862515236E+03  0.00000000000E+00 0. -1.
         -1   -1    0    0    0  501 -0.00000000000E+00 -0.00000000000E+00 -0.48107698466E+02  0.48107698466E+02  0.00000000000E+00 0.  1.
          5    1    1    2  502    0 -0.46547530700E+02 -0.48271358597E+02  0.89836841445E+02  0.11220314058E+03  0.47000000000E+01 0. -1.
         -5    1    1    2    0  502  0.19927501907E+02  0.42726033038E+02 -0.73208082232E+01  0.47940624365E+02  0.47000000000E+01 0.  1.
        -11    1    1    2    0    0  0.57607498265E+02 -0.13593582207E+02  0.13782319429E+03  0.14999547399E+03  0.00000000000E+00 0.  1.
         11    1    1    2    0    0 -0.30987469472E+02  0.19138907765E+02  0.10017822638E+03  0.10659361189E+03  0.00000000000E+00 0. -1.
<mgrwt>
<rscale>  0 0.12547706E+03</rscale>
<asrwt>0</asrwt>
<pdfrwt beam="1">  1        1 0.56711560E-01 0.13724842E+03</pdfrwt>
<pdfrwt beam="2">  1       -1 0.74011846E-02 0.13724842E+03</pdfrwt>
<totfact> 0.62529349E+03</totfact>
</mgrwt>
</event>
<event>
 6    1  0.7457796E-006  0.1328983E+03  0.7546771E-02  0.1235628E+00
         -1   -1    0    0    0  501 -0.00000000000E+00  0.00000000000E+00  0.38290550264E+03  0.38290550264E+03  0.00000000000E+00 0.  1.
          1   -1    0    0  501    0  0.00000000000E+00 -0.00000000000E+00 -0.36323965613E+02  0.36323965613E+02  0.00000000000E+00 0. -1.
          5    1    1    2  502    0  0.17131549521E+01  0.42851090286E+02  0.23586111150E+02  0.49168541546E+02  0.47000000000E+01 0.  1.
         -5    1    1    2    0  502  0.39873168830E+02 -0.60337371568E+02  0.17903608518E+03  0.19314884881E+03  0.47000000000E+01 0.  1.
        -11    1    1    2    0    0 -0.33510706707E+02 -0.33124022951E+02  0.94957200731E+02  0.10600489768E+03  0.00000000000E+00 0.  1.
         11    1    1    2    0    0 -0.80756170753E+01  0.50610304233E+02  0.49002139966E+02  0.70907180221E+02  0.00000000000E+00 0. -1.
<mgrwt>
<rscale>  0 0.12464287E+03</rscale>
<asrwt>0</asrwt>
<pdfrwt beam="2">  1        1 0.55883027E-02 0.13289832E+03</pdfrwt>
<pdfrwt beam="1">  1       -1 0.58908536E-01 0.13289832E+03</pdfrwt>
<totfact> 0.41079466E+03</totfact>
</mgrwt>
</event>
<event>
 6    1  0.7457796E-006  0.1290006E+03  0.7546771E-02  0.1236298E+00
          3   -1    0    0  501    0  0.00000000000E+00  0.00000000000E+00  0.10571486637E+04  0.10571486637E+04  0.00000000000E+00 0. -1.
         -3   -1    0    0    0  501 -0.00000000000E+00 -0.00000000000E+00 -0.13945519890E+02  0.13945519890E+02  0.00000000000E+00 0.  1.
          5    1    1    2  502    0  0.44220916667E+02  0.48636931236E+02  0.47037994918E+03  0.47497413313E+03  0.47000000000E+01 0. -1.
         -5    1    1    2    0  502 -0.12557792924E+02 -0.52179153959E+02  0.17236271244E+03  0.18058614817E+03  0.47000000000E+01 0. -1.
        -11    1    1    2    0    0 -0.60433386126E+02 -0.20766839236E+02  0.32468602165E+03  0.33091459386E+03  0.00000000000E+00 0. -1.
         11    1    1    2    0    0  0.28770262383E+02  0.24309061959E+02  0.75774460559E+02  0.84619308458E+02  0.00000000000E+00 0.  1.
<mgrwt>
<rscale>  0 0.12421703E+03</rscale>
<asrwt>0</asrwt>
<pdfrwt beam="1">  1        3 0.16263819E+00 0.12900059E+03</pdfrwt>
<pdfrwt beam="2">  1       -3 0.21454654E-02 0.12900059E+03</pdfrwt>
<totfact> 0.55324594E+02</totfact>
</mgrwt>
</event>
<event>
 6    1  0.7457796E-006  0.1255116E+03  0.7546771E-02  0.1250015E+00
          1   -1    0    0  501    0  0.00000000000E+00  0.00000000000E+00  0.58160169367E+03  0.58160169367E+03  0.00000000000E+00 0. -1.
         -1   -1    0    0    0  501 -0.00000000000E+00 -0.00000000000E+00 -0.23050774747E+02  0.23050774747E+02  0.00000000000E+00 0.  1.
          5    1    1    2  502    0 -0.34704522506E+02  0.45836987858E+02  0.45668803429E+02  0.73574200267E+02  0.47000000000E+01 0.  1.
         -5    1    1    2    0  502  0.27460909755E+02 -0.37252932960E+02  0.16711302108E+03  0.17346681064E+03  0.47000000000E+01 0.  1.
        -11    1    1    2    0    0  0.26184089273E+02 -0.40063743354E+02  0.25900157668E+03  0.26338664884E+03  0.00000000000E+00 0. -1.
         11    1    1    2    0    0 -0.18940476522E+02  0.31479688456E+02  0.86767517729E+02  0.94224808670E+02  0.00000000000E+00 0.  1.
<mgrwt>
<rscale>  0 0.11590213E+03</rscale>
<asrwt>0</asrwt>
<pdfrwt beam="1">  1        1 0.89477173E-01 0.12551158E+03</pdfrwt>
<pdfrwt beam="2">  1       -1 0.35462735E-02 0.12551158E+03</pdfrwt>
<totfact> 0.10259067E+04</totfact>
</mgrwt>
</event>
<event>
 6    1  0.7457796E-006  0.2459022E+03  0.7546771E-02  0.1118459E+00
         -1   -1    0    0    0  501 -0.00000000000E+00  0.00000000000E+00  0.21163716865E+03  0.21163716865E+03  0.00000000000E+00 0.  1.
          1   -1    0    0  501    0  0.00000000000E+00 -0.00000000000E+00 -0.26902043089E+03  0.26902043089E+03  0.00000000000E+00 0. -1.
          5    1    1    2  502    0  0.12179018241E+03  0.62499182746E+02 -0.35538424749E+01  0.13701721123E+03  0.47000000000E+01 0. -1.
         -5    1    1    2    0  502  0.31546877918E+01  0.10846929452E+03 -0.13916176138E+02  0.10950474815E+03  0.47000000000E+01 0. -1.
        -11    1    1    2    0    0  0.58498385061E+01 -0.49819784967E+02  0.46260049366E+01  0.50374909493E+02  0.00000000000E+00 0. -1.
         11    1    1    2    0    0 -0.13079470871E+03 -0.12114869230E+03 -0.44539248564E+02  0.18376073067E+03  0.00000000000E+00 0.  1.
<mgrwt>
<rscale>  0 0.24201244E+03</rscale>
<asrwt>0</asrwt>
<pdfrwt beam="2">  1        1 0.41387759E-01 0.24590217E+03</pdfrwt>
<pdfrwt beam="1">  1       -1 0.32559564E-01 0.24590217E+03</pdfrwt>
<totfact> 0.89374318E+02</totfact>
</mgrwt>
</event>
<event>
 6    1  0.7457796E-006  0.3554470E+03  0.7546771E-02  0.1060401E+00
          1   -1    0    0  501    0  0.00000000000E+00  0.00000000000E+00  0.50757492435E+03  0.50757492435E+03  0.00000000000E+00 0. -1.
         -1   -1    0    0    0  501 -0.00000000000E+00 -0.00000000000E+00 -0.62228519613E+02  0.62228519613E+02  0.00000000000E+00 0.  1.
          5    1    1    2  502    0  0.17516729037E+02  0.41211543594E+02  0.71024746120E+02  0.84094183407E+02  0.47000000000E+01 0. -1.
         -5    1    1    2    0  502 -0.13294329322E+03  0.30747637163E+02  0.12231529012E+03  0.18330972860E+03  0.47000000000E+01 0. -1.
        -11    1    1    2    0    0  0.35193989234E+02 -0.67686515235E+02  0.70379409377E+02  0.10379471319E+03  0.00000000000E+00 0.  1.
         11    1    1    2    0    0  0.80232574953E+02 -0.42726655226E+01  0.18162695912E+03  0.19860481876E+03  0.00000000000E+00 0. -1.
<mgrwt>
<rscale>  0 0.35544696E+03</rscale>
<asrwt>0</asrwt>
<pdfrwt beam="1">  1        1 0.78088447E-01 0.35544696E+03</pdfrwt>
<pdfrwt beam="2">  1       -1 0.95736187E-02 0.35544696E+03</pdfrwt>
<totfact> 0.28957151E+03</totfact>
</mgrwt>
</event>
<event>
 6    1  0.7457796E-006  0.1342693E+03  0.7546771E-02  0.1234060E+00
         -1   -1    0    0    0  501 -0.00000000000E+00  0.00000000000E+00  0.18670008918E+03  0.18670008918E+03  0.00000000000E+00 0.  1.
          1   -1    0    0  501    0  0.00000000000E+00 -0.00000000000E+00 -0.79571901560E+02  0.79571901560E+02  0.00000000000E+00 0. -1.
          5    1    1    2  502    0 -0.71986406649E+02  0.14790653337E+02  0.75249285804E+02  0.10528699437E+03  0.47000000000E+01 0.  1.
         -5    1    1    2    0  502  0.46978411577E+02  0.27384361011E+02  0.15376100694E+02  0.56704398902E+02  0.47000000000E+01 0.  1.
        -11    1    1    2    0    0  0.50293466127E+02 -0.13204824666E+02  0.33902767782E+02  0.62074131430E+02  0.00000000000E+00 0.  1.
         11    1    1    2    0    0 -0.25285471055E+02 -0.28970189681E+02 -0.17399966656E+02  0.42206466048E+02  0.00000000000E+00 0. -1.
<mgrwt>
<rscale>  0 0.12564829E+03</rscale>
<asrwt>0</asrwt>
<pdfrwt beam="2">  1        1 0.12241831E-01 0.13426932E+03</pdfrwt>
<pdfrwt beam="1">  1       -1 0.28723091E-01 0.13426932E+03</pdfrwt>
<totfact> 0.51236569E+03</totfact>
</mgrwt>
</event>
<event>
 6    1  0.7457796E-006  0.3443251E+03  0.7546771E-02  0.1064969E+00
         -1   -1    0    0    0  501 -0.00000000000E+00  0.00000000000E+00  0.33132117886E+02  0.33132117886E+02  0.00000000000E+00 0.  1.
          1   -1    0    0  501    0  0.00000000000E+00 -0.00000000000E+00 -0.89459835833E+03  0.89459835833E+03  0.00000000000E+00 0. -1.
          5    1    1    2  502    0 -0.10844091884E+02 -0.12883002289E+01 -0.24196622216E+03  0.24225812002E+03  0.47000000000E+01 0.  1.
         -5    1    1    2    0  502 -0.12246804197E+03 -0.18877423720E+01 -0.18196224597E+03  0.21939538244E+03  0.47000000000E+01 0.  1.
        -11    1    1    2    0    0  0.47753422397E+02 -0.17741191945E+02 -0.28846093918E+03  0.29292465358E+03  0.00000000000E+00 0. -1.
         11    1    1    2    0    0  0.85558711461E+02  0.20917234546E+02 -0.14907683313E+03  0.17315232018E+03  0.00000000000E+00 0.  1.
<mgrwt>
<rscale>  0 0.34432507E+03</rscale>
<asrwt>0</asrwt>
<pdfrwt beam="2">  1        1 0.13763050E+00 0.34432507E+03</pdfrwt>
<pdfrwt beam="1">  1       -1 0.50972495E-02 0.34432507E+03</pdfrwt>
<totfact> 0.33065762E+03</totfact>
</mgrwt>
</event>
<event>
 6    1  0.7457796E-006  0.1408804E+03  0.7546771E-02  0.1223569E+00
          2   -1    0    0  501    0  0.00000000000E+00  0.00000000000E+00  0.15210993184E+02  0.15210993184E+02  0.00000000000E+00 0. -1.
         -2   -1    0    0    0  501 -0.00000000000E+00 -0.00000000000E+00 -0.10652043144E+04  0.10652043144E+04  0.00000000000E+00 0.  1.
          5    1    1    2  502    0 -0.24775084531E+01 -0.33770798015E+02 -0.43245809078E+02  0.55126172092E+02  0.47000000000E+01 0.  1.
         -5    1    1    2    0  502  0.59167879824E+02  0.19940059940E+01 -0.62460694386E+03  0.62742389051E+03  0.47000000000E+01 0.  1.
        -11    1    1    2    0    0 -0.21316698756E+02  0.53024033774E+02 -0.30572142011E+03  0.31101693927E+03  0.00000000000E+00 0.  1.
         11    1    1    2    0    0 -0.35373672615E+02 -0.21247241753E+02 -0.76419148130E+02  0.86848305668E+02  0.00000000000E+00 0. -1.
<mgrwt>
<rscale>  0 0.13265478E+03</rscale>
<asrwt>0</asrwt>
<pdfrwt beam="1">  1        2 0.23401523E-02 0.14088040E+03</pdfrwt>
<pdfrwt beam="2">  1       -2 0.16387762E+00 0.14088040E+03</pdfrwt>
<totfact> 0.10722614E+03</totfact>
</mgrwt>
</event>
<event>
 6    1  0.7457796E-006  0.1260714E+03  0.7546771E-02  0.1248151E+00
         -2   -1    0    0    0  501 -0.00000000000E+00  0.00000000000E+00  0.45829360655E+02  0.45829360655E+02  0.00000000000E+00 0.  1.
          2   -1    0    0  501    0  0.00000000000E+00 -0.00000000000E+00 -0.26815001594E+03  0.26815001594E+03  0.00000000000E+00 0. -1.
          5    1    1    2  502    0 -0.11911255046E+00 -0.31764954976E+02  0.17814977177E+02  0.36721791409E+02  0.47000000000E+01 0.  1.
         -5    1    1    2    0  502  0.10569011014E+02  0.30699074767E+02 -0.12351421147E+03  0.12779666514E+03  0.47000000000E+01 0.  1.
        -11    1    1    2    0    0  0.41098980056E+02 -0.39742798664E+01 -0.44992900038E+02  0.61067848463E+02  0.00000000000E+00 0. -1.
         11    1    1    2    0    0 -0.51548878520E+02  0.50401600756E+01 -0.71628520955E+02  0.88393071586E+02  0.00000000000E+00 0.  1.
<mgrwt>
<rscale>  0 0.11698737E+03</rscale>
<asrwt>0</asrwt>
<pdfrwt beam="2">  1        2 0.41253850E-01 0.12607139E+03</pdfrwt>
<pdfrwt beam="1">  1       -2 0.70506707E-02 0.12607139E+03</pdfrwt>
<totfact> 0.13302179E+04</totfact>
</mgrwt>
</event>
<event>
 6    1  0.7457796E-006  0.1590236E+03  0.7546771E-02  0.1197633E+00
         -1   -1    0    0    0  501 -0.00000000000E+00  0.00000000000E+00  0.47477103941E+02  0.47477103941E+02  0.00000000000E+00 0.  1.
          1   -1    0    0  501    0  0.00000000000E+00 -0.00000000000E+00 -0.46641648608E+03  0.46641648608E+03  0.00000000000E+00 0. -1.
          5    1    1    2  502    0 -0.29727333566E+02 -0.21247175364E+02  0.86107439100E+01  0.37833738020E+02  0.47000000000E+01 0.  1.
         -5    1    1    2    0  502 -0.42318543571E+00 -0.72314833040E+02 -0.19023200269E+03  0.20356797147E+03  0.47000000000E+01 0.  1.
        -11    1    1    2    0    0  0.51929027324E+02  0.97713189087E+02 -0.20942073835E+03  0.23685762992E+03  0.00000000000E+00 0.  1.
         11    1    1    2    0    0 -0.21778508323E+02 -0.41511806827E+01 -0.27897385011E+02  0.35634250607E+02  0.00000000000E+00 0. -1.
<mgrwt>
<rscale>  0 0.15233495E+03</rscale>
<asrwt>0</asrwt>
<pdfrwt beam="2">  1        1 0.71756380E-01 0.15902359E+03</pdfrwt>
<pdfrwt beam="1">  1       -1 0.73041701E-02 0.15902359E+03</pdfrwt>
<totfact> 0.47681848E+03</totfact>
</mgrwt>
</event>
<event>
 6    1  0.7457796E-006  0.3770349E+03  0.7546771E-02  0.1052035E+00
         -2   -1    0    0    0  501 -0.00000000000E+00  0.00000000000E+00  0.82888739385E+02  0.82888739385E+02  0.00000000000E+00 0.  1.
          2   -1    0    0  501    0  0.00000000000E+00 -0.00000000000E+00 -0.42875336213E+03  0.42875336213E+03  0.00000000000E+00 0. -1.
          5    1    1    2  502    0 -0.50696173323E+02  0.13182314908E+03 -0.74525923899E+02  0.15976122169E+03  0.47000000000E+01 0.  1.
         -5    1    1    2    0  502  0.21326517127E+02 -0.99432817270E+01  0.13434128774E+02  0.27500090912E+02  0.47000000000E+01 0.  1.
        -11    1    1    2    0    0 -0.20656741194E+02 -0.76407883751E+02 -0.99391268040E+02  0.12705703372E+03  0.00000000000E+00 0.  1.
         11    1    1    2    0    0  0.50026397390E+02 -0.45471983603E+02 -0.18538155958E+03  0.19732375518E+03  0.00000000000E+00 0. -1.
<mgrwt>
<rscale>  0 0.37703488E+03</rscale>
<asrwt>0</asrwt>
<pdfrwt beam="2">  1        2 0.65962058E-01 0.37703488E+03</pdfrwt>
<pdfrwt beam="1">  1       -2 0.12752113E-01 0.37703488E+03</pdfrwt>
<totfact> 0.33272255E+03</totfact>
</mgrwt>
</event>
<event>
 6    1  0.7457796E-006  0.2135942E+03  0.7546771E-02  0.1171055E+00
          1   -1    0    0  501    0  0.00000000000E+00  0.00000000000E+00  0.46471117626E+03  0.46471117626E+03  0.00000000000E+00 0. -1.
         -1   -1    0    0    0  501 -0.00000000000E+00 -0.00000000000E+00 -0.57481630668E+02  0.57481630668E+02  0.00000000000E+00 0.  1.
          5    1    1    2  502    0 -0.83641542309E+02 -0.98900772252E+02  0.11323892681E+03  0.17211163498E+03  0.47000000000E+01 0. -1.
         -5    1    1    2    0  502  0.48732062834E+02  0.67625892532E+02  0.89167270452E+02  0.12215141182E+03  0.47000000000E+01 0.  1.
        -11    1    1    2    0    0  0.57370947304E+02  0.23046711616E+02  0.81445446779E+02  0.10225427772E+03  0.00000000000E+00 0.  1.
         11    1    1    2    0    0 -0.22461467829E+02  0.82281681037E+01  0.12337790156E+03  0.12567548241E+03  0.00000000000E+00 0. -1.
<mgrwt>
<rscale>  0 0.17668051E+03</rscale>
<asrwt>0</asrwt>
<pdfrwt beam="1">  1        1 0.71494025E-01 0.21359418E+03</pdfrwt>
<pdfrwt beam="2">  1       -1 0.88433281E-02 0.21359418E+03</pdfrwt>
<totfact> 0.36268120E+03</totfact>
</mgrwt>
</event>
<event>
 6    1  0.7457796E-006  0.2285251E+03  0.7546771E-02  0.1131111E+00
          2   -1    0    0  501    0  0.00000000000E+00  0.00000000000E+00  0.60000527689E+03  0.60000527689E+03  0.00000000000E+00 0. -1.
         -2   -1    0    0    0  501 -0.00000000000E+00 -0.00000000000E+00 -0.80214105223E+02  0.80214105223E+02  0.00000000000E+00 0.  1.
          5    1    1    2  502    0 -0.11516915914E+03  0.10696226102E+03  0.24351986836E+03  0.28987734783E+03  0.47000000000E+01 0.  1.
         -5    1    1    2    0  502  0.19235091774E+02  0.58552676689E+02  0.37359732356E+02  0.72223571669E+02  0.47000000000E+01 0.  1.
        -11    1    1    2    0    0  0.16098737821E+01 -0.10162834367E+02 -0.69191062768E+01  0.12399553525E+02  0.00000000000E+00 0.  1.
         11    1    1    2    0    0  0.94324193580E+02 -0.15535210334E+03  0.24583067723E+03  0.30571890909E+03  0.00000000000E+00 0. -1.
<mgrwt>
<rscale>  0 0.22375907E+03</rscale>
<asrwt>0</asrwt>
<pdfrwt beam="1">  1        2 0.92308501E-01 0.22852511E+03</pdfrwt>
<pdfrwt beam="2">  1       -2 0.12340632E-01 0.22852511E+03</pdfrwt>
<totfact> 0.23696877E+03</totfact>
</mgrwt>
</event>
<event>
 6    1  0.7457796E-006  0.1469843E+03  0.7546771E-02  0.1217946E+00
         -1   -1    0    0    0  501 -0.00000000000E+00  0.00000000000E+00  0.10613512677E+03  0.10613512677E+03  0.00000000000E+00 0.  1.
          1   -1    0    0  501    0  0.00000000000E+00 -0.00000000000E+00 -0.15537911442E+03  0.15537911442E+03  0.00000000000E+00 0. -1.
          5    1    1    2  502    0 -0.14421178758E+02 -0.26174380915E+02  0.33961066055E+02  0.45480903912E+02  0.47000000000E+01 0. -1.
         -5    1    1    2    0  502  0.53902720208E+02  0.66402551012E+02 -0.58027746198E+02  0.10346067541E+03  0.47000000000E+01 0.  1.
        -11    1    1    2    0    0 -0.35875140086E+02 -0.57362690904E+02 -0.48618103007E+02  0.83314007970E+02  0.00000000000E+00 0. -1.
         11    1    1    2    0    0 -0.36064013642E+01  0.17134520807E+02  0.23440795499E+02  0.29258653894E+02  0.00000000000E+00 0.  1.
<mgrwt>
<rscale>  0 0.13662360E+03</rscale>
<asrwt>0</asrwt>
<pdfrwt beam="2">  1        1 0.23904479E-01 0.14698432E+03</pdfrwt>
<pdfrwt beam="1">  1       -1 0.16328481E-01 0.14698432E+03</pdfrwt>
<totfact> 0.54479626E+03</totfact>
</mgrwt>
</event>
<event>
 6    1  0.7457796E-006  0.1332159E+03  0.7546771E-02  0.1236847E+00
         -1   -1    0    0    0  501 -0.00000000000E+00  0.00000000000E+00  0.10111422258E+03  0.10111422258E+03  0.00000000000E+00 0.  1.
          1   -1    0    0  501    0  0.00000000000E+00 -0.00000000000E+00 -0.13462873053E+03  0.13462873053E+03  0.00000000000E+00 0. -1.
          5    1    1    2  502    0 -0.12483369769E+02 -0.28343184875E+02 -0.45301330680E+02  0.55076957170E+02  0.47000000000E+01 0.  1.
         -5    1    1    2    0  502  0.56238128460E+02  0.42763155620E+02  0.34137765390E+02  0.78605925967E+02  0.47000000000E+01 0.  1.
        -11    1    1    2    0    0  0.13372056766E+02 -0.34684569792E+02  0.78211562571E+00  0.37181218225E+02  0.00000000000E+00 0. -1.
         11    1    1    2    0    0 -0.57126815457E+02  0.20264599047E+02 -0.23133058279E+02  0.64878851748E+02  0.00000000000E+00 0.  1.
<mgrwt>
<rscale>  0 0.12386911E+03</rscale>
<asrwt>0</asrwt>
<pdfrwt beam="2">  1        1 0.20712112E-01 0.13321595E+03</pdfrwt>
<pdfrwt beam="1">  1       -1 0.15556034E-01 0.13321595E+03</pdfrwt>
<totfact> 0.70031000E+03</totfact>
</mgrwt>
</event>
<event>
 6    1  0.7457796E-006  0.2630733E+03  0.7546771E-02  0.1105311E+00
         -1   -1    0    0    0  501 -0.00000000000E+00  0.00000000000E+00  0.22022742127E+03  0.22022742127E+03  0.00000000000E+00 0.  1.
          1   -1    0    0  501    0  0.00000000000E+00 -0.00000000000E+00 -0.78563743891E+02  0.78563743891E+02  0.00000000000E+00 0. -1.
          5    1    1    2  502    0 -0.13374748410E+02 -0.70173815475E+02  0.12793166523E+03  0.14660098650E+03  0.47000000000E+01 0.  1.
         -5    1    1    2    0  502 -0.16975692133E+02  0.57886534908E+01 -0.24392235579E+02  0.30639089235E+02  0.47000000000E+01 0.  1.
        -11    1    1    2    0    0  0.20156002208E+02  0.18046153107E+02 -0.28799897984E+02  0.39514075857E+02  0.00000000000E+00 0. -1.
         11    1    1    2    0    0  0.10194438334E+02  0.46339008877E+02  0.66924145704E+02  0.82037013566E+02  0.00000000000E+00 0.  1.
<mgrwt>
<rscale>  0 0.26307330E+03</rscale>
<asrwt>0</asrwt>
<pdfrwt beam="2">  1        1 0.12086730E-01 0.26307330E+03</pdfrwt>
<pdfrwt beam="1">  1       -1 0.33881141E-01 0.26307330E+03</pdfrwt>
<totfact> 0.40826183E+03</totfact>
</mgrwt>
</event>
<event>
 6    1  0.7457796E-006  0.1317589E+03  0.7546771E-02  0.1238490E+00
          2   -1    0    0  501    0  0.00000000000E+00  0.00000000000E+00  0.62802026796E+03  0.62802026796E+03  0.00000000000E+00 0. -1.
         -2   -1    0    0    0  501 -0.00000000000E+00 -0.00000000000E+00 -0.21398387872E+02  0.21398387872E+02  0.00000000000E+00 0.  1.
          5    1    1    2  502    0  0.44765363787E+02  0.42747217209E+02  0.94996071191E+02  0.11347953963E+03  0.47000000000E+01 0. -1.
         -5    1    1    2    0  502 -0.58090840232E+02 -0.32940814136E+01  0.22806884808E+03  0.23542065788E+03  0.47000000000E+01 0. -1.
        -11    1    1    2    0    0  0.30550461670E+02 -0.63196868829E+02  0.20139954552E+03  0.21328139129E+03  0.00000000000E+00 0.  1.
         11    1    1    2    0    0 -0.17224985225E+02  0.23743733033E+02  0.82157415299E+02  0.87237067024E+02  0.00000000000E+00 0. -1.
<mgrwt>
<rscale>  0 0.12283626E+03</rscale>
<asrwt>0</asrwt>
<pdfrwt beam="1">  1        2 0.96618489E-01 0.13175889E+03</pdfrwt>
<pdfrwt beam="2">  1       -2 0.32920602E-02 0.13175889E+03</pdfrwt>
<totfact> 0.16651846E+04</totfact>
</mgrwt>
</event>
<event>
 6    1  0.7457796E-006  0.1646431E+03  0.7546771E-02  0.1190570E+00
          2   -1    0    0  501    0  0.00000000000E+00  0.00000000000E+00  0.11386110570E+03  0.11386110570E+03  0.00000000000E+00 0. -1.
         -2   -1    0    0    0  501 -0.00000000000E+00 -0.00000000000E+00 -0.25446976577E+03  0.25446976577E+03  0.00000000000E+00 0.  1.
          5    1    1    2  502    0 -0.10057420913E+03  0.84048258756E+02 -0.12125265060E+03  0.17861572333E+03  0.47000000000E+01 0.  1.
         -5    1    1    2    0  502  0.66916111670E+01 -0.32393813830E+02 -0.34491167342E+02  0.48019448759E+02  0.47000000000E+01 0.  1.
        -11    1    1    2    0    0  0.99264629463E+02 -0.31096867920E+02  0.37753446944E+02  0.11066076366E+03  0.00000000000E+00 0. -1.
         11    1    1    2    0    0 -0.53820314987E+01 -0.20557577005E+02 -0.22618289068E+02  0.31034935730E+02  0.00000000000E+00 0.  1.
<mgrwt>
<rscale>  0 0.15835215E+03</rscale>
<asrwt>0</asrwt>
<pdfrwt beam="1">  1        2 0.17517093E-01 0.16464314E+03</pdfrwt>
<pdfrwt beam="2">  1       -2 0.39149194E-01 0.16464314E+03</pdfrwt>
<totfact> 0.19699801E+03</totfact>
</mgrwt>
</event>
<event>
 6    1  0.7457796E-006  0.2446302E+03  0.7546771E-02  0.1116746E+00
         -1   -1    0    0    0  501 -0.00000000000E+00  0.00000000000E+00  0.11816010058E+03  0.11816010058E+03  0.00000000000E+00 0.  1.
          1   -1    0    0  501    0  0.00000000000E+00 -0.00000000000E+00 -0.12661619946E+03  0.12661619946E+03  0.00000000000E+00 0. -1.
          5    1    1    2  502    0  0.11890085593E+00  0.70607649070E+01 -0.46309374629E+02  0.47079897165E+02  0.47000000000E+01 0.  1.
         -5    1    1    2    0  502  0.21050421864E+02 -0.51831646783E+02  0.69526983025E+02  0.89362918693E+02  0.47000000000E+01 0.  1.
        -11    1    1    2    0    0  0.48624512887E+01  0.47398153177E+02  0.19006623176E+02  0.51297953972E+02  0.00000000000E+00 0.  1.
         11    1    1    2    0    0 -0.26031774008E+02 -0.26272713009E+01 -0.50680330448E+02  0.57035530215E+02  0.00000000000E+00 0. -1.
<mgrwt>
<rscale>  0 0.24463019E+03</rscale>
<asrwt>0</asrwt>
<pdfrwt beam="2">  1        1 0.19479415E-01 0.24463019E+03</pdfrwt>
<pdfrwt beam="1">  1       -1 0.18178477E-01 0.24463019E+03</pdfrwt>
<totfact> 0.61405502E+03</totfact>
</mgrwt>
</event>
<event>
 6    1  0.7457796E-006  0.2100111E+03  0.7546771E-02  0.1153898E+00
         -2   -1    0    0    0  501 -0.00000000000E+00  0.00000000000E+00  0.31868453623E+03  0.31868453623E+03  0.00000000000E+00 0.  1.
          2   -1    0    0  501    0  0.00000000000E+00 -0.00000000000E+00 -0.15285208966E+03  0.15285208966E+03  0.00000000000E+00 0. -1.
          5    1    1    2  502    0 -0.27719269848E+02 -0.26874535849E+02  0.12371461672E+03  0.12968421256E+03  0.47000000000E+01 0. -1.
         -5    1    1    2    0  502  0.14416729148E+03 -0.21350260165E+02  0.97901968221E+02  0.17563293235E+03  0.47000000000E+01 0.  1.
        -11    1    1    2    0    0 -0.94997043840E+02  0.45771656168E+02  0.10163789031E+01  0.10545385660E+03  0.00000000000E+00 0.  1.
         11    1    1    2    0    0 -0.21450977797E+02  0.24531398454E+01 -0.56800517270E+02  0.60765624375E+02  0.00000000000E+00 0. -1.
<mgrwt>
<rscale>  0 0.19514847E+03</rscale>
<asrwt>0</asrwt>
<pdfrwt beam="2">  1        2 0.23515706E-01 0.21001107E+03</pdfrwt>
<pdfrwt beam="1">  1       -2 0.49028390E-01 0.21001107E+03</pdfrwt>
<totfact> 0.91750099E+02</totfact>
</mgrwt>
</event>
<event>
 6    1  0.7457796E-006  0.1260134E+03  0.7546771E-02  0.1247948E+00
         -1   -1    0    0    0  501 -0.00000000000E+00  0.00000000000E+00  0.33619110251E+02  0.33619110251E+02  0.00000000000E+00 0.  1.
          1   -1    0    0  501    0  0.00000000000E+00 -0.00000000000E+00 -0.39984637645E+03  0.39984637645E+03  0.00000000000E+00 0. -1.
          5    1    1    2  502    0  0.45591510395E+02 -0.44127000522E+02 -0.49849558325E+02  0.80826025885E+02  0.47000000000E+01 0. -1.
         -5    1    1    2    0  502 -0.50803016070E+02  0.29120663245E+02 -0.89428640384E+02  0.10699780928E+03  0.47000000000E+01 0. -1.
        -11    1    1    2    0    0  0.41747196385E+02  0.32166478102E+02 -0.14523624084E+03  0.15450267432E+03  0.00000000000E+00 0. -1.
         11    1    1    2    0    0 -0.36535690709E+02 -0.17160140824E+02 -0.81712826652E+02  0.91138977217E+02  0.00000000000E+00 0.  1.
<mgrwt>
<rscale>  0 0.11710673E+03</rscale>
<asrwt>0</asrwt>
<pdfrwt beam="2">  1        1 0.61514831E-01 0.12601340E+03</pdfrwt>
<pdfrwt beam="1">  1       -1 0.51721705E-02 0.12601340E+03</pdfrwt>
<totfact> 0.95773683E+03</totfact>
</mgrwt>
</event>
<event>
 6    1  0.7457796E-006  0.1775246E+03  0.7546771E-02  0.1175779E+00
          1   -1    0    0  501    0  0.00000000000E+00  0.00000000000E+00  0.42747004525E+03  0.42747004525E+03  0.00000000000E+00 0. -1.
         -1   -1    0    0    0  501 -0.00000000000E+00 -0.00000000000E+00 -0.78140547603E+02  0.78140547603E+02  0.00000000000E+00 0.  1.
          5    1    1    2  502    0 -0.28148924486E+02 -0.40779711627E+02 -0.26966430913E+02  0.56609409344E+02  0.47000000000E+01 0. -1.
         -5    1    1    2    0  502  0.17110518436E+02 -0.84790462917E+02  0.10823495618E+03  0.13863292604E+03  0.47000000000E+01 0. -1.
        -11    1    1    2    0    0 -0.40804623240E+02  0.64432475923E+02  0.13234492729E+03  0.15274731098E+03  0.00000000000E+00 0.  1.
         11    1    1    2    0    0  0.51843029290E+02  0.61137698621E+02  0.13571604508E+03  0.15762094649E+03  0.00000000000E+00 0. -1.
<mgrwt>
<rscale>  0 0.17199948E+03</rscale>
<asrwt>0</asrwt>
<pdfrwt beam="1">  1        1 0.65764621E-01 0.17752464E+03</pdfrwt>
<pdfrwt beam="2">  1       -1 0.12021623E-01 0.17752464E+03</pdfrwt>
<totfact> 0.25005775E+03</totfact>
</mgrwt>
</event>
<event>
 6    1  0.7457796E-006  0.2363863E+03  0.7546771E-02  0.1125116E+00
          1   -1    0    0  501    0  0.00000000000E+00  0.00000000000E+00  0.13457989073E+03  0.13457989073E+03  0.00000000000E+00 0. -1.
         -1   -1    0    0    0  501 -0.00000000000E+00 -0.00000000000E+00 -0.39104202449E+03  0.39104202449E+03  0.00000000000E+00 0.  1.
          5    1    1    2  502    0 -0.87777032273E+02 -0.13331464747E+03 -0.98657026890E+02  0.18770429292E+03  0.47000000000E+01 0. -1.
         -5    1    1    2    0  502  0.43401165845E+02 -0.62350416069E+02 -0.61099010974E+02  0.97603354054E+02  0.47000000000E+01 0. -1.
        -11    1    1    2    0    0 -0.11759206098E+02  0.14137013426E+03 -0.60105460631E+02  0.15406641485E+03  0.00000000000E+00 0.  1.
         11    1    1    2    0    0  0.56135072526E+02  0.54294929283E+02 -0.36600635261E+02  0.86247853393E+02  0.00000000000E+00 0. -1.
<mgrwt>
<rscale>  0 0.23217801E+03</rscale>
<asrwt>0</asrwt>
<pdfrwt beam="1">  1        1 0.20704599E-01 0.23638626E+03</pdfrwt>
<pdfrwt beam="2">  1       -1 0.60160310E-01 0.23638626E+03</pdfrwt>
<totfact> 0.70650132E+02</totfact>
</mgrwt>
</event>
<event>
 6    1  0.7457796E-006  0.1779470E+03  0.7546771E-02  0.1175789E+00
          1   -1    0    0  501    0  0.00000000000E+00  0.00000000000E+00  0.40632305063E+03  0.40632305063E+03  0.00000000000E+00 0. -1.
         -1   -1    0    0    0  501 -0.00000000000E+00 -0.00000000000E+00 -0.72258306986E+02  0.72258306986E+02  0.00000000000E+00 0.  1.
          5    1    1    2  502    0 -0.94050445741E+02  0.57270923202E+02  0.87097406265E+02  0.14047595227E+03  0.47000000000E+01 0. -1.
         -5    1    1    2    0  502  0.36528615820E+02  0.55611936795E+02  0.34951627579E+02  0.75304273173E+02  0.47000000000E+01 0. -1.
        -11    1    1    2    0    0  0.21585295223E+02 -0.20305346506E+02  0.10766008605E+01  0.29654529773E+02  0.00000000000E+00 0.  1.
         11    1    1    2    0    0  0.35936534698E+02 -0.92577513490E+02  0.21093910894E+03  0.23314660240E+03  0.00000000000E+00 0. -1.
<mgrwt>
<rscale>  0 0.17198920E+03</rscale>
<asrwt>0</asrwt>
<pdfrwt beam="1">  1        1 0.62511237E-01 0.17794701E+03</pdfrwt>
<pdfrwt beam="2">  1       -1 0.11116663E-01 0.17794701E+03</pdfrwt>
<totfact> 0.30124185E+03</totfact>
</mgrwt>
</event>
<event>
 6    1  0.7457796E-006  0.3455029E+03  0.7546771E-02  0.1064476E+00
          2   -1    0    0  501    0  0.00000000000E+00  0.00000000000E+00  0.22667938393E+03  0.22667938393E+03  0.00000000000E+00 0. -1.
         -2   -1    0    0    0  501 -0.00000000000E+00 -0.00000000000E+00 -0.13165321019E+03  0.13165321019E+03  0.00000000000E+00 0.  1.
          5    1    1    2  502    0  0.13625937960E+02  0.17843448169E+02 -0.27945853614E+02  0.36154053190E+02  0.47000000000E+01 0. -1.
         -5    1    1    2    0  502 -0.11256633546E+03 -0.67850671859E+02  0.99295449547E+01  0.13189230233E+03  0.47000000000E+01 0. -1.
        -11    1    1    2    0    0  0.56745526812E+02  0.45195120413E+02  0.33068814053E+01  0.72619482145E+02  0.00000000000E+00 0.  1.
         11    1    1    2    0    0  0.42194870691E+02  0.48121032764E+01  0.10973560099E+03  0.11766675646E+03  0.00000000000E+00 0. -1.
<mgrwt>
<rscale>  0 0.34550293E+03</rscale>
<asrwt>0</asrwt>
<pdfrwt beam="1">  1        2 0.34873751E-01 0.34550293E+03</pdfrwt>
<pdfrwt beam="2">  1       -2 0.20254340E-01 0.34550293E+03</pdfrwt>
<totfact> 0.30644229E+03</totfact>
</mgrwt>
</event>
<event>
 6    1  0.7457796E-006  0.1546754E+03  0.7546771E-02  0.1203150E+00
         -1   -1    0    0    0  501 -0.00000000000E+00  0.00000000000E+00  0.51409912132E+03  0.51409912132E+03  0.00000000000E+00 0.  1.
          1   -1    0    0  501    0  0.00000000000E+00 -0.00000000000E+00 -0.39710792607E+02  0.39710792607E+02  0.00000000000E+00 0. -1.
          5    1    1    2  502    0 -0.36352607038E+02 -0.80641248988E+02  0.12394391921E+03  0.15234404545E+03  0.47000000000E+01 0.  1.
         -5    1    1    2    0  502  0.58471897382E+02 -0.77371568290E+01  0.16679724209E+03  0.17698089261E+03  0.47000000000E+01 0.  1.
        -11    1    1    2    0    0  0.33525624427E+02  0.53532246813E+02  0.97475642829E+02  0.11615149541E+03  0.00000000000E+00 0.  1.
         11    1    1    2    0    0 -0.55644914771E+02  0.34846159005E+02  0.86171524585E+02  0.10833348045E+03  0.00000000000E+00 0. -1.
<mgrwt>
<rscale>  0 0.14784237E+03</rscale>
<asrwt>0</asrwt>
<pdfrwt beam="2">  1        1 0.61093531E-02 0.15467544E+03</pdfrwt>
<pdfrwt beam="1">  1       -1 0.79092168E-01 0.15467544E+03</pdfrwt>
<totfact> 0.20561274E+03</totfact>
</mgrwt>
</event>
<event>
 6    1  0.7457796E-006  0.1380325E+03  0.7546771E-02  0.1227711E+00
         -1   -1    0    0    0  501 -0.00000000000E+00  0.00000000000E+00  0.25232386529E+03  0.25232386529E+03  0.00000000000E+00 0.  1.
          1   -1    0    0  501    0  0.00000000000E+00 -0.00000000000E+00 -0.68251578708E+02  0.68251578708E+02  0.00000000000E+00 0. -1.
          5    1    1    2  502    0 -0.10020729678E+01 -0.20762926966E+02 -0.12917371490E+02  0.24920910349E+02  0.47000000000E+01 0.  1.
         -5    1    1    2    0  502  0.54009359370E+02  0.45528976572E+02  0.17022836884E+03  0.18436291971E+03  0.47000000000E+01 0.  1.
        -11    1    1    2    0    0  0.15369699744E+02 -0.53695276587E+01 -0.20319755741E+02  0.26037510843E+02  0.00000000000E+00 0. -1.
         11    1    1    2    0    0 -0.68376986147E+02 -0.19396521947E+02  0.47081044968E+02  0.85254103089E+02  0.00000000000E+00 0.  1.
<mgrwt>
<rscale>  0 0.12982797E+03</rscale>
<asrwt>0</asrwt>
<pdfrwt beam="2">  1        1 0.10500243E-01 0.13803250E+03</pdfrwt>
<pdfrwt beam="1">  1       -1 0.38819056E-01 0.13803250E+03</pdfrwt>
<totfact> 0.37580854E+03</totfact>
</mgrwt>
</event>
<event>
 6    1  0.7457796E-006  0.1567522E+03  0.7546771E-02  0.1215653E+00
         -1   -1    0    0    0  501 -0.00000000000E+00  0.00000000000E+00  0.27036921585E+02  0.27036921585E+02  0.00000000000E+00 0.  1.
          1   -1    0    0  501    0  0.00000000000E+00 -0.00000000000E+00 -0.59137448391E+03  0.59137448391E+03  0.00000000000E+00 0. -1.
          5    1    1    2  502    0 -0.21696946848E+02 -0.65450623500E+02 -0.25562681104E+03  0.26480501910E+03  0.47000000000E+01 0. -1.
         -5    1    1    2    0  502 -0.49817460325E+01  0.65161457789E+02 -0.66067115618E+02  0.93047230699E+02  0.47000000000E+01 0.  1.
        -11    1    1    2    0    0 -0.31321597805E+02  0.14606939146E+02 -0.74730909480E+02  0.82335375094E+02  0.00000000000E+00 0.  1.
         11    1    1    2    0    0  0.58000290685E+02 -0.14317773435E+02 -0.16791272619E+03  0.17822378061E+03  0.00000000000E+00 0. -1.
<mgrwt>
<rscale>  0 0.13828713E+03</rscale>
<asrwt>0</asrwt>
<pdfrwt beam="2">  1        1 0.90980691E-01 0.15675219E+03</pdfrwt>
<pdfrwt beam="1">  1       -1 0.41595264E-02 0.15675219E+03</pdfrwt>
<totfact> 0.80515160E+03</totfact>
</mgrwt>
</event>
<event>
 6    1  0.7457796E-006  0.1270334E+03  0.7546771E-02  0.1247297E+00
          1   -1    0    0  501    0  0.00000000000E+00  0.00000000000E+00  0.13929192644E+02  0.13929192644E+02  0.00000000000E+00 0. -1.
         -1   -1    0    0    0  501 -0.00000000000E+00 -0.00000000000E+00 -0.10474980585E+04  0.10474980585E+04  0.00000000000E+00 0.  1.
          5    1    1    2  502    0  0.11884092961E+02 -0.50610615879E+02 -0.34108445589E+03  0.34505559284E+03  0.47000000000E+01 0.  1.
         -5    1    1    2    0  502 -0.15828400806E+02  0.72930933194E+02 -0.45925937814E+03  0.46530713050E+03  0.47000000000E+01 0.  1.
        -11    1    1    2    0    0 -0.22288822435E+01 -0.51008490910E+02 -0.20141854475E+03  0.20778898968E+03  0.00000000000E+00 0. -1.
         11    1    1    2    0    0  0.61731900885E+01  0.28688173595E+02 -0.31806487113E+02  0.43275538154E+02  0.00000000000E+00 0.  1.
<mgrwt>
<rscale>  0 0.11748961E+03</rscale>
<asrwt>0</asrwt>
<pdfrwt beam="1">  1        1 0.21429518E-02 0.12703342E+03</pdfrwt>
<pdfrwt beam="2">  1       -1 0.16115361E+00 0.12703342E+03</pdfrwt>
<totfact> 0.16592120E+03</totfact>
</mgrwt>
</event>
<event>
 6    1  0.7457796E-006  0.2435068E+03  0.7546771E-02  0.1138073E+00
         -2   -1    0    0    0  501 -0.00000000000E+00  0.00000000000E+00  0.13054656540E+03  0.13054656540E+03  0.00000000000E+00 0.  1.
          2   -1    0    0  501    0  0.00000000000E+00 -0.00000000000E+00 -0.32831625174E+03  0.32831625174E+03  0.00000000000E+00 0. -1.
          5    1    1    2  502    0 -0.69760393251E+02 -0.25811830589E+02 -0.13012062387E+03  0.14995409238E+03  0.47000000000E+01 0. -1.
         -5    1    1    2    0  502 -0.18735423389E+02 -0.45779249272E+02  0.84273843259E+02  0.97831111673E+02  0.47000000000E+01 0.  1.
        -11    1    1    2    0    0  0.83185655473E+02  0.11058874512E+02 -0.10434133569E+03  0.13390021029E+03  0.00000000000E+00 0.  1.
         11    1    1    2    0    0  0.53101611679E+01  0.60532205350E+02 -0.47581570045E+02  0.77177402807E+02  0.00000000000E+00 0. -1.
<mgrwt>
<rscale>  0 0.21447192E+03</rscale>
<asrwt>0</asrwt>
<pdfrwt beam="2">  1        2 0.50510193E-01 0.24350684E+03</pdfrwt>
<pdfrwt beam="1">  1       -2 0.20084087E-01 0.24350684E+03</pdfrwt>
<totfact> 0.20573307E+03</totfact>
</mgrwt>
</event>
<event>
 6    1  0.7457796E-006  0.1518738E+03  0.7546771E-02  0.1206947E+00
         -2   -1    0    0    0  501 -0.00000000000E+00  0.00000000000E+00  0.62649583542E+02  0.62649583542E+02  0.00000000000E+00 0.  1.
          2   -1    0    0  501    0  0.00000000000E+00 -0.00000000000E+00 -0.37840138846E+03  0.37840138846E+03  0.00000000000E+00 0. -1.
          5    1    1    2  502    0  0.90272554623E+02 -0.17614903373E+02 -0.63142126606E+02  0.11166215604E+03  0.47000000000E+01 0.  1.
         -5    1    1    2    0  502 -0.32165828653E+02 -0.46138967694E+02 -0.11655415120E+02  0.57631446056E+02  0.47000000000E+01 0.  1.
        -11    1    1    2    0    0 -0.20916450176E+02  0.30566786925E+02 -0.20965258615E+03  0.21289911515E+03  0.00000000000E+00 0. -1.
         11    1    1    2    0    0 -0.37190275794E+02  0.33187084142E+02 -0.31301677037E+02  0.58858254755E+02  0.00000000000E+00 0.  1.
<mgrwt>
<rscale>  0 0.14485070E+03</rscale>
<asrwt>0</asrwt>
<pdfrwt beam="2">  1        2 0.58215598E-01 0.15187380E+03</pdfrwt>
<pdfrwt beam="1">  1       -2 0.96383976E-02 0.15187380E+03</pdfrwt>
<totfact> 0.57612124E+03</totfact>
</mgrwt>
</event>
<event>
 6    1  0.7457796E-006  0.1475852E+03  0.7546771E-02  0.1213109E+00
         -1   -1    0    0    0  501 -0.00000000000E+00  0.00000000000E+00  0.34611354554E+02  0.34611354554E+02  0.00000000000E+00 0.  1.
          1   -1    0    0  501    0  0.00000000000E+00 -0.00000000000E+00 -0.51827537596E+03  0.51827537596E+03  0.00000000000E+00 0. -1.
          5    1    1    2  502    0 -0.37702007507E+02  0.61285790909E+01 -0.16183545442E+03  0.16634844501E+03  0.47000000000E+01 0.  1.
         -5    1    1    2    0  502  0.36680214802E+02 -0.84578876561E+02 -0.11594076844E+03  0.14820045986E+03  0.47000000000E+01 0.  1.
        -11    1    1    2    0    0  0.23595761899E+02  0.86696718451E+02 -0.12490858665E+03  0.15386759239E+03  0.00000000000E+00 0. -1.
         11    1    1    2    0    0 -0.22573969194E+02 -0.82464209806E+01 -0.80979211907E+02  0.84470233249E+02  0.00000000000E+00 0.  1.
<mgrwt>
<rscale>  0 0.14016332E+03</rscale>
<asrwt>0</asrwt>
<pdfrwt beam="2">  1        1 0.79734673E-01 0.14758517E+03</pdfrwt>
<pdfrwt beam="1">  1       -1 0.53248238E-02 0.14758517E+03</pdfrwt>
<totfact> 0.66418163E+03</totfact>
</mgrwt>
</event>
<event>
 6    1  0.7457796E-006  0.3427842E+03  0.7546771E-02  0.1065616E+00
          2   -1    0    0  501    0  0.00000000000E+00  0.00000000000E+00  0.15634087553E+03  0.15634087553E+03  0.00000000000E+00 0. -1.
         -2   -1    0    0    0  501 -0.00000000000E+00 -0.00000000000E+00 -0.18789228647E+03  0.18789228647E+03  0.00000000000E+00 0.  1.
          5    1    1    2  502    0 -0.24092946561E+02  0.21373938516E+02 -0.54468015854E+02  0.63452108497E+02  0.47000000000E+01 0. -1.
         -5    1    1    2    0  502 -0.10608651570E+03 -0.19303703422E+02  0.45791120586E+02  0.11724290386E+03  0.47000000000E+01 0. -1.
        -11    1    1    2    0    0  0.91190374776E+02 -0.39600953954E+02  0.10478018572E+02  0.99968539446E+02  0.00000000000E+00 0. -1.
         11    1    1    2    0    0  0.38989087489E+02  0.37530718859E+02 -0.33352534242E+02  0.63569610206E+02  0.00000000000E+00 0.  1.
<mgrwt>
<rscale>  0 0.34278416E+03</rscale>
<asrwt>0</asrwt>
<pdfrwt beam="1">  1        2 0.24052442E-01 0.34278416E+03</pdfrwt>
<pdfrwt beam="2">  1       -2 0.28906506E-01 0.34278416E+03</pdfrwt>
<totfact> 0.24690292E+03</totfact>
</mgrwt>
</event>
<event>
 6    1  0.7457796E-006  0.2743371E+03  0.7546771E-02  0.1098823E+00
          2   -1    0    0  501    0  0.00000000000E+00  0.00000000000E+00  0.53121786470E+03  0.53121786470E+03  0.00000000000E+00 0. -1.
         -2   -1    0    0    0  501 -0.00000000000E+00 -0.00000000000E+00 -0.35419007481E+02  0.35419007481E+02  0.00000000000E+00 0.  1.
          5    1    1    2  502    0  0.93761765291E+02  0.50524870759E+02  0.12594430777E+03  0.16500936293E+03  0.47000000000E+01 0.  1.
         -5    1    1    2    0  502 -0.18044726282E+02 -0.17312046703E+02  0.12269444126E+03  0.12530496807E+03  0.47000000000E+01 0.  1.
        -11    1    1    2    0    0 -0.84516286013E+02  0.46713787899E+01  0.16715577314E+03  0.18736562352E+03  0.00000000000E+00 0.  1.
         11    1    1    2    0    0  0.87992470038E+01 -0.37884202845E+02  0.80004335051E+02  0.88956917662E+02  0.00000000000E+00 0. -1.
<mgrwt>
<rscale>  0 0.27433709E+03</rscale>
<asrwt>0</asrwt>
<pdfrwt beam="1">  1        2 0.81725820E-01 0.27433709E+03</pdfrwt>
<pdfrwt beam="2">  1       -2 0.54490784E-02 0.27433709E+03</pdfrwt>
<totfact> 0.99177495E+03</totfact>
</mgrwt>
</event>
<event>
 6    1  0.7457796E-006  0.2501313E+03  0.7546771E-02  0.1113222E+00
          2   -1    0    0  501    0  0.00000000000E+00  0.00000000000E+00  0.70171572515E+02  0.70171572515E+02  0.00000000000E+00 0. -1.
         -2   -1    0    0    0  501 -0.00000000000E+00 -0.00000000000E+00 -0.22290244834E+03  0.22290244834E+03  0.00000000000E+00 0.  1.
          5    1    1    2  502    0  0.69277085072E+01  0.40723963447E+02 -0.23943025232E+02  0.47977002837E+02  0.47000000000E+01 0. -1.
         -5    1    1    2    0  502 -0.35302603180E+02 -0.87541464992E+02 -0.73274500197E+02  0.11958689001E+03  0.47000000000E+01 0. -1.
        -11    1    1    2    0    0  0.51463666209E+02 -0.33056445197E+01 -0.46802954869E+02  0.69641602579E+02  0.00000000000E+00 0.  1.
         11    1    1    2    0    0 -0.23088771536E+02  0.50123146064E+02 -0.87103955242E+01  0.55868525420E+02  0.00000000000E+00 0. -1.
<mgrwt>
<rscale>  0 0.25013129E+03</rscale>
<asrwt>0</asrwt>
<pdfrwt beam="1">  1        2 0.10795627E-01 0.25013129E+03</pdfrwt>
<pdfrwt beam="2">  1       -2 0.34292684E-01 0.25013129E+03</pdfrwt>
<totfact> 0.45976948E+03</totfact>
</mgrwt>
</event>
<event>
 6    1  0.7457796E-006  0.1273874E+03  0.7546771E-02  0.1246264E+00
          2   -1    0    0  501    0  0.00000000000E+00  0.00000000000E+00  0.70288130940E+02  0.70288130940E+02  0.00000000000E+00 0. -1.
         -2   -1    0    0    0  501 -0.00000000000E+00 -0.00000000000E+00 -0.18794937340E+03  0.18794937340E+03  0.00000000000E+00 0.  1.
          5    1    1    2  502    0 -0.61291406804E+02 -0.28458732408E+02 -0.43739577943E+02  0.80633595213E+02  0.47000000000E+01 0.  1.
         -5    1    1    2    0  502  0.40720440587E+02  0.41852021920E+02 -0.57475557706E+02  0.82068725797E+02  0.47000000000E+01 0.  1.
        -11    1    1    2    0    0  0.38152654513E+02 -0.23650232634E+02 -0.42943801634E+02  0.62121885426E+02  0.00000000000E+00 0.  1.
         11    1    1    2    0    0 -0.17581688296E+02  0.10256943122E+02  0.26497694826E+02  0.33413297902E+02  0.00000000000E+00 0. -1.
<mgrwt>
<rscale>  0 0.11810071E+03</rscale>
<asrwt>0</asrwt>
<pdfrwt beam="1">  1        2 0.10813559E-01 0.12738737E+03</pdfrwt>
<pdfrwt beam="2">  1       -2 0.28915288E-01 0.12738737E+03</pdfrwt>
<totfact> 0.59972056E+03</totfact>
</mgrwt>
</event>
<event>
 6    1  0.7457796E-006  0.1658114E+03  0.7546771E-02  0.1189873E+00
         -1   -1    0    0    0  501 -0.00000000000E+00  0.00000000000E+00  0.32140839559E+03  0.32140839559E+03  0.00000000000E+00 0.  1.
          1   -1    0    0  501    0  0.00000000000E+00 -0.00000000000E+00 -0.11695761206E+03  0.11695761206E+03  0.00000000000E+00 0. -1.
          5    1    1    2  502    0 -0.47772800147E+02  0.43415288934E+02  0.10711862190E+03  0.12515437229E+03  0.47000000000E+01 0.  1.
         -5    1    1    2    0  502 -0.52749904554E+02 -0.85404659005E+02  0.13487860025E+03  0.16819879612E+03  0.47000000000E+01 0.  1.
        -11    1    1    2    0    0  0.33377571111E+02 -0.55524295415E+01 -0.51445074852E+02  0.61575055449E+02  0.00000000000E+00 0. -1.
         11    1    1    2    0    0  0.67145133590E+02  0.47541799612E+02  0.13898636234E+02  0.83437783793E+02  0.00000000000E+00 0.  1.
<mgrwt>
<rscale>  0 0.15896276E+03</rscale>
<asrwt>0</asrwt>
<pdfrwt beam="2">  1        1 0.17993479E-01 0.16581142E+03</pdfrwt>
<pdfrwt beam="1">  1       -1 0.49447445E-01 0.16581142E+03</pdfrwt>
<totfact> 0.12165918E+03</totfact>
</mgrwt>
</event>
<event>
 6    1  0.7457796E-006  0.3480447E+03  0.7546771E-02  0.1063420E+00
         -2   -1    0    0    0  501 -0.00000000000E+00  0.00000000000E+00  0.84527586084E+02  0.84527586084E+02  0.00000000000E+00 0.  1.
          2   -1    0    0  501    0  0.00000000000E+00 -0.00000000000E+00 -0.35827101907E+03  0.35827101907E+03  0.00000000000E+00 0. -1.
          5    1    1    2  502    0  0.75724739495E+02 -0.92954548010E+02 -0.13285216146E+03  0.17901556070E+03  0.47000000000E+01 0. -1.
         -5    1    1    2    0  502  0.38714504524E+02  0.21934096062E+02  0.47306064329E+01  0.44993178014E+02  0.47000000000E+01 0. -1.
        -11    1    1    2    0    0 -0.36707481815E+02  0.70215435701E+02 -0.43309650146E+02  0.90296026644E+02  0.00000000000E+00 0.  1.
         11    1    1    2    0    0 -0.77731762203E+02  0.80501624765E+00 -0.10231222781E+03  0.12849383980E+03  0.00000000000E+00 0. -1.
<mgrwt>
<rscale>  0 0.34804474E+03</rscale>
<asrwt>0</asrwt>
<pdfrwt beam="2">  1        2 0.55118619E-01 0.34804474E+03</pdfrwt>
<pdfrwt beam="1">  1       -2 0.13004244E-01 0.34804474E+03</pdfrwt>
<totfact> 0.39183587E+03</totfact>
</mgrwt>
</event>
<event>
 6    1  0.7457796E-006  0.1548847E+03  0.7546771E-02  0.1202877E+00
          1   -1    0    0  501    0  0.00000000000E+00  0.00000000000E+00  0.12633222410E+03  0.12633222410E+03  0.00000000000E+00 0. -1.
         -1   -1    0    0    0  501 -0.00000000000E+00 -0.00000000000E+00 -0.40818191810E+03  0.40818191810E+03  0.00000000000E+00 0.  1.
          5    1    1    2  502    0  0.43264141980E+02 -0.17642788668E+02 -0.36000343963E+02  0.59170674651E+02  0.47000000000E+01 0.  1.
         -5    1    1    2    0  502 -0.26613581298E+02 -0.72282949398E+02 -0.31800862363E+03  0.32723795957E+03  0.47000000000E+01 0.  1.
        -11    1    1    2    0    0 -0.86943835925E+01  0.74321122449E+02  0.93975688066E+02  0.12012764667E+03  0.00000000000E+00 0. -1.
         11    1    1    2    0    0 -0.79561770896E+01  0.15604615617E+02 -0.21816414483E+02  0.27977861307E+02  0.00000000000E+00 0.  1.
<mgrwt>
<rscale>  0 0.14806005E+03</rscale>
<asrwt>0</asrwt>
<pdfrwt beam="1">  1        1 0.19435726E-01 0.15488474E+03</pdfrwt>
<pdfrwt beam="2">  1       -1 0.62797220E-01 0.15488474E+03</pdfrwt>
<totfact> 0.70297633E+02</totfact>
</mgrwt>
</event>
<event>
 6    1  0.7457796E-006  0.1370058E+03  0.7546771E-02  0.1234537E+00
          2   -1    0    0  501    0  0.00000000000E+00  0.00000000000E+00  0.55468015419E+03  0.55468015419E+03  0.00000000000E+00 0. -1.
         -2   -1    0    0    0  501 -0.00000000000E+00 -0.00000000000E+00 -0.46710959082E+02  0.46710959082E+02  0.00000000000E+00 0.  1.
          5    1    1    2  502    0  0.28106873467E+02 -0.14260107436E+02  0.98739474234E+02  0.10375413617E+03  0.47000000000E+01 0. -1.
         -5    1    1    2    0  502 -0.42588009757E+02 -0.32530127176E+01 -0.27149545529E+02  0.50828225320E+02  0.47000000000E+01 0.  1.
        -11    1    1    2    0    0  0.13587556069E+02  0.55557272809E+02  0.28824284921E+03  0.29386250588E+03  0.00000000000E+00 0. -1.
         11    1    1    2    0    0  0.89358022113E+00 -0.38044152655E+02  0.14813641719E+03  0.15294624590E+03  0.00000000000E+00 0.  1.
<mgrwt>
<rscale>  0 0.12534116E+03</rscale>
<asrwt>0</asrwt>
<pdfrwt beam="1">  1        2 0.85335404E-01 0.13700580E+03</pdfrwt>
<pdfrwt beam="2">  1       -2 0.71863018E-02 0.13700580E+03</pdfrwt>
<totfact> 0.59562857E+03</totfact>
</mgrwt>
</event>
<event>
 6    1  0.7457796E-006  0.1357766E+03  0.7546771E-02  0.1234178E+00
         -1   -1    0    0    0  501 -0.00000000000E+00  0.00000000000E+00  0.77733462458E+03  0.77733462458E+03  0.00000000000E+00 0. -1.
          1   -1    0    0  501    0  0.00000000000E+00 -0.00000000000E+00 -0.18072987417E+02  0.18072987417E+02  0.00000000000E+00 0.  1.
          5    1    1    2  502    0  0.15533887188E+02 -0.73017492834E+02  0.33458446447E+03  0.34284356459E+03  0.47000000000E+01 0.  1.
         -5    1    1    2    0  502  0.31013903075E+02  0.47673899923E+02  0.15314588831E+03  0.16343321579E+03  0.47000000000E+01 0.  1.
        -11    1    1    2    0    0 -0.29300625524E+02  0.53283431263E+02  0.21808970151E+03  0.22640841108E+03  0.00000000000E+00 0. -1.
         11    1    1    2    0    0 -0.17247164739E+02 -0.27939838352E+02  0.53441582875E+02  0.62722420544E+02  0.00000000000E+00 0.  1.
<mgrwt>
<rscale>  0 0.12557234E+03</rscale>
<asrwt>0</asrwt>
<pdfrwt beam="2">  1        1 0.27804602E-02 0.13577659E+03</pdfrwt>
<pdfrwt beam="1">  1       -1 0.11958992E+00 0.13577659E+03</pdfrwt>
<totfact> 0.24457684E+03</totfact>
</mgrwt>
</event>
<event>
 6    1  0.7457796E-006  0.2464416E+03  0.7546771E-02  0.1115575E+00
          1   -1    0    0  501    0  0.00000000000E+00  0.00000000000E+00  0.22625623549E+02  0.22625623549E+02  0.00000000000E+00 0. -1.
         -1   -1    0    0    0  501 -0.00000000000E+00 -0.00000000000E+00 -0.67106946970E+03  0.67106946970E+03  0.00000000000E+00 0.  1.
          5    1    1    2  502    0  0.17998158643E+02 -0.33496366732E+01 -0.40437994340E+03  0.40482142039E+03  0.47000000000E+01 0.  1.
         -5    1    1    2    0  502 -0.57245941690E+02 -0.34921989180E+01 -0.91260101798E+02  0.10788785601E+03  0.47000000000E+01 0.  1.
        -11    1    1    2    0    0  0.96147965392E+01  0.28423768587E+02 -0.13837234021E+03  0.14158834510E+03  0.00000000000E+00 0.  1.
         11    1    1    2    0    0  0.29632986508E+02 -0.21581932996E+02 -0.14431460735E+02  0.39397471748E+02  0.00000000000E+00 0. -1.
<mgrwt>
<rscale>  0 0.24644160E+03</rscale>
<asrwt>0</asrwt>
<pdfrwt beam="1">  1        1 0.34808657E-02 0.24644160E+03</pdfrwt>
<pdfrwt beam="2">  1       -1 0.10324144E+00 0.24644160E+03</pdfrwt>
<totfact> 0.25786677E+03</totfact>
</mgrwt>
</event>
<event>
 6    1  0.7457796E-006  0.3348147E+03  0.7546771E-02  0.1069026E+00
          1   -1    0    0  501    0  0.00000000000E+00  0.00000000000E+00  0.82796709538E+02  0.82796709538E+02  0.00000000000E+00 0. -1.
         -1   -1    0    0    0  501 -0.00000000000E+00 -0.00000000000E+00 -0.33848220973E+03  0.33848220973E+03  0.00000000000E+00 0.  1.
          5    1    1    2  502    0  0.39685002760E+02 -0.12652720727E+03 -0.17412973635E+03  0.21892302005E+03  0.47000000000E+01 0.  1.
         -5    1    1    2    0  502  0.11465316965E+02  0.30539434017E+02 -0.46716818786E+02  0.57172210738E+02  0.47000000000E+01 0.  1.
        -11    1    1    2    0    0 -0.39426880930E+02  0.42397219876E+02 -0.61264190337E+02  0.84292966555E+02  0.00000000000E+00 0.  1.
         11    1    1    2    0    0 -0.11723438795E+02  0.53590553382E+02  0.26425245281E+02  0.60890721930E+02  0.00000000000E+00 0. -1.
<mgrwt>
<rscale>  0 0.33481465E+03</rscale>
<asrwt>0</asrwt>
<pdfrwt beam="1">  1        1 0.12737955E-01 0.33481465E+03</pdfrwt>
<pdfrwt beam="2">  1       -1 0.52074186E-01 0.33481465E+03</pdfrwt>
<totfact> 0.17685241E+03</totfact>
</mgrwt>
</event>
<event>
 6    1  0.7457796E-006  0.1309500E+03  0.7546771E-02  0.1235690E+00
          1   -1    0    0  501    0  0.00000000000E+00  0.00000000000E+00  0.53304945101E+03  0.53304945101E+03  0.00000000000E+00 0. -1.
         -1   -1    0    0    0  501 -0.00000000000E+00 -0.00000000000E+00 -0.26939166210E+02  0.26939166210E+02  0.00000000000E+00 0.  1.
          5    1    1    2  502    0 -0.43740174345E+02 -0.28705960260E+02  0.96992634666E+02  0.11030365445E+03  0.47000000000E+01 0.  1.
         -5    1    1    2    0  502  0.77684432594E+02  0.94467306244E+01  0.15115593219E+03  0.17027717881E+03  0.47000000000E+01 0.  1.
        -11    1    1    2    0    0  0.45192783661E+01 -0.15782677084E+02  0.17047309356E+00  0.16417851077E+02  0.00000000000E+00 0.  1.
         11    1    1    2    0    0 -0.38463536615E+02  0.35041906720E+02  0.25779124485E+03  0.26298993289E+03  0.00000000000E+00 0. -1.
<mgrwt>
<rscale>  0 0.12460389E+03</rscale>
<asrwt>0</asrwt>
<pdfrwt beam="1">  1        1 0.82007600E-01 0.13094996E+03</pdfrwt>
<pdfrwt beam="2">  1       -1 0.41444875E-02 0.13094996E+03</pdfrwt>
<totfact> 0.91987397E+03</totfact>
</mgrwt>
</event>
<event>
 6    1  0.1614839E-005  0.3269091E+03  0.7546771E-02  0.1073857E+00
         -1   -1    0    0    0  501 -0.00000000000E+00  0.00000000000E+00  0.49812207658E+03  0.49812207658E+03  0.00000000000E+00 0.  1.
          1   -1    0    0  501    0  0.00000000000E+00 -0.00000000000E+00 -0.22094082121E+03  0.22094082121E+03  0.00000000000E+00 0. -1.
          5    1    1    2  502    0  0.14519503841E+03 -0.15926820344E+03  0.18485193416E+03  0.28397233557E+03  0.47000000000E+01 0. -1.
         -5    1    1    2    0  502 -0.21225131695E+01 -0.10676727705E+03  0.46775486114E+02  0.11667815825E+03  0.47000000000E+01 0. -1.
        -11    1    1    2    0    0 -0.67859897787E+02  0.19931358217E+03  0.54454814649E+02  0.21747688752E+03  0.00000000000E+00 0.  1.
         11    1    1    2    0    0 -0.75212627454E+02  0.66721898324E+02 -0.89009795628E+01  0.10093551645E+03  0.00000000000E+00 0. -1.
<mgrwt>
<rscale>  0 0.32392546E+03</rscale>
<asrwt>0</asrwt>
<pdfrwt beam="2">  1        1 0.33990896E-01 0.32690909E+03</pdfrwt>
<pdfrwt beam="1">  1       -1 0.76634166E-01 0.32690909E+03</pdfrwt>
<totfact> 0.23090551E+02</totfact>
</mgrwt>
</event>
<event>
 6    1  0.7457796E-006  0.3164342E+03  0.7546771E-02  0.1078747E+00
          2   -1    0    0  501    0  0.00000000000E+00  0.00000000000E+00  0.41736192438E+03  0.41736192438E+03  0.00000000000E+00 0. -1.
         -2   -1    0    0    0  501 -0.00000000000E+00 -0.00000000000E+00 -0.23189964576E+03  0.23189964576E+03  0.00000000000E+00 0.  1.
          5    1    1    2  502    0 -0.72772347045E+02  0.37509905166E+02 -0.34140523327E+01  0.82076508413E+02  0.47000000000E+01 0.  1.
         -5    1    1    2    0  502 -0.21708471323E+03 -0.59510481426E+02  0.12020529875E+03  0.25522279280E+03  0.47000000000E+01 0.  1.
        -11    1    1    2    0    0  0.49088293804E+02  0.37924267703E+02  0.40465430555E+01  0.62163374909E+02  0.00000000000E+00 0.  1.
         11    1    1    2    0    0  0.24076876647E+03 -0.15923691443E+02  0.64624489147E+02  0.24979889402E+03  0.00000000000E+00 0. -1.
<mgrwt>
<rscale>  0 0.31335870E+03</rscale>
<asrwt>0</asrwt>
<pdfrwt beam="1">  1        2 0.64209527E-01 0.31643423E+03</pdfrwt>
<pdfrwt beam="2">  1       -2 0.35676869E-01 0.31643423E+03</pdfrwt>
<totfact> 0.56654587E+02</totfact>
</mgrwt>
</event>
<event>
 6    1  0.7457796E-006  0.1462139E+03  0.7546771E-02  0.1214918E+00
          2   -1    0    0  501    0  0.00000000000E+00  0.00000000000E+00  0.15772515214E+03  0.15772515214E+03  0.00000000000E+00 0. -1.
         -2   -1    0    0    0  501 -0.00000000000E+00 -0.00000000000E+00 -0.13159041529E+03  0.13159041529E+03  0.00000000000E+00 0.  1.
          5    1    1    2  502    0  0.52386668870E+02  0.28637019023E+02 -0.16829012958E+02  0.62207295480E+02  0.47000000000E+01 0. -1.
         -5    1    1    2    0  502 -0.29273804355E+01 -0.86145343609E+02 -0.25446255430E+02  0.89995509317E+02  0.47000000000E+01 0. -1.
        -11    1    1    2    0    0 -0.21576338454E+02 -0.23732564758E+02  0.11483291475E+02  0.34068152197E+02  0.00000000000E+00 0.  1.
         11    1    1    2    0    0 -0.27882949981E+02  0.81240889344E+02  0.56926713765E+02  0.10304461044E+03  0.00000000000E+00 0. -1.
<mgrwt>
<rscale>  0 0.13882596E+03</rscale>
<asrwt>0</asrwt>
<pdfrwt beam="1">  1        2 0.24265408E-01 0.14621387E+03</pdfrwt>
<pdfrwt beam="2">  1       -2 0.20244679E-01 0.14621387E+03</pdfrwt>
<totfact> 0.44036498E+03</totfact>
</mgrwt>
</event>
<event>
 6    1  0.7457796E-006  0.1308167E+03  0.7546771E-02  0.1239806E+00
          3   -1    0    0  501    0  0.00000000000E+00  0.00000000000E+00  0.26821741555E+02  0.26821741555E+02  0.00000000000E+00 0. -1.
         -3   -1    0    0    0  501 -0.00000000000E+00 -0.00000000000E+00 -0.49339546885E+03  0.49339546885E+03  0.00000000000E+00 0.  1.
          5    1    1    2  502    0 -0.86835934898E+01 -0.63444838104E+02 -0.65453078271E+02  0.91688863736E+02  0.47000000000E+01 0.  1.
         -5    1    1    2    0  502  0.22969983151E+02  0.27541592060E+02 -0.21192559174E+03  0.21499001338E+03  0.47000000000E+01 0.  1.
        -11    1    1    2    0    0 -0.82628096920E+01  0.46767104930E+02 -0.19436532674E+03  0.20008327358E+03  0.00000000000E+00 0.  1.
         11    1    1    2    0    0 -0.60235799695E+01 -0.10863858886E+02  0.51702694561E+01  0.13455059710E+02  0.00000000000E+00 0. -1.
<mgrwt>
<rscale>  0 0.12201745E+03</rscale>
<asrwt>0</asrwt>
<pdfrwt beam="1">  1        3 0.41264217E-02 0.13081669E+03</pdfrwt>
<pdfrwt beam="2">  1       -3 0.75906997E-01 0.13081669E+03</pdfrwt>
<totfact> 0.11836082E+03</totfact>
</mgrwt>
</event>
<event>
 6    1  0.7457796E-006  0.2944366E+03  0.7546771E-02  0.1088055E+00
         -1   -1    0    0    0  501 -0.00000000000E+00  0.00000000000E+00  0.88874688820E+03  0.88874688820E+03  0.00000000000E+00 0.  1.
          1   -1    0    0  501    0  0.00000000000E+00 -0.00000000000E+00 -0.24386284603E+02  0.24386284603E+02  0.00000000000E+00 0. -1.
          5    1    1    2  502    0 -0.34822868119E+02 -0.93843248524E+01  0.93403789326E+02  0.10023500166E+03  0.47000000000E+01 0. -1.
         -5    1    1    2    0  502  0.83144133807E+02 -0.21345540650E+02  0.49683346292E+03  0.50421638110E+03  0.47000000000E+01 0.  1.
        -11    1    1    2    0    0  0.38507517169E+02  0.38845298766E+02  0.10355876354E+03  0.11711619709E+03  0.00000000000E+00 0.  1.
         11    1    1    2    0    0 -0.86828782856E+02 -0.81154332636E+01  0.17056458781E+03  0.19156559296E+03  0.00000000000E+00 0. -1.
<mgrwt>
<rscale>  0 0.29443665E+03</rscale>
<asrwt>0</asrwt>
<pdfrwt beam="2">  1        1 0.37517368E-02 0.29443665E+03</pdfrwt>
<pdfrwt beam="1">  1       -1 0.13673027E+00 0.29443665E+03</pdfrwt>
<totfact> 0.11955903E+03</totfact>
</mgrwt>
</event>
<event>
 6    1  0.7457796E-006  0.2462927E+03  0.7546771E-02  0.1115670E+00
         -1   -1    0    0    0  501 -0.00000000000E+00  0.00000000000E+00  0.60945810867E+03  0.60945810867E+03  0.00000000000E+00 0.  1.
          1   -1    0    0  501    0  0.00000000000E+00 -0.00000000000E+00 -0.24882803090E+02  0.24882803090E+02  0.00000000000E+00 0. -1.
          5    1    1    2  502    0 -0.35649226350E+01  0.24129198224E+02  0.24218984533E+03  0.24346034187E+03  0.47000000000E+01 0. -1.
         -5    1    1    2    0  502 -0.27979699989E+02 -0.72916057520E+02  0.16830676583E+03  0.18560407453E+03  0.47000000000E+01 0.  1.
        -11    1    1    2    0    0  0.43653506335E+02 -0.46226322552E+01  0.36127662119E+02  0.56852487320E+02  0.00000000000E+00 0.  1.
         11    1    1    2    0    0 -0.12108883710E+02  0.53409491551E+02  0.13795103230E+03  0.14842400805E+03  0.00000000000E+00 0. -1.
<mgrwt>
<rscale>  0 0.24629272E+03</rscale>
<asrwt>0</asrwt>
<pdfrwt beam="2">  1        1 0.38281240E-02 0.24629272E+03</pdfrwt>
<pdfrwt beam="1">  1       -1 0.93762775E-01 0.24629272E+03</pdfrwt>
<totfact> 0.27940420E+03</totfact>
</mgrwt>
</event>
<event>
 6    1  0.7457796E-006  0.1351164E+03  0.7546771E-02  0.1233850E+00
         -3   -1    0    0    0  501 -0.00000000000E+00  0.00000000000E+00  0.14841753005E+04  0.14841753005E+04  0.00000000000E+00 0.  1.
          3   -1    0    0  501    0  0.00000000000E+00 -0.00000000000E+00 -0.15173508809E+02  0.15173508809E+02  0.00000000000E+00 0. -1.
          5    1    1    2  502    0  0.71836208683E+02 -0.27640766378E+02  0.44149357425E+03  0.44817755292E+03  0.47000000000E+01 0. -1.
         -5    1    1    2    0  502 -0.20980506538E+02  0.20985085550E+02  0.81626729155E+03  0.81682001489E+03  0.47000000000E+01 0. -1.
        -11    1    1    2    0    0 -0.34431169187E+02  0.16971145798E+02  0.21149901386E+03  0.21495431623E+03  0.00000000000E+00 0.  1.
         11    1    1    2    0    0 -0.16424532959E+02 -0.10315464970E+02 -0.25808796465E+00  0.19396925268E+02  0.00000000000E+00 0. -1.
<mgrwt>
<rscale>  0 0.12578361E+03</rscale>
<asrwt>0</asrwt>
<pdfrwt beam="2">  1        3 0.23343871E-02 0.13511644E+03</pdfrwt>
<pdfrwt beam="1">  1       -3 0.22833455E+00 0.13511644E+03</pdfrwt>
<totfact> 0.19326808E+02</totfact>
</mgrwt>
</event>
<event>
 6    1  0.7457796E-006  0.2987165E+03  0.7546771E-02  0.1125004E+00
          2   -1    0    0  501    0  0.00000000000E+00  0.00000000000E+00  0.71329966246E+03  0.71329966246E+03  0.00000000000E+00 0. -1.
         -2   -1    0    0    0  501 -0.00000000000E+00 -0.00000000000E+00 -0.75167743923E+02  0.75167743923E+02  0.00000000000E+00 0.  1.
          5    1    1    2  502    0  0.15712494413E+03 -0.35489559002E+02  0.22870033972E+03  0.27977435953E+03  0.47000000000E+01 0. -1.
         -5    1    1    2    0  502 -0.99539601261E+02  0.54288510261E+02  0.35189177308E+02  0.11880969138E+03  0.47000000000E+01 0.  1.
        -11    1    1    2    0    0 -0.81313731096E+01  0.34427629205E+02  0.15217512314E+03  0.15623267579E+03  0.00000000000E+00 0. -1.
         11    1    1    2    0    0 -0.49453969759E+02 -0.53226580464E+02  0.22206727838E+03  0.23365067969E+03  0.00000000000E+00 0.  1.
<mgrwt>
<rscale>  0 0.23233945E+03</rscale>
<asrwt>0</asrwt>
<pdfrwt beam="1">  1        2 0.10973841E+00 0.29871654E+03</pdfrwt>
<pdfrwt beam="2">  1       -2 0.11564269E-01 0.29871654E+03</pdfrwt>
<totfact> 0.21512436E+03</totfact>
</mgrwt>
</event>
<event>
 6    1  0.7457796E-006  0.3354949E+03  0.7546771E-02  0.1068731E+00
         -1   -1    0    0    0  501 -0.00000000000E+00  0.00000000000E+00  0.20995079598E+04  0.20995079598E+04  0.00000000000E+00 0.  1.
          1   -1    0    0  501    0  0.00000000000E+00 -0.00000000000E+00 -0.13402762874E+02  0.13402762874E+02  0.00000000000E+00 0. -1.
          5    1    1    2  502    0 -0.89403594644E+02 -0.28537407898E+02  0.15649893343E+04  0.15678077346E+04  0.47000000000E+01 0. -1.
         -5    1    1    2    0  502 -0.36939898215E+01  0.29161600070E+02  0.96769509330E+02  0.10124461672E+03  0.47000000000E+01 0. -1.
        -11    1    1    2    0    0  0.47069430402E+02 -0.45763914642E+02  0.20878333712E+03  0.21886148364E+03  0.00000000000E+00 0. -1.
         11    1    1    2    0    0  0.46028154064E+02  0.45139722469E+02  0.21556301623E+03  0.22499688771E+03  0.00000000000E+00 0.  1.
<mgrwt>
<rscale>  0 0.33549490E+03</rscale>
<asrwt>0</asrwt>
<pdfrwt beam="2">  1        1 0.20619652E-02 0.33549490E+03</pdfrwt>
<pdfrwt beam="1">  1       -1 0.32300096E+00 0.33549490E+03</pdfrwt>
<totfact> 0.15952949E+02</totfact>
</mgrwt>
</event>
<event>
 6    1  0.7457796E-006  0.1473582E+03  0.7546771E-02  0.1213060E+00
         -1   -1    0    0    0  501 -0.00000000000E+00  0.00000000000E+00  0.38413819222E+02  0.38413819222E+02  0.00000000000E+00 0.  1.
          1   -1    0    0  501    0  0.00000000000E+00 -0.00000000000E+00 -0.47410270705E+03  0.47410270705E+03  0.00000000000E+00 0. -1.
          5    1    1    2  502    0  0.23205740807E+02 -0.15050312595E+02 -0.19041893570E+03  0.19247462011E+03  0.47000000000E+01 0. -1.
         -5    1    1    2    0  502 -0.38915053503E+01 -0.60569593259E+02 -0.19345991683E+02  0.63876261910E+02  0.47000000000E+01 0. -1.
        -11    1    1    2    0    0  0.13860208314E+02  0.88369848652E+01  0.18072587290E+01  0.16536742731E+02  0.00000000000E+00 0.  1.
         11    1    1    2    0    0 -0.33174443771E+02  0.66782920988E+02 -0.22773121917E+03  0.23962890152E+03  0.00000000000E+00 0. -1.
<mgrwt>
<rscale>  0 0.14019984E+03</rscale>
<asrwt>0</asrwt>
<pdfrwt beam="2">  1        1 0.72938877E-01 0.14735824E+03</pdfrwt>
<pdfrwt beam="1">  1       -1 0.59098184E-02 0.14735824E+03</pdfrwt>
<totfact> 0.63881780E+03</totfact>
</mgrwt>
</event>
<event>
 6    1  0.7457796E-006  0.1252722E+03  0.7546771E-02  0.1261646E+00
          2   -1    0    0  501    0  0.00000000000E+00  0.00000000000E+00  0.52439396302E+02  0.52439396302E+02  0.00000000000E+00 0. -1.
         -2   -1    0    0    0  501 -0.00000000000E+00 -0.00000000000E+00 -0.19098055231E+03  0.19098055231E+03  0.00000000000E+00 0.  1.
          5    1    1    2  502    0 -0.33943836699E+01 -0.54307745525E+02 -0.79320429531E+02  0.96305106850E+02  0.47000000000E+01 0. -1.
         -5    1    1    2    0  502  0.84673157522E+01  0.60883598283E+02 -0.24286538907E+02  0.66260349743E+02  0.47000000000E+01 0. -1.
        -11    1    1    2    0    0  0.20652409930E+02 -0.12612983588E+02 -0.46180295391E+02  0.52136638492E+02  0.00000000000E+00 0.  1.
         11    1    1    2    0    0 -0.25725342012E+02  0.60371308290E+01  0.11246107817E+02  0.28717853529E+02  0.00000000000E+00 0. -1.
<mgrwt>
<rscale>  0 0.10942080E+03</rscale>
<asrwt>0</asrwt>
<pdfrwt beam="1">  1        2 0.80675995E-02 0.12527220E+03</pdfrwt>
<pdfrwt beam="2">  1       -2 0.29381623E-01 0.12527220E+03</pdfrwt>
<totfact> 0.83522808E+03</totfact>
</mgrwt>
</event>
<event>
 6    1  0.7457796E-006  0.2410449E+03  0.7546771E-02  0.1119099E+00
         -1   -1    0    0    0  501 -0.00000000000E+00  0.00000000000E+00  0.29094566479E+03  0.29094566479E+03  0.00000000000E+00 0.  1.
          1   -1    0    0  501    0  0.00000000000E+00 -0.00000000000E+00 -0.49925695603E+02  0.49925695603E+02  0.00000000000E+00 0. -1.
          5    1    1    2  502    0  0.12026088045E+02 -0.22492862818E+02  0.17114613307E+03  0.17310009976E+03  0.47000000000E+01 0.  1.
         -5    1    1    2    0  502  0.47411366476E+01  0.41400264258E+02  0.20542160077E+01  0.41985355313E+02  0.47000000000E+01 0.  1.
        -11    1    1    2    0    0 -0.52470226789E+02  0.17138355863E+02  0.35875482654E+02  0.65832349165E+02  0.00000000000E+00 0. -1.
         11    1    1    2    0    0  0.35703002097E+02 -0.36045757303E+02  0.31944137463E+02  0.59953556162E+02  0.00000000000E+00 0.  1.
<mgrwt>
<rscale>  0 0.24104493E+03</rscale>
<asrwt>0</asrwt>
<pdfrwt beam="2">  1        1 0.76808764E-02 0.24104493E+03</pdfrwt>
<pdfrwt beam="1">  1       -1 0.44760871E-01 0.24104493E+03</pdfrwt>
<totfact> 0.45787075E+03</totfact>
</mgrwt>
</event>
<event>
 6    1  0.7457796E-006  0.1985640E+03  0.7546771E-02  0.1174375E+00
          1   -1    0    0  501    0  0.00000000000E+00  0.00000000000E+00  0.26605798309E+03  0.26605798309E+03  0.00000000000E+00 0. -1.
         -1   -1    0    0    0  501 -0.00000000000E+00 -0.00000000000E+00 -0.26223982948E+03  0.26223982948E+03  0.00000000000E+00 0.  1.
          5    1    1    2  502    0 -0.37928486442E+01 -0.56190075947E+02  0.60475375691E+00  0.56516953765E+02  0.47000000000E+01 0. -1.
         -5    1    1    2    0  502  0.82139392070E+02  0.55871397945E+02 -0.20830463272E+03  0.23082764750E+03  0.47000000000E+01 0.  1.
        -11    1    1    2    0    0 -0.21938456266E+02  0.36680098413E+02  0.48407801117E+02  0.64575852235E+02  0.00000000000E+00 0.  1.
         11    1    1    2    0    0 -0.56408087160E+02 -0.36361420411E+02  0.16311023145E+03  0.17637735908E+03  0.00000000000E+00 0. -1.
<mgrwt>
<rscale>  0 0.17337348E+03</rscale>
<asrwt>0</asrwt>
<pdfrwt beam="1">  1        1 0.40931997E-01 0.19856405E+03</pdfrwt>
<pdfrwt beam="2">  1       -1 0.40344589E-01 0.19856405E+03</pdfrwt>
<totfact> 0.62279184E+02</totfact>
</mgrwt>
</event>
<event>
 6    1  0.7457796E-006  0.3327088E+03  0.7546771E-02  0.1069945E+00
         -2   -1    0    0    0  501 -0.00000000000E+00  0.00000000000E+00  0.40752195763E+02  0.40752195763E+02  0.00000000000E+00 0.  1.
          2   -1    0    0  501    0  0.00000000000E+00 -0.00000000000E+00 -0.67907469718E+03  0.67907469718E+03  0.00000000000E+00 0. -1.
          5    1    1    2  502    0  0.97462876626E+02  0.73073574737E+00 -0.11643683291E+03  0.15191830816E+03  0.47000000000E+01 0. -1.
         -5    1    1    2    0  502 -0.32784200074E+02 -0.28576957169E+02 -0.30855966534E+02  0.53531550755E+02  0.47000000000E+01 0.  1.
        -11    1    1    2    0    0 -0.80682595501E+02  0.70131299823E+02 -0.37177615917E+03  0.38684052652E+03  0.00000000000E+00 0.  1.
         11    1    1    2    0    0  0.16003918950E+02 -0.42285078402E+02 -0.11925354281E+03  0.12753650752E+03  0.00000000000E+00 0. -1.
<mgrwt>
<rscale>  0 0.33270879E+03</rscale>
<asrwt>0</asrwt>
<pdfrwt beam="2">  1        2 0.10447303E+00 0.33270879E+03</pdfrwt>
<pdfrwt beam="1">  1       -2 0.62695688E-02 0.33270879E+03</pdfrwt>
<totfact> 0.60370208E+03</totfact>
</mgrwt>
</event>
<event>
 6    1  0.7457796E-006  0.2078249E+03  0.7546771E-02  0.1147354E+00
         -2   -1    0    0    0  501 -0.00000000000E+00  0.00000000000E+00  0.30171845497E+02  0.30171845497E+02  0.00000000000E+00 0.  1.
          2   -1    0    0  501    0  0.00000000000E+00 -0.00000000000E+00 -0.13024148302E+04  0.13024148302E+04  0.00000000000E+00 0. -1.
          5    1    1    2  502    0 -0.13450003093E+03 -0.36080735902E+02 -0.40768368936E+03  0.43083657968E+03  0.47000000000E+01 0. -1.
         -5    1    1    2    0  502  0.40335195736E+01 -0.66605470860E+02 -0.25825256552E+03  0.26677525303E+03  0.47000000000E+01 0. -1.
        -11    1    1    2    0    0  0.97855530342E+02  0.20263943157E+02 -0.31268755866E+03  0.32826794171E+03  0.00000000000E+00 0.  1.
         11    1    1    2    0    0  0.32610981013E+02  0.82422263606E+02 -0.29361917118E+03  0.30670690130E+03  0.00000000000E+00 0. -1.
<mgrwt>
<rscale>  0 0.20285317E+03</rscale>
<asrwt>0</asrwt>
<pdfrwt beam="2">  1        2 0.20037151E+00 0.20782486E+03</pdfrwt>
<pdfrwt beam="1">  1       -2 0.46418224E-02 0.20782486E+03</pdfrwt>
<totfact> 0.38187419E+03</totfact>
</mgrwt>
</event>
<event>
 6    1  0.7457796E-006  0.1595024E+03  0.7546771E-02  0.1198240E+00
         -1   -1    0    0    0  501 -0.00000000000E+00  0.00000000000E+00  0.62111025394E+03  0.62111025394E+03  0.00000000000E+00 0.  1.
          1   -1    0    0  501    0  0.00000000000E+00 -0.00000000000E+00 -0.42084127265E+02  0.42084127265E+02  0.00000000000E+00 0. -1.
          5    1    1    2  502    0  0.15388633437E+02 -0.10314647803E+03  0.37229948258E+03  0.38665876519E+03  0.47000000000E+01 0.  1.
         -5    1    1    2    0  502 -0.47000391928E+02  0.92425916109E+01  0.85294914349E+02  0.97937606439E+02  0.47000000000E+01 0.  1.
        -11    1    1    2    0    0  0.53207859826E+02  0.44515035837E+02  0.37534738186E+02  0.78876620957E+02  0.00000000000E+00 0.  1.
         11    1    1    2    0    0 -0.21596101335E+02  0.49388850586E+02  0.83896991554E+02  0.99721388613E+02  0.00000000000E+00 0. -1.
<mgrwt>
<rscale>  0 0.15183204E+03</rscale>
<asrwt>0</asrwt>
<pdfrwt beam="2">  1        1 0.64744816E-02 0.15950239E+03</pdfrwt>
<pdfrwt beam="1">  1       -1 0.95555417E-01 0.15950239E+03</pdfrwt>
<totfact> 0.12771054E+03</totfact>
</mgrwt>
</event>
<event>
 6    1  0.7457796E-006  0.1834116E+03  0.7546771E-02  0.1169920E+00
          1   -1    0    0  501    0  0.00000000000E+00  0.00000000000E+00  0.50776223763E+03  0.50776223763E+03  0.00000000000E+00 0. -1.
         -1   -1    0    0    0  501 -0.00000000000E+00 -0.00000000000E+00 -0.99066047623E+02  0.99066047623E+02  0.00000000000E+00 0.  1.
          5    1    1    2  502    0 -0.18455937799E+01  0.23058495643E+02 -0.23505332296E+02  0.33312026118E+02  0.47000000000E+01 0. -1.
         -5    1    1    2    0  502  0.12880069486E+03 -0.66570982480E+02  0.42047614893E+02  0.15103445508E+03  0.47000000000E+01 0. -1.
        -11    1    1    2    0    0 -0.11141337649E+03  0.60187591576E+02  0.37312769888E+03  0.39403015914E+03  0.00000000000E+00 0. -1.
         11    1    1    2    0    0 -0.15541724587E+02 -0.16675104740E+02  0.17026208530E+02  0.28451644911E+02  0.00000000000E+00 0.  1.
<mgrwt>
<rscale>  0 0.17782968E+03</rscale>
<asrwt>0</asrwt>
<pdfrwt beam="1">  1        1 0.78117266E-01 0.18341158E+03</pdfrwt>
<pdfrwt beam="2">  1       -1 0.15240931E-01 0.18341158E+03</pdfrwt>
<totfact> 0.13793618E+03</totfact>
</mgrwt>
</event>
<event>
 6    1  0.7457796E-006  0.3570395E+03  0.7546771E-02  0.1059762E+00
         -1   -1    0    0    0  501 -0.00000000000E+00  0.00000000000E+00  0.15761486833E+03  0.15761486833E+03  0.00000000000E+00 0.  1.
          1   -1    0    0  501    0  0.00000000000E+00 -0.00000000000E+00 -0.20219732595E+03  0.20219732595E+03  0.00000000000E+00 0. -1.
          5    1    1    2  502    0 -0.68622597573E+00 -0.48345476468E+01  0.31160918785E+02  0.31889443654E+02  0.47000000000E+01 0. -1.
         -5    1    1    2    0  502 -0.89310853018E+02 -0.10977553170E+03 -0.64138162826E+02  0.15544416926E+03  0.47000000000E+01 0.  1.
        -11    1    1    2    0    0  0.98536051969E+02  0.58888900671E+02  0.63204628618E+00  0.11479397041E+03  0.00000000000E+00 0.  1.
         11    1    1    2    0    0 -0.85389729753E+01  0.55721178672E+02 -0.12237259862E+02  0.57684610955E+02  0.00000000000E+00 0. -1.
<mgrwt>
<rscale>  0 0.35703952E+03</rscale>
<asrwt>0</asrwt>
<pdfrwt beam="2">  1        1 0.31107281E-01 0.35703952E+03</pdfrwt>
<pdfrwt beam="1">  1       -1 0.24248441E-01 0.35703952E+03</pdfrwt>
<totfact> 0.21274910E+03</totfact>
</mgrwt>
</event>
<event>
 6    1  0.7457796E-006  0.3487078E+03  0.7546771E-02  0.1063147E+00
          1   -1    0    0  501    0  0.00000000000E+00  0.00000000000E+00  0.55364898342E+03  0.55364898342E+03  0.00000000000E+00 0. -1.
         -1   -1    0    0    0  501 -0.00000000000E+00 -0.00000000000E+00 -0.54907152812E+02  0.54907152812E+02  0.00000000000E+00 0.  1.
          5    1    1    2  502    0 -0.11181920284E+03 -0.10144868616E+03  0.16663266203E+03  0.22490865724E+03  0.47000000000E+01 0.  1.
         -5    1    1    2    0  502  0.23186524135E+02  0.97892295066E+01  0.14432766902E+02  0.29391132613E+02  0.47000000000E+01 0.  1.
        -11    1    1    2    0    0  0.34366695204E+02  0.48596880820E+02  0.49920876800E+02  0.77684107159E+02  0.00000000000E+00 0.  1.
         11    1    1    2    0    0  0.54265983499E+02  0.43062575837E+02  0.26775552488E+03  0.27657223922E+03  0.00000000000E+00 0. -1.
<mgrwt>
<rscale>  0 0.34870784E+03</rscale>
<asrwt>0</asrwt>
<pdfrwt beam="1">  1        1 0.85176763E-01 0.34870784E+03</pdfrwt>
<pdfrwt beam="2">  1       -1 0.84472547E-02 0.34870784E+03</pdfrwt>
<totfact> 0.31225057E+03</totfact>
</mgrwt>
</event>
<event>
 6    1  0.7457796E-006  0.1337941E+03  0.7546771E-02  0.1235599E+00
          2   -1    0    0  501    0  0.00000000000E+00  0.00000000000E+00  0.27160123493E+03  0.27160123493E+03  0.00000000000E+00 0.  1.
         -2   -1    0    0    0  501 -0.00000000000E+00 -0.00000000000E+00 -0.59840529994E+02  0.59840529994E+02  0.00000000000E+00 0. -1.
          5    1    1    2  502    0 -0.45146542470E+02 -0.54866512131E+01  0.25314841187E+02  0.52261312869E+02  0.47000000000E+01 0. -1.
         -5    1    1    2    0  502  0.84699907250E+02 -0.21220519118E+02  0.28840095188E+02  0.92077281727E+02  0.47000000000E+01 0. -1.
        -11    1    1    2    0    0 -0.18503619075E+02  0.20777716816E+02  0.16235731490E+03  0.16472399685E+03  0.00000000000E+00 0.  1.
         11    1    1    2    0    0 -0.21049745706E+02  0.59294535156E+01 -0.47515463372E+01  0.22379173485E+02  0.00000000000E+00 0. -1.
<mgrwt>
<rscale>  0 0.12466151E+03</rscale>
<asrwt>0</asrwt>
<pdfrwt beam="1">  1        2 0.41784804E-01 0.13379414E+03</pdfrwt>
<pdfrwt beam="2">  1       -2 0.92062356E-02 0.13379414E+03</pdfrwt>
<totfact> 0.87348898E+03</totfact>
</mgrwt>
</event>
<event>
 6    1  0.7457796E-006  0.3209316E+03  0.7546771E-02  0.1075221E+00
         -1   -1    0    0    0  501 -0.00000000000E+00  0.00000000000E+00  0.14998048785E+03  0.14998048785E+03  0.00000000000E+00 0.  1.
          1   -1    0    0  501    0  0.00000000000E+00 -0.00000000000E+00 -0.17168414711E+03  0.17168414711E+03  0.00000000000E+00 0. -1.
          5    1    1    2  502    0 -0.91834580980E+02 -0.10024648382E+03  0.38775425667E+02  0.14145165753E+03  0.47000000000E+01 0. -1.
         -5    1    1    2    0  502  0.21061732920E+02  0.16044371525E+02 -0.75870912311E+01  0.27940515467E+02  0.47000000000E+01 0. -1.
        -11    1    1    2    0    0  0.26822518298E+02  0.51520675029E+02 -0.73564524296E+02  0.93731353763E+02  0.00000000000E+00 0. -1.
         11    1    1    2    0    0  0.43950329762E+02  0.32681437266E+02  0.20672530600E+02  0.58541108201E+02  0.00000000000E+00 0.  1.
<mgrwt>
<rscale>  0 0.32093159E+03</rscale>
<asrwt>0</asrwt>
<pdfrwt beam="2">  1        1 0.26412946E-01 0.32093159E+03</pdfrwt>
<pdfrwt beam="1">  1       -1 0.23073921E-01 0.32093159E+03</pdfrwt>
<totfact> 0.28405203E+03</totfact>
</mgrwt>
</event>
<event>
 6    1  0.7457796E-006  0.1962872E+03  0.7546771E-02  0.1157065E+00
         -1   -1    0    0    0  501 -0.00000000000E+00  0.00000000000E+00  0.20655566868E+03  0.20655566868E+03  0.00000000000E+00 0.  1.
          1   -1    0    0  501    0  0.00000000000E+00 -0.00000000000E+00 -0.19521294084E+03  0.19521294084E+03  0.00000000000E+00 0. -1.
          5    1    1    2  502    0  0.65091970175E+02 -0.13342498727E+02  0.62254401979E+01  0.66901666341E+02  0.47000000000E+01 0.  1.
         -5    1    1    2    0  502  0.45799890149E+02  0.11633030100E+03  0.72391303107E+02  0.14454397128E+03  0.47000000000E+01 0.  1.
        -11    1    1    2    0    0 -0.75454831323E+02 -0.11294681581E+03 -0.32458607762E+02  0.13965663604E+03  0.00000000000E+00 0.  1.
         11    1    1    2    0    0 -0.35437029000E+02  0.99590135333E+01 -0.34815407705E+02  0.50666335851E+02  0.00000000000E+00 0. -1.
<mgrwt>
<rscale>  0 0.19155625E+03</rscale>
<asrwt>0</asrwt>
<pdfrwt beam="2">  1        1 0.30032760E-01 0.19628720E+03</pdfrwt>
<pdfrwt beam="1">  1       -1 0.31777795E-01 0.19628720E+03</pdfrwt>
<totfact> 0.13897331E+03</totfact>
</mgrwt>
</event>
<event>
 6    1  0.7457796E-006  0.1863658E+03  0.7546771E-02  0.1188962E+00
         -2   -1    0    0    0  501 -0.00000000000E+00  0.00000000000E+00  0.26724578208E+02  0.26724578208E+02  0.00000000000E+00 0. -1.
          2   -1    0    0  501    0  0.00000000000E+00 -0.00000000000E+00 -0.78664211960E+03  0.78664211960E+03  0.00000000000E+00 0.  1.
          5    1    1    2  502    0  0.15839447274E+02 -0.71539418456E+02 -0.10457962729E+03  0.12778014293E+03  0.47000000000E+01 0. -1.
         -5    1    1    2    0  502 -0.64560239507E+02  0.77183368786E+02 -0.33113044772E+03  0.34611379682E+03  0.47000000000E+01 0.  1.
        -11    1    1    2    0    0  0.13420605871E+02 -0.39597673387E+02 -0.78591595292E+02  0.89020937145E+02  0.00000000000E+00 0.  1.
         11    1    1    2    0    0  0.35300186362E+02  0.33953723057E+02 -0.24561587110E+03  0.25045182092E+03  0.00000000000E+00 0. -1.
<mgrwt>
<rscale>  0 0.15976535E+03</rscale>
<asrwt>0</asrwt>
<pdfrwt beam="2">  1        2 0.12102186E+00 0.18636576E+03</pdfrwt>
<pdfrwt beam="1">  1       -2 0.41114738E-02 0.18636576E+03</pdfrwt>
<totfact> 0.93476990E+03</totfact>
</mgrwt>
</event>
<event>
 6    1  0.7457796E-006  0.1326407E+03  0.7546771E-02  0.1236307E+00
          1   -1    0    0  501    0  0.00000000000E+00  0.00000000000E+00  0.25930449449E+03  0.25930449449E+03  0.00000000000E+00 0. -1.
         -1   -1    0    0    0  501 -0.00000000000E+00 -0.00000000000E+00 -0.53467812997E+02  0.53467812997E+02  0.00000000000E+00 0.  1.
          5    1    1    2  502    0  0.29064595658E+01 -0.88110395348E+02  0.63621344684E+02  0.10881936765E+03  0.47000000000E+01 0.  1.
         -5    1    1    2    0  502 -0.19108045015E+00  0.43834148488E+02  0.39467555388E+02  0.59171336082E+02  0.47000000000E+01 0.  1.
        -11    1    1    2    0    0  0.13345860383E+02 -0.25552606918E+02  0.18816525881E+02  0.34425417295E+02  0.00000000000E+00 0.  1.
         11    1    1    2    0    0 -0.16061239499E+02  0.69828853779E+02  0.83931255539E+02  0.11035618646E+03  0.00000000000E+00 0. -1.
<mgrwt>
<rscale>  0 0.12421121E+03</rscale>
<asrwt>0</asrwt>
<pdfrwt beam="1">  1        1 0.39892998E-01 0.13264070E+03</pdfrwt>
<pdfrwt beam="2">  1       -1 0.82258176E-02 0.13264070E+03</pdfrwt>
<totfact> 0.82320873E+03</totfact>
</mgrwt>
</event>
<event>
 6    1  0.7457796E-006  0.2569562E+03  0.7546771E-02  0.1108986E+00
         -2   -1    0    0    0  501 -0.00000000000E+00  0.00000000000E+00  0.63747315214E+03  0.63747315214E+03  0.00000000000E+00 0.  1.
          2   -1    0    0  501    0  0.00000000000E+00 -0.00000000000E+00 -0.25893830623E+02  0.25893830623E+02  0.00000000000E+00 0. -1.
          5    1    1    2  502    0 -0.11383500302E+02 -0.64182471867E+02  0.85058845072E+02  0.10726635493E+03  0.47000000000E+01 0. -1.
         -5    1    1    2    0  502  0.22381875089E+02  0.43625350246E+01  0.32268298659E+03  0.32352183833E+03  0.47000000000E+01 0. -1.
        -11    1    1    2    0    0 -0.55790738002E+01  0.24412982766E+02 -0.57773135696E+00  0.25049023245E+02  0.00000000000E+00 0. -1.
         11    1    1    2    0    0 -0.54193009866E+01  0.35406954076E+02  0.20441522122E+03  0.20752976627E+03  0.00000000000E+00 0.  1.
<mgrwt>
<rscale>  0 0.25695620E+03</rscale>
<asrwt>0</asrwt>
<pdfrwt beam="2">  1        2 0.39836668E-02 0.25695620E+03</pdfrwt>
<pdfrwt beam="1">  1       -2 0.98072780E-01 0.25695620E+03</pdfrwt>
<totfact> 0.19048777E+03</totfact>
</mgrwt>
</event>
<event>
 6    1  0.7457796E-006  0.1361949E+03  0.7546771E-02  0.1231662E+00
          1   -1    0    0  501    0  0.00000000000E+00  0.00000000000E+00  0.29588864240E+03  0.29588864240E+03  0.00000000000E+00 0. -1.
         -1   -1    0    0    0  501 -0.00000000000E+00 -0.00000000000E+00 -0.50786508831E+02  0.50786508831E+02  0.00000000000E+00 0.  1.
          5    1    1    2  502    0  0.41172785614E+02 -0.56809090661E+02  0.98650093579E+02  0.12114620101E+03  0.47000000000E+01 0. -1.
         -5    1    1    2    0  502 -0.48996346505E+02  0.33046957763E+01  0.41803786681E+01  0.49508873455E+02  0.47000000000E+01 0. -1.
        -11    1    1    2    0    0  0.31150180469E+02 -0.66801159792E+01  0.19604427242E+02  0.37407101735E+02  0.00000000000E+00 0.  1.
         11    1    1    2    0    0 -0.23326619578E+02  0.60184510864E+02  0.12266723408E+03  0.13861297502E+03  0.00000000000E+00 0. -1.
<mgrwt>
<rscale>  0 0.12720537E+03</rscale>
<asrwt>0</asrwt>
<pdfrwt beam="1">  1        1 0.45521328E-01 0.13619489E+03</pdfrwt>
<pdfrwt beam="2">  1       -1 0.78133093E-02 0.13619489E+03</pdfrwt>
<totfact> 0.75715283E+03</totfact>
</mgrwt>
</event>
<event>
 6    1  0.7457796E-006  0.3065832E+03  0.7546771E-02  0.1081995E+00
         -2   -1    0    0    0  501 -0.00000000000E+00  0.00000000000E+00  0.11776455388E+03  0.11776455388E+03  0.00000000000E+00 0. -1.
          2   -1    0    0  501    0  0.00000000000E+00 -0.00000000000E+00 -0.19953643359E+03  0.19953643359E+03  0.00000000000E+00 0.  1.
          5    1    1    2  502    0 -0.85089121531E+01  0.30405649189E+02  0.25717664362E+02  0.40992601148E+02  0.47000000000E+01 0. -1.
         -5    1    1    2    0  502  0.10836397750E+03  0.12672509456E+02 -0.72831053825E+02  0.13126231949E+03  0.47000000000E+01 0. -1.
        -11    1    1    2    0    0 -0.70386925588E+02 -0.17099140483E+01 -0.55991384038E+02  0.89957090806E+02  0.00000000000E+00 0.  1.
         11    1    1    2    0    0 -0.29468139764E+02 -0.41368244596E+02  0.21332893790E+02  0.55088976026E+02  0.00000000000E+00 0. -1.
<mgrwt>
<rscale>  0 0.30658323E+03</rscale>
<asrwt>0</asrwt>
<pdfrwt beam="2">  1        2 0.30697913E-01 0.30658323E+03</pdfrwt>
<pdfrwt beam="1">  1       -2 0.18117624E-01 0.30658323E+03</pdfrwt>
<totfact> 0.42513527E+03</totfact>
</mgrwt>
</event>
<event>
 6    1  0.7457796E-006  0.1901097E+03  0.7546771E-02  0.1163697E+00
          2   -1    0    0  501    0  0.00000000000E+00  0.00000000000E+00  0.62948905420E+03  0.62948905420E+03  0.00000000000E+00 0. -1.
         -2   -1    0    0    0  501 -0.00000000000E+00 -0.00000000000E+00 -0.58002427272E+02  0.58002427272E+02  0.00000000000E+00 0.  1.
          5    1    1    2  502    0 -0.52415264444E+02  0.91458402256E+02  0.80065272731E+02  0.13245579333E+03  0.47000000000E+01 0.  1.
         -5    1    1    2    0  502 -0.76490711758E+02 -0.29013415080E+02  0.10125382729E+03  0.13025757092E+03  0.47000000000E+01 0.  1.
        -11    1    1    2    0    0  0.65924474006E+02 -0.73412350997E+02  0.18212910818E+03  0.20713865307E+03  0.00000000000E+00 0.  1.
         11    1    1    2    0    0  0.62981502196E+02  0.10967363821E+02  0.20803841872E+03  0.21763946414E+03  0.00000000000E+00 0. -1.
<mgrwt>
<rscale>  0 0.18430852E+03</rscale>
<asrwt>0</asrwt>
<pdfrwt beam="1">  1        2 0.96844465E-01 0.19010969E+03</pdfrwt>
<pdfrwt beam="2">  1       -2 0.89234508E-02 0.19010969E+03</pdfrwt>
<totfact> 0.37381225E+03</totfact>
</mgrwt>
</event>
<event>
 6    1  0.7457796E-006  0.1273023E+03  0.7546771E-02  0.1247223E+00
         -2   -1    0    0    0  501 -0.00000000000E+00  0.00000000000E+00  0.24030243924E+02  0.24030243924E+02  0.00000000000E+00 0.  1.
          2   -1    0    0  501    0  0.00000000000E+00 -0.00000000000E+00 -0.62033312901E+03  0.62033312901E+03  0.00000000000E+00 0. -1.
          5    1    1    2  502    0 -0.28814695513E+02  0.45472671616E+02 -0.90578167318E+02  0.10547295832E+03  0.47000000000E+01 0.  1.
         -5    1    1    2    0  502  0.52411273875E+02 -0.50683334692E+02 -0.10691039173E+03  0.12949001469E+03  0.47000000000E+01 0.  1.
        -11    1    1    2    0    0 -0.32611501572E+02  0.39668640670E+02 -0.29998603619E+03  0.30434968868E+03  0.00000000000E+00 0. -1.
         11    1    1    2    0    0  0.90149232103E+01 -0.34457977594E+02 -0.98828289838E+02  0.10505071124E+03  0.00000000000E+00 0.  1.
<mgrwt>
<rscale>  0 0.11753300E+03</rscale>
<asrwt>0</asrwt>
<pdfrwt beam="2">  1        2 0.95435866E-01 0.12730227E+03</pdfrwt>
<pdfrwt beam="1">  1       -2 0.36969606E-02 0.12730227E+03</pdfrwt>
<totfact> 0.14192577E+04</totfact>
</mgrwt>
</event>
<event>
 6    1  0.7457796E-006  0.1252880E+03  0.7546771E-02  0.1250624E+00
          2   -1    0    0  501    0  0.00000000000E+00  0.00000000000E+00  0.63548140647E+02  0.63548140647E+02  0.00000000000E+00 0. -1.
         -2   -1    0    0    0  501 -0.00000000000E+00 -0.00000000000E+00 -0.18530271128E+03  0.18530271128E+03  0.00000000000E+00 0.  1.
          5    1    1    2  502    0 -0.46711010316E+02  0.32305133352E+02 -0.67683032496E+02  0.88479506178E+02  0.47000000000E+01 0.  1.
         -5    1    1    2    0  502  0.53264606802E+02 -0.26864544779E+02 -0.15194939453E+02  0.61739762625E+02  0.47000000000E+01 0.  1.
        -11    1    1    2    0    0 -0.74773971785E+01  0.15652743932E+02  0.25522538238E+02  0.30859679506E+02  0.00000000000E+00 0. -1.
         11    1    1    2    0    0  0.92380069199E+00 -0.21093332504E+02 -0.64399136918E+02  0.67771903615E+02  0.00000000000E+00 0.  1.
<mgrwt>
<rscale>  0 0.11554996E+03</rscale>
<asrwt>0</asrwt>
<pdfrwt beam="1">  1        2 0.97766371E-02 0.12528795E+03</pdfrwt>
<pdfrwt beam="2">  1       -2 0.28508109E-01 0.12528795E+03</pdfrwt>
<totfact> 0.69469417E+03</totfact>
</mgrwt>
</event>
<event>
 6    1  0.7457796E-006  0.1604509E+03  0.7546771E-02  0.1195780E+00
          1   -1    0    0  501    0  0.00000000000E+00  0.00000000000E+00  0.35539563214E+02  0.35539563214E+02  0.00000000000E+00 0. -1.
         -1   -1    0    0    0  501 -0.00000000000E+00 -0.00000000000E+00 -0.65007670424E+03  0.65007670424E+03  0.00000000000E+00 0.  1.
          5    1    1    2  502    0 -0.47957021861E+02  0.17510166094E+02 -0.37314127950E+02  0.63410693161E+02  0.47000000000E+01 0. -1.
         -5    1    1    2    0  502 -0.52666271541E+02 -0.20132113014E+02 -0.37114067022E+03  0.37542845553E+03  0.47000000000E+01 0. -1.
        -11    1    1    2    0    0  0.46814793308E+02  0.64043403115E+01 -0.17104224360E+02  0.50251317776E+02  0.00000000000E+00 0. -1.
         11    1    1    2    0    0  0.53808500093E+02 -0.37823933919E+01 -0.18897811849E+03  0.19652580098E+03  0.00000000000E+00 0.  1.
<mgrwt>
<rscale>  0 0.15388429E+03</rscale>
<asrwt>0</asrwt>
<pdfrwt beam="1">  1        1 0.54676250E-02 0.16045085E+03</pdfrwt>
<pdfrwt beam="2">  1       -1 0.10001180E+00 0.16045085E+03</pdfrwt>
<totfact> 0.14559655E+03</totfact>
</mgrwt>
</event>
<event>
 6    1  0.7457796E-006  0.2970204E+03  0.7546771E-02  0.1087893E+00
          2   -1    0    0  501    0  0.00000000000E+00  0.00000000000E+00  0.95316573530E+03  0.95316573530E+03  0.00000000000E+00 0. -1.
         -2   -1    0    0    0  501 -0.00000000000E+00 -0.00000000000E+00 -0.11004582515E+03  0.11004582515E+03  0.00000000000E+00 0.  1.
          5    1    1    2  502    0 -0.19224252263E+03  0.20237510297E+03  0.18326841890E+03  0.33394950692E+03  0.47000000000E+01 0.  1.
         -5    1    1    2    0  502  0.16818358099E+02  0.21286989370E+01  0.15476768658E+02  0.23430938872E+02  0.47000000000E+01 0.  1.
        -11    1    1    2    0    0  0.51430317525E+02 -0.39274644243E+02  0.69481623277E+02  0.94948782058E+02  0.00000000000E+00 0.  1.
         11    1    1    2    0    0  0.12399384701E+03 -0.16522915766E+03  0.57489309932E+03  0.61088233260E+03  0.00000000000E+00 0. -1.
<mgrwt>
<rscale>  0 0.29475462E+03</rscale>
<asrwt>0</asrwt>
<pdfrwt beam="1">  1        2 0.14664088E+00 0.29702043E+03</pdfrwt>
<pdfrwt beam="2">  1       -2 0.16930128E-01 0.29702043E+03</pdfrwt>
<totfact> 0.78603197E+02</totfact>
</mgrwt>
</event>
<event>
 6    1  0.7457796E-006  0.1651295E+03  0.7546771E-02  0.1189877E+00
         -2   -1    0    0    0  501 -0.00000000000E+00  0.00000000000E+00  0.57121262726E+02  0.57121262726E+02  0.00000000000E+00 0.  1.
          2   -1    0    0  501    0  0.00000000000E+00 -0.00000000000E+00 -0.41823319136E+03  0.41823319136E+03  0.00000000000E+00 0. -1.
          5    1    1    2  502    0 -0.58553381264E+02  0.84157744951E+02 -0.16765839556E+03  0.19657683509E+03  0.47000000000E+01 0.  1.
         -5    1    1    2    0  502 -0.40856559105E+02 -0.42170075149E+02 -0.54653745191E+02  0.80353565716E+02  0.47000000000E+01 0.  1.
        -11    1    1    2    0    0  0.74250039426E+02 -0.69050307702E+02 -0.80793184108E+02  0.12964779962E+03  0.00000000000E+00 0. -1.
         11    1    1    2    0    0  0.25159900943E+02  0.27062637900E+02 -0.58006603777E+02  0.68776253659E+02  0.00000000000E+00 0.  1.
<mgrwt>
<rscale>  0 0.15895940E+03</rscale>
<asrwt>0</asrwt>
<pdfrwt beam="2">  1        2 0.64343569E-01 0.16512952E+03</pdfrwt>
<pdfrwt beam="1">  1       -2 0.87878864E-02 0.16512952E+03</pdfrwt>
<totfact> 0.60073410E+03</totfact>
</mgrwt>
</event>
<event>
 6    1  0.7457796E-006  0.1334497E+03  0.7546771E-02  0.1236893E+00
         -2   -1    0    0    0  501 -0.00000000000E+00  0.00000000000E+00  0.26364731284E+03  0.26364731284E+03  0.00000000000E+00 0.  1.
          2   -1    0    0  501    0  0.00000000000E+00 -0.00000000000E+00 -0.51462912811E+02  0.51462912811E+02  0.00000000000E+00 0. -1.
          5    1    1    2  502    0 -0.58644086351E+02 -0.20227352040E+02  0.87710102162E+02  0.10753337461E+03  0.47000000000E+01 0.  1.
         -5    1    1    2    0  502  0.31927920899E+02  0.58606483800E+02  0.44724384448E+02  0.80476534720E+02  0.47000000000E+01 0.  1.
        -11    1    1    2    0    0  0.14640617583E+02 -0.58849257016E+02  0.21759535299E+02  0.64428721165E+02  0.00000000000E+00 0. -1.
         11    1    1    2    0    0  0.12075547869E+02  0.20470125256E+02  0.57990378120E+02  0.62671595152E+02  0.00000000000E+00 0.  1.
<mgrwt>
<rscale>  0 0.12383995E+03</rscale>
<asrwt>0</asrwt>
<pdfrwt beam="2">  1        2 0.79173714E-02 0.13344974E+03</pdfrwt>
<pdfrwt beam="1">  1       -2 0.40561124E-01 0.13344974E+03</pdfrwt>
<totfact> 0.47472324E+03</totfact>
</mgrwt>
</event>
<event>
 6    1  0.7457796E-006  0.1254844E+03  0.7546771E-02  0.1250645E+00
         -1   -1    0    0    0  501 -0.00000000000E+00  0.00000000000E+00  0.19747928320E+03  0.19747928320E+03  0.00000000000E+00 0.  1.
          1   -1    0    0  501    0  0.00000000000E+00 -0.00000000000E+00 -0.71905811821E+02  0.71905811821E+02  0.00000000000E+00 0. -1.
          5    1    1    2  502    0  0.32957048038E+02 -0.30664183788E+02  0.11980256479E+03  0.12806718437E+03  0.47000000000E+01 0. -1.
         -5    1    1    2    0  502 -0.42970604995E+02  0.26033315311E+02  0.80894937652E+01  0.51105149536E+02  0.47000000000E+01 0. -1.
        -11    1    1    2    0    0  0.49384119016E+02 -0.42719047292E+01  0.20603069680E+01  0.49611341907E+02  0.00000000000E+00 0. -1.
         11    1    1    2    0    0 -0.39370562059E+02  0.89027732066E+01 -0.43788941427E+01  0.40601419206E+02  0.00000000000E+00 0.  1.
<mgrwt>
<rscale>  0 0.11553766E+03</rscale>
<asrwt>0</asrwt>
<pdfrwt beam="2">  1        1 0.11062433E-01 0.12548445E+03</pdfrwt>
<pdfrwt beam="1">  1       -1 0.30381428E-01 0.12548445E+03</pdfrwt>
<totfact> 0.53029185E+03</totfact>
</mgrwt>
</event>
<event>
 6    1  0.7457796E-006  0.2249480E+03  0.7546771E-02  0.1142823E+00
          1   -1    0    0  501    0  0.00000000000E+00  0.00000000000E+00  0.66990652811E+03  0.66990652811E+03  0.00000000000E+00 0. -1.
         -1   -1    0    0    0  501 -0.00000000000E+00 -0.00000000000E+00 -0.11708660306E+03  0.11708660306E+03  0.00000000000E+00 0.  1.
          5    1    1    2  502    0 -0.32396875262E+02  0.39278682737E+02  0.11708761672E+02  0.52455290907E+02  0.47000000000E+01 0. -1.
         -5    1    1    2    0  502 -0.51067778243E+01 -0.17288707617E+03  0.46947867636E+01  0.17309000927E+03  0.47000000000E+01 0.  1.
        -11    1    1    2    0    0 -0.23509024265E+02  0.51130190026E+02  0.27338362186E+03  0.27911570227E+03  0.00000000000E+00 0.  1.
         11    1    1    2    0    0  0.61012677351E+02  0.82478203408E+02  0.26303275476E+03  0.28233212873E+03  0.00000000000E+00 0. -1.
<mgrwt>
<rscale>  0 0.20842075E+03</rscale>
<asrwt>0</asrwt>
<pdfrwt beam="1">  1        1 0.10306254E+00 0.22494801E+03</pdfrwt>
<pdfrwt beam="2">  1       -1 0.18013324E-01 0.22494801E+03</pdfrwt>
<totfact> 0.72271882E+02</totfact>
</mgrwt>
</event>
<event>
 6    1  0.7457796E-006  0.1255223E+03  0.7546771E-02  0.1246509E+00
         -2   -1    0    0    0  501 -0.00000000000E+00  0.00000000000E+00  0.46102037826E+02  0.46102037826E+02  0.00000000000E+00 0. -1.
          2   -1    0    0  501    0  0.00000000000E+00 -0.00000000000E+00 -0.27352439842E+03  0.27352439842E+03  0.00000000000E+00 0.  1.
          5    1    1    2  502    0  0.50561281679E+02  0.22209841609E+02 -0.20575002602E+02  0.59119717535E+02  0.47000000000E+01 0.  1.
         -5    1    1    2    0  502 -0.58044290411E+02 -0.13343704948E+02 -0.90791271337E+02  0.10868458521E+03  0.47000000000E+01 0.  1.
        -11    1    1    2    0    0 -0.13750521890E+02  0.40112492892E+02 -0.36134763536E+02  0.55711848596E+02  0.00000000000E+00 0.  1.
         11    1    1    2    0    0  0.21233530621E+02 -0.48978629552E+02 -0.79921323117E+02  0.96110284903E+02  0.00000000000E+00 0. -1.
<mgrwt>
<rscale>  0 0.11795507E+03</rscale>
<asrwt>0</asrwt>
<pdfrwt beam="2">  1        2 0.42080677E-01 0.12552226E+03</pdfrwt>
<pdfrwt beam="1">  1       -2 0.70926212E-02 0.12552226E+03</pdfrwt>
<totfact> 0.12903372E+04</totfact>
</mgrwt>
</event>
<event>
 6    1  0.7457796E-006  0.4698477E+03  0.7546771E-02  0.1021963E+00
          1   -1    0    0  501    0  0.00000000000E+00  0.00000000000E+00  0.96440201524E+03  0.96440201524E+03  0.00000000000E+00 0. -1.
         -1   -1    0    0    0  501 -0.00000000000E+00 -0.00000000000E+00 -0.57226353298E+02  0.57226353298E+02  0.00000000000E+00 0.  1.
          5    1    1    2  502    0  0.58138895691E+02 -0.13244282613E+03  0.82409029948E+02  0.16653699770E+03  0.47000000000E+01 0.  1.
         -5    1    1    2    0  502 -0.27568962282E+02 -0.26367914979E+02  0.10107383212E+03  0.10813567478E+03  0.47000000000E+01 0.  1.
        -11    1    1    2    0    0 -0.35131583383E+02  0.45944386870E+02  0.12543031154E+03  0.13812269144E+03  0.00000000000E+00 0.  1.
         11    1    1    2    0    0  0.45616499740E+01  0.11286635424E+03  0.59826248833E+03  0.60883300462E+03  0.00000000000E+00 0. -1.
<mgrwt>
<rscale>  0 0.46984768E+03</rscale>
<asrwt>0</asrwt>
<pdfrwt beam="1">  1        1 0.14836953E+00 0.46984768E+03</pdfrwt>
<pdfrwt beam="2">  1       -1 0.88040551E-02 0.46984768E+03</pdfrwt>
<totfact> 0.12606799E+03</totfact>
</mgrwt>
</event>
<event>
 6    1  0.7457796E-006  0.1317302E+03  0.7546771E-02  0.1238561E+00
         -1   -1    0    0    0  501 -0.00000000000E+00  0.00000000000E+00  0.36876303585E+02  0.36876303585E+02  0.00000000000E+00 0.  1.
          1   -1    0    0  501    0  0.00000000000E+00 -0.00000000000E+00 -0.44962853651E+03  0.44962853651E+03  0.00000000000E+00 0. -1.
          5    1    1    2  502    0  0.61646616062E+02  0.57038615883E+02 -0.85585154594E+02  0.12000257356E+03  0.47000000000E+01 0. -1.
         -5    1    1    2    0  502 -0.35486394363E+02 -0.30783586580E+02 -0.37671717715E+02  0.60400014100E+02  0.47000000000E+01 0.  1.
        -11    1    1    2    0    0 -0.39041302413E+02  0.22078771406E+02 -0.18342462892E+03  0.18882873175E+03  0.00000000000E+00 0. -1.
         11    1    1    2    0    0  0.12881080713E+02 -0.48333800708E+02 -0.10607073170E+03  0.11727352069E+03  0.00000000000E+00 0.  1.
<mgrwt>
<rscale>  0 0.12279172E+03</rscale>
<asrwt>0</asrwt>
<pdfrwt beam="2">  1        1 0.69173618E-01 0.13173017E+03</pdfrwt>
<pdfrwt beam="1">  1       -1 0.56732777E-02 0.13173017E+03</pdfrwt>
<totfact> 0.72192011E+03</totfact>
</mgrwt>
</event>
<event>
 6    1  0.7457796E-006  0.1392262E+03  0.7546771E-02  0.1225630E+00
          1   -1    0    0  501    0  0.00000000000E+00  0.00000000000E+00  0.36149009134E+03  0.36149009134E+03  0.00000000000E+00 0. -1.
         -1   -1    0    0    0  501 -0.00000000000E+00 -0.00000000000E+00 -0.51438167878E+02  0.51438167878E+02  0.00000000000E+00 0.  1.
          5    1    1    2  502    0  0.13453987825E+02  0.19776583797E+02 -0.28583502387E+02  0.37566336843E+02  0.47000000000E+01 0. -1.
         -5    1    1    2    0  502  0.47852482088E+02 -0.19530336093E+02  0.11534057527E+03  0.12647858465E+03  0.47000000000E+01 0. -1.
        -11    1    1    2    0    0 -0.33535255239E+00 -0.33690444183E+02  0.37047337644E+02  0.50076578528E+02  0.00000000000E+00 0.  1.
         11    1    1    2    0    0 -0.60971117361E+02  0.33444196479E+02  0.18624751294E+03  0.19880675920E+03  0.00000000000E+00 0. -1.
<mgrwt>
<rscale>  0 0.13123801E+03</rscale>
<asrwt>0</asrwt>
<pdfrwt beam="1">  1        1 0.55613859E-01 0.13922624E+03</pdfrwt>
<pdfrwt beam="2">  1       -1 0.79135645E-02 0.13922624E+03</pdfrwt>
<totfact> 0.57982561E+03</totfact>
</mgrwt>
</event>
<event>
 6    1  0.7457796E-006  0.1290938E+03  0.7546771E-02  0.1243046E+00
         -1   -1    0    0    0  501 -0.00000000000E+00  0.00000000000E+00  0.68626449390E+02  0.68626449390E+02  0.00000000000E+00 0.  1.
          1   -1    0    0  501    0  0.00000000000E+00 -0.00000000000E+00 -0.18550059979E+03  0.18550059979E+03  0.00000000000E+00 0. -1.
          5    1    1    2  502    0  0.26620403939E+01  0.53802377922E+02  0.81294284727E+01  0.54680526117E+02  0.47000000000E+01 0. -1.
         -5    1    1    2    0  502  0.26793972410E+02 -0.40478333590E+02 -0.78314792385E+02  0.92258924522E+02  0.47000000000E+01 0. -1.
        -11    1    1    2    0    0 -0.40180863388E+02  0.29389113487E+02 -0.12210456510E+02  0.51257360665E+02  0.00000000000E+00 0.  1.
         11    1    1    2    0    0  0.10724850584E+02 -0.42713157818E+02 -0.34478329979E+02  0.55930237877E+02  0.00000000000E+00 0. -1.
<mgrwt>
<rscale>  0 0.12003115E+03</rscale>
<asrwt>0</asrwt>
<pdfrwt beam="2">  1        1 0.28538554E-01 0.12909383E+03</pdfrwt>
<pdfrwt beam="1">  1       -1 0.10557915E-01 0.12909383E+03</pdfrwt>
<totfact> 0.85139730E+03</totfact>
</mgrwt>
</event>
<event>
 6    1  0.7457796E-006  0.3234916E+03  0.7546771E-02  0.1074053E+00
         -1   -1    0    0    0  501 -0.00000000000E+00  0.00000000000E+00  0.13702765000E+03  0.13702765000E+03  0.00000000000E+00 0.  1.
          1   -1    0    0  501    0  0.00000000000E+00 -0.00000000000E+00 -0.19092285058E+03  0.19092285058E+03  0.00000000000E+00 0. -1.
          5    1    1    2  502    0 -0.97067694646E+01 -0.44670596183E+00  0.44433224446E+02  0.45725510979E+02  0.47000000000E+01 0. -1.
         -5    1    1    2    0  502  0.48448085396E+02 -0.10711364208E+03 -0.38465892553E+02  0.12378313370E+03  0.47000000000E+01 0. -1.
        -11    1    1    2    0    0 -0.42949900429E+02  0.74793373065E+02  0.42132478662E+01  0.86350993387E+02  0.00000000000E+00 0.  1.
         11    1    1    2    0    0  0.42085844975E+01  0.32766974979E+02 -0.64075780342E+02  0.72090862522E+02  0.00000000000E+00 0. -1.
<mgrwt>
<rscale>  0 0.32349164E+03</rscale>
<asrwt>0</asrwt>
<pdfrwt beam="2">  1        1 0.29372746E-01 0.32349164E+03</pdfrwt>
<pdfrwt beam="1">  1       -1 0.21081177E-01 0.32349164E+03</pdfrwt>
<totfact> 0.28803613E+03</totfact>
</mgrwt>
</event>
<event>
 6    1  0.7457796E-006  0.2121281E+03  0.7546771E-02  0.1139892E+00
          2   -1    0    0  501    0  0.00000000000E+00  0.00000000000E+00  0.23194427128E+03  0.23194427128E+03  0.00000000000E+00 0. -1.
         -2   -1    0    0    0  501 -0.00000000000E+00 -0.00000000000E+00 -0.48501242982E+02  0.48501242982E+02  0.00000000000E+00 0.  1.
          5    1    1    2  502    0 -0.19793567482E+01  0.23641893653E+02 -0.25313200413E+02  0.35010071462E+02  0.47000000000E+01 0.  1.
         -5    1    1    2    0  502 -0.15878358845E+00  0.39971723740E+00  0.12926346411E+03  0.12934959660E+03  0.47000000000E+01 0.  1.
        -11    1    1    2    0    0 -0.22267879713E+02 -0.37184219453E+02  0.76864083704E+02  0.88241781526E+02  0.00000000000E+00 0. -1.
         11    1    1    2    0    0  0.24406020050E+02  0.13142608563E+02  0.26286808972E+01  0.27844064677E+02  0.00000000000E+00 0.  1.
<mgrwt>
<rscale>  0 0.21212813E+03</rscale>
<asrwt>0</asrwt>
<pdfrwt beam="1">  1        2 0.35683734E-01 0.21212813E+03</pdfrwt>
<pdfrwt beam="2">  1       -2 0.74617298E-02 0.21212813E+03</pdfrwt>
<totfact> 0.14841461E+04</totfact>
</mgrwt>
</event>
<event>
 6    1  0.7457796E-006  0.2309968E+03  0.7546771E-02  0.1128033E+00
          2   -1    0    0  501    0  0.00000000000E+00  0.00000000000E+00  0.20136717709E+03  0.20136717709E+03  0.00000000000E+00 0. -1.
         -2   -1    0    0    0  501 -0.00000000000E+00 -0.00000000000E+00 -0.27397219793E+03  0.27397219793E+03  0.00000000000E+00 0.  1.
          5    1    1    2  502    0  0.17306214007E+02  0.39386909771E+02  0.29122818122E+02  0.52163802007E+02  0.47000000000E+01 0. -1.
         -5    1    1    2    0  502  0.18003738351E+03 -0.16161815627E+02  0.12947223320E+01  0.18082707223E+03  0.47000000000E+01 0.  1.
        -11    1    1    2    0    0 -0.19659736645E+03 -0.41571091814E+02 -0.92869843065E+02  0.22136731448E+03  0.00000000000E+00 0.  1.
         11    1    1    2    0    0 -0.74623107553E+00  0.18345997671E+02 -0.10152718226E+02  0.20981186304E+02  0.00000000000E+00 0. -1.
<mgrwt>
<rscale>  0 0.22803117E+03</rscale>
<asrwt>0</asrwt>
<pdfrwt beam="1">  1        2 0.30979566E-01 0.23099680E+03</pdfrwt>
<pdfrwt beam="2">  1       -2 0.42149569E-01 0.23099680E+03</pdfrwt>
<totfact> 0.91001959E+02</totfact>
</mgrwt>
</event>
<event>
 6    1  0.7457796E-006  0.1468747E+03  0.7546771E-02  0.1214025E+00
         -2   -1    0    0    0  501 -0.00000000000E+00  0.00000000000E+00  0.47151896512E+03  0.47151896512E+03  0.00000000000E+00 0.  1.
          2   -1    0    0  501    0  0.00000000000E+00 -0.00000000000E+00 -0.67571139806E+02  0.67571139806E+02  0.00000000000E+00 0. -1.
          5    1    1    2  502    0 -0.50521097311E+02  0.37340483485E+02  0.23217733837E+03  0.24057244114E+03  0.47000000000E+01 0. -1.
         -5    1    1    2    0  502  0.68745675035E+02  0.37597891956E+02  0.16031547356E+03  0.17850128957E+03  0.47000000000E+01 0. -1.
        -11    1    1    2    0    0 -0.30795657994E+02 -0.74189384451E+02  0.39322551187E+02  0.89435453531E+02  0.00000000000E+00 0.  1.
         11    1    1    2    0    0  0.12571080270E+02 -0.74899098973E+00 -0.27867537806E+02  0.30580920687E+02  0.00000000000E+00 0. -1.
<mgrwt>
<rscale>  0 0.13948375E+03</rscale>
<asrwt>0</asrwt>
<pdfrwt beam="2">  1        2 0.10395560E-01 0.14687472E+03</pdfrwt>
<pdfrwt beam="1">  1       -2 0.72541377E-01 0.14687472E+03</pdfrwt>
<totfact> 0.10551629E+03</totfact>
</mgrwt>
</event>
<event>
 6    1  0.7457796E-006  0.1341360E+03  0.7546771E-02  0.1232875E+00
         -1   -1    0    0    0  501 -0.00000000000E+00  0.00000000000E+00  0.44278837763E+02  0.44278837763E+02  0.00000000000E+00 0.  1.
          1   -1    0    0  501    0  0.00000000000E+00 -0.00000000000E+00 -0.44050077019E+03  0.44050077019E+03  0.00000000000E+00 0. -1.
          5    1    1    2  502    0 -0.24144270033E+02 -0.72257711829E+02 -0.10652203482E+03  0.13104639101E+03  0.47000000000E+01 0.  1.
         -5    1    1    2    0  502  0.73034230848E+01  0.26614348389E+02  0.14590292689E+02  0.31569449943E+02  0.47000000000E+01 0.  1.
        -11    1    1    2    0    0  0.51916430129E+02  0.37232501816E+02 -0.24092338447E+03  0.24925017973E+03  0.00000000000E+00 0.  1.
         11    1    1    2    0    0 -0.35075583181E+02  0.84108616228E+01 -0.63366805819E+02  0.72913587269E+02  0.00000000000E+00 0. -1.
<mgrwt>
<rscale>  0 0.12641441E+03</rscale>
<asrwt>0</asrwt>
<pdfrwt beam="2">  1        1 0.67769351E-01 0.13413600E+03</pdfrwt>
<pdfrwt beam="1">  1       -1 0.68121288E-02 0.13413600E+03</pdfrwt>
<totfact> 0.56478293E+03</totfact>
</mgrwt>
</event>
<event>
 6    1  0.7457796E-006  0.1327766E+03  0.7546771E-02  0.1236579E+00
          1   -1    0    0  501    0  0.00000000000E+00  0.00000000000E+00  0.11574285374E+03  0.11574285374E+03  0.00000000000E+00 0. -1.
         -1   -1    0    0    0  501 -0.00000000000E+00 -0.00000000000E+00 -0.13251778438E+03  0.13251778438E+03  0.00000000000E+00 0.  1.
          5    1    1    2  502    0 -0.72236985771E+01  0.81661008330E+02 -0.57032888656E+02  0.99977709971E+02  0.47000000000E+01 0.  1.
         -5    1    1    2    0  502  0.15950779253E+02 -0.37757155318E+02  0.71273865098E+01  0.41867884768E+02  0.47000000000E+01 0.  1.
        -11    1    1    2    0    0  0.15110481684E+02 -0.39473448776E+02 -0.20930964353E+02  0.47165507352E+02  0.00000000000E+00 0.  1.
         11    1    1    2    0    0 -0.23837562361E+02 -0.44304042354E+01  0.54061535855E+02  0.59249536032E+02  0.00000000000E+00 0. -1.
<mgrwt>
<rscale>  0 0.12403866E+03</rscale>
<asrwt>0</asrwt>
<pdfrwt beam="1">  1        1 0.17806593E-01 0.13277656E+03</pdfrwt>
<pdfrwt beam="2">  1       -1 0.20387352E-01 0.13277656E+03</pdfrwt>
<totfact> 0.55237057E+03</totfact>
</mgrwt>
</event>
<event>
 6    1  0.7457796E-006  0.1270508E+03  0.7546771E-02  0.1246853E+00
         -1   -1    0    0    0  501 -0.00000000000E+00  0.00000000000E+00  0.52092592912E+03  0.52092592912E+03  0.00000000000E+00 0.  1.
          1   -1    0    0  501    0  0.00000000000E+00 -0.00000000000E+00 -0.30064244840E+02  0.30064244840E+02  0.00000000000E+00 0. -1.
          5    1    1    2  502    0  0.25059858893E+02 -0.34130732730E+02  0.58310689773E+02  0.72215856889E+02  0.47000000000E+01 0.  1.
         -5    1    1    2    0  502 -0.46726735649E+02  0.41511251793E+02  0.34452910297E+03  0.35018418674E+03  0.47000000000E+01 0.  1.
        -11    1    1    2    0    0  0.40356037860E+02  0.14508402234E+02  0.90046367957E+02  0.99736913475E+02  0.00000000000E+00 0.  1.
         11    1    1    2    0    0 -0.18689161103E+02 -0.21888921298E+02 -0.20244764182E+01  0.28853216859E+02  0.00000000000E+00 0. -1.
<mgrwt>
<rscale>  0 0.11775153E+03</rscale>
<asrwt>0</asrwt>
<pdfrwt beam="2">  1        1 0.46252688E-02 0.12705077E+03</pdfrwt>
<pdfrwt beam="1">  1       -1 0.80142444E-01 0.12705077E+03</pdfrwt>
<totfact> 0.28973701E+03</totfact>
</mgrwt>
</event>
<event>
 6    1  0.7457796E-006  0.1665708E+03  0.7546771E-02  0.1188220E+00
          1   -1    0    0  501    0  0.00000000000E+00  0.00000000000E+00  0.24362012629E+03  0.24362012629E+03  0.00000000000E+00 0. -1.
         -1   -1    0    0    0  501 -0.00000000000E+00 -0.00000000000E+00 -0.11295654028E+03  0.11295654028E+03  0.00000000000E+00 0.  1.
          5    1    1    2  502    0  0.50652300686E+02 -0.32670921321E+02  0.10475725613E+02  0.61358581241E+02  0.47000000000E+01 0. -1.
         -5    1    1    2    0  502 -0.73669680932E+02 -0.74994718258E+02 -0.44037493591E+01  0.10532289715E+03  0.47000000000E+01 0. -1.
        -11    1    1    2    0    0  0.24542532840E+01  0.81793752367E+02  0.25922189784E+02  0.85838226966E+02  0.00000000000E+00 0.  1.
         11    1    1    2    0    0  0.20563126962E+02  0.25871887212E+02  0.98669419977E+02  0.10405696121E+03  0.00000000000E+00 0. -1.
<mgrwt>
<rscale>  0 0.16042301E+03</rscale>
<asrwt>0</asrwt>
<pdfrwt beam="1">  1        1 0.37480019E-01 0.16657084E+03</pdfrwt>
<pdfrwt beam="2">  1       -1 0.17377929E-01 0.16657084E+03</pdfrwt>
<totfact> 0.28302625E+03</totfact>
</mgrwt>
</event>
<event>
 6    1  0.7457796E-006  0.1512861E+03  0.7546771E-02  0.1207896E+00
         -1   -1    0    0    0  501 -0.00000000000E+00  0.00000000000E+00  0.19568289066E+03  0.19568289066E+03  0.00000000000E+00 0.  1.
          1   -1    0    0  501    0  0.00000000000E+00 -0.00000000000E+00 -0.11330359797E+03  0.11330359797E+03  0.00000000000E+00 0. -1.
          5    1    1    2  502    0  0.22073039622E+02 -0.38129015379E+02  0.12692557425E+02  0.46089390384E+02  0.47000000000E+01 0. -1.
         -5    1    1    2    0  502 -0.10275176377E+03  0.50971163228E+01  0.89879504070E+02  0.13669060248E+03  0.47000000000E+01 0.  1.
        -11    1    1    2    0    0  0.89530435668E+01  0.23366744313E+02  0.29297583513E+02  0.38529341138E+02  0.00000000000E+00 0.  1.
         11    1    1    2    0    0  0.71725680584E+02  0.96651547441E+01 -0.49490352315E+02  0.87677154628E+02  0.00000000000E+00 0. -1.
<mgrwt>
<rscale>  0 0.14411593E+03</rscale>
<asrwt>0</asrwt>
<pdfrwt beam="2">  1        1 0.17431323E-01 0.15128615E+03</pdfrwt>
<pdfrwt beam="1">  1       -1 0.30105060E-01 0.15128615E+03</pdfrwt>
<totfact> 0.30129762E+03</totfact>
</mgrwt>
</event>
<event>
 6    1  0.7457796E-006  0.1268706E+03  0.7546771E-02  0.1246920E+00
         -1   -1    0    0    0  501 -0.00000000000E+00  0.00000000000E+00  0.65266908781E+02  0.65266908781E+02  0.00000000000E+00 0.  1.
          1   -1    0    0  501    0  0.00000000000E+00 -0.00000000000E+00 -0.18844844714E+03  0.18844844714E+03  0.00000000000E+00 0. -1.
          5    1    1    2  502    0  0.43909551893E+02  0.17540394611E+02 -0.66915737504E+02  0.82070214550E+02  0.47000000000E+01 0. -1.
         -5    1    1    2    0  502 -0.42173596604E+02 -0.38729618338E+02  0.76531144265E+01  0.57959086842E+02  0.47000000000E+01 0. -1.
        -11    1    1    2    0    0 -0.19986806508E+02  0.44130731580E+02 -0.60588690195E+01  0.48823189142E+02  0.00000000000E+00 0.  1.
         11    1    1    2    0    0  0.18250851220E+02 -0.22941507854E+02 -0.57860046266E+02  0.64862865392E+02  0.00000000000E+00 0. -1.
<mgrwt>
<rscale>  0 0.11771192E+03</rscale>
<asrwt>0</asrwt>
<pdfrwt beam="2">  1        1 0.28992069E-01 0.12687059E+03</pdfrwt>
<pdfrwt beam="1">  1       -1 0.10041063E-01 0.12687059E+03</pdfrwt>
<totfact> 0.90012419E+03</totfact>
</mgrwt>
</event>
<event>
 6    1  0.7457796E-006  0.1278955E+03  0.7546771E-02  0.1249075E+00
          2   -1    0    0  501    0  0.00000000000E+00  0.00000000000E+00  0.12570632067E+03  0.12570632067E+03  0.00000000000E+00 0. -1.
         -2   -1    0    0    0  501 -0.00000000000E+00 -0.00000000000E+00 -0.96487272941E+02  0.96487272941E+02  0.00000000000E+00 0.  1.
          5    1    1    2  502    0  0.36004261999E+02 -0.67993325673E+01 -0.54745460160E+02  0.66043116322E+02  0.47000000000E+01 0. -1.
         -5    1    1    2    0  502 -0.30378686344E+02 -0.19668365235E+02  0.50045957207E+02  0.61938655198E+02  0.47000000000E+01 0. -1.
        -11    1    1    2    0    0  0.45450005866E+01  0.45012060034E+02 -0.92168017352E+01  0.46170250303E+02  0.00000000000E+00 0.  1.
         11    1    1    2    0    0 -0.10170576242E+02 -0.18544362231E+02  0.43135352416E+02  0.48041571786E+02  0.00000000000E+00 0. -1.
<mgrwt>
<rscale>  0 0.11644785E+03</rscale>
<asrwt>0</asrwt>
<pdfrwt beam="1">  1        2 0.19339434E-01 0.12789546E+03</pdfrwt>
<pdfrwt beam="2">  1       -2 0.14844196E-01 0.12789546E+03</pdfrwt>
<totfact> 0.94238244E+03</totfact>
</mgrwt>
</event>
<event>
 6    1  0.7457796E-006  0.1363653E+03  0.7546771E-02  0.1233203E+00
         -2   -1    0    0    0  501 -0.00000000000E+00  0.00000000000E+00  0.21188775153E+02  0.21188775153E+02  0.00000000000E+00 0.  1.
          2   -1    0    0  501    0  0.00000000000E+00 -0.00000000000E+00 -0.70546120489E+03  0.70546120489E+03  0.00000000000E+00 0. -1.
          5    1    1    2  502    0  0.35266474781E+00  0.18561736039E+02 -0.23136308577E+03  0.23215432340E+03  0.47000000000E+01 0. -1.
         -5    1    1    2    0  502  0.37924813323E+02 -0.57356234915E+02 -0.68076015845E+02  0.96873438478E+02  0.47000000000E+01 0. -1.
        -11    1    1    2    0    0  0.92749790419E+01 -0.16653749756E+02 -0.31511927976E+02  0.36828986165E+02  0.00000000000E+00 0.  1.
         11    1    1    2    0    0 -0.47552457113E+02  0.55448248633E+02 -0.35332140015E+03  0.36079323200E+03  0.00000000000E+00 0. -1.
<mgrwt>
<rscale>  0 0.12620148E+03</rscale>
<asrwt>0</asrwt>
<pdfrwt beam="2">  1        2 0.10853246E+00 0.13636529E+03</pdfrwt>
<pdfrwt beam="1">  1       -2 0.32598126E-02 0.13636529E+03</pdfrwt>
<totfact> 0.14785740E+04</totfact>
</mgrwt>
</event>
<event>
 6    1  0.7457796E-006  0.1277301E+03  0.7546771E-02  0.1240783E+00
         -1   -1    0    0    0  501 -0.00000000000E+00  0.00000000000E+00  0.25085614245E+03  0.25085614245E+03  0.00000000000E+00 0.  1.
          1   -1    0    0  501    0  0.00000000000E+00 -0.00000000000E+00 -0.56507898748E+02  0.56507898748E+02  0.00000000000E+00 0. -1.
          5    1    1    2  502    0 -0.68319947172E+01 -0.46008890252E+02  0.23054969052E+02  0.52125960250E+02  0.47000000000E+01 0. -1.
         -5    1    1    2    0  502 -0.43510471342E+02  0.57050221584E+02  0.11787803147E+03  0.13807682355E+03  0.47000000000E+01 0.  1.
        -11    1    1    2    0    0  0.38386431604E+01 -0.37265341287E+02 -0.52625889876E+01  0.37830354022E+02  0.00000000000E+00 0.  1.
         11    1    1    2    0    0  0.46503822899E+02  0.26224009955E+02  0.58677832171E+02  0.79330903377E+02  0.00000000000E+00 0. -1.
<mgrwt>
<rscale>  0 0.12141338E+03</rscale>
<asrwt>0</asrwt>
<pdfrwt beam="2">  1        1 0.86935231E-02 0.12773014E+03</pdfrwt>
<pdfrwt beam="1">  1       -1 0.38593252E-01 0.12773014E+03</pdfrwt>
<totfact> 0.48549279E+03</totfact>
</mgrwt>
</event>
<event>
 6    1  0.7457796E-006  0.2787723E+03  0.7546771E-02  0.1096361E+00
          1   -1    0    0  501    0  0.00000000000E+00  0.00000000000E+00  0.13668758787E+03  0.13668758787E+03  0.00000000000E+00 0. -1.
         -1   -1    0    0    0  501 -0.00000000000E+00 -0.00000000000E+00 -0.14213798890E+03  0.14213798890E+03  0.00000000000E+00 0.  1.
          5    1    1    2  502    0  0.42797672347E+01  0.39277784244E+02 -0.18754512475E+02  0.43987299086E+02  0.47000000000E+01 0. -1.
         -5    1    1    2    0  502  0.24017000993E+02 -0.95548168853E+02 -0.12449728416E+02  0.99415062468E+02  0.47000000000E+01 0. -1.
        -11    1    1    2    0    0  0.38410698855E+02  0.49485201185E+02  0.27347984884E+02  0.68352609314E+02  0.00000000000E+00 0. -1.
         11    1    1    2    0    0 -0.66707467083E+02  0.67851834246E+01 -0.15941450213E+01  0.67070605910E+02  0.00000000000E+00 0.  1.
<mgrwt>
<rscale>  0 0.27877230E+03</rscale>
<asrwt>0</asrwt>
<pdfrwt beam="1">  1        1 0.21028860E-01 0.27877230E+03</pdfrwt>
<pdfrwt beam="2">  1       -1 0.21867383E-01 0.27877230E+03</pdfrwt>
<totfact> 0.41413918E+03</totfact>
</mgrwt>
</event>
<event>
 6    1  0.7457796E-006  0.1591370E+03  0.7546771E-02  0.1197881E+00
          2   -1    0    0  501    0  0.00000000000E+00  0.00000000000E+00  0.54317545274E+02  0.54317545274E+02  0.00000000000E+00 0. -1.
         -2   -1    0    0    0  501 -0.00000000000E+00 -0.00000000000E+00 -0.45398776072E+03  0.45398776072E+03  0.00000000000E+00 0.  1.
          5    1    1    2  502    0  0.33310166751E+02  0.14863367417E+02 -0.24464617081E+03  0.24739508037E+03  0.47000000000E+01 0. -1.
         -5    1    1    2    0  502  0.59367827957E+02 -0.48210174850E+02 -0.63890019353E+02  0.99763643319E+02  0.47000000000E+01 0. -1.
        -11    1    1    2    0    0 -0.40540551209E+02 -0.10875575207E+02 -0.82071823289E+02  0.92182420268E+02  0.00000000000E+00 0.  1.
         11    1    1    2    0    0 -0.52137443499E+02  0.44222382640E+02 -0.90622019986E+01  0.68964162041E+02  0.00000000000E+00 0. -1.
<mgrwt>
<rscale>  0 0.15212863E+03</rscale>
<asrwt>0</asrwt>
<pdfrwt beam="1">  1        2 0.83565452E-02 0.15913704E+03</pdfrwt>
<pdfrwt beam="2">  1       -2 0.69844273E-01 0.15913704E+03</pdfrwt>
<totfact> 0.15050614E+03</totfact>
</mgrwt>
</event>
<event>
 6    1  0.7457796E-006  0.1853770E+03  0.7546771E-02  0.1168085E+00
          1   -1    0    0  501    0  0.00000000000E+00  0.00000000000E+00  0.10182267001E+04  0.10182267001E+04  0.00000000000E+00 0. -1.
         -1   -1    0    0    0  501 -0.00000000000E+00 -0.00000000000E+00 -0.31393741147E+02  0.31393741147E+02  0.00000000000E+00 0.  1.
          5    1    1    2  502    0  0.12298572435E+03 -0.29444702006E+01  0.39829503108E+03  0.41688749091E+03  0.47000000000E+01 0. -1.
         -5    1    1    2    0  502  0.11655132946E+02  0.27728633530E+02  0.10893378294E+02  0.32333804788E+02  0.47000000000E+01 0. -1.
        -11    1    1    2    0    0 -0.74585441916E+01 -0.35189631089E+02  0.11679479650E+03  0.12220869243E+03  0.00000000000E+00 0.  1.
         11    1    1    2    0    0 -0.12718231311E+03  0.10405467760E+02  0.46084975304E+03  0.47819045307E+03  0.00000000000E+00 0. -1.
<mgrwt>
<rscale>  0 0.17970933E+03</rscale>
<asrwt>0</asrwt>
<pdfrwt beam="1">  1        1 0.15665024E+00 0.18537696E+03</pdfrwt>
<pdfrwt beam="2">  1       -1 0.48298071E-02 0.18537696E+03</pdfrwt>
<totfact> 0.28523417E+03</totfact>
</mgrwt>
</event>
<event>
 6    1  0.7457796E-006  0.1389427E+03  0.7546771E-02  0.1226746E+00
          2   -1    0    0  501    0  0.00000000000E+00  0.00000000000E+00  0.56704764828E+03  0.56704764828E+03  0.00000000000E+00 0. -1.
         -2   -1    0    0    0  501 -0.00000000000E+00 -0.00000000000E+00 -0.27117407754E+02  0.27117407754E+02  0.00000000000E+00 0.  1.
          5    1    1    2  502    0 -0.44074695674E+02  0.52649598069E+02  0.69250101634E+02  0.97633117086E+02  0.47000000000E+01 0. -1.
         -5    1    1    2    0  502 -0.15184815517E+02 -0.40552690617E+02  0.20767582600E+03  0.21219434027E+03  0.47000000000E+01 0. -1.
        -11    1    1    2    0    0  0.75045931254E+02  0.73524243312E+01  0.23482103981E+03  0.24663104159E+03  0.00000000000E+00 0. -1.
         11    1    1    2    0    0 -0.15786420063E+02 -0.19449331784E+02  0.28183273080E+02  0.37706557079E+02  0.00000000000E+00 0.  1.
<mgrwt>
<rscale>  0 0.13047925E+03</rscale>
<asrwt>0</asrwt>
<pdfrwt beam="1">  1        2 0.87238091E-01 0.13894274E+03</pdfrwt>
<pdfrwt beam="2">  1       -2 0.41719093E-02 0.13894274E+03</pdfrwt>
<totfact> 0.13220074E+04</totfact>
</mgrwt>
</event>
<event>
 6    1  0.7457796E-006  0.1253738E+03  0.7546771E-02  0.1250122E+00
         -1   -1    0    0    0  501 -0.00000000000E+00  0.00000000000E+00  0.31496924075E+02  0.31496924075E+02  0.00000000000E+00 0.  1.
          1   -1    0    0  501    0  0.00000000000E+00 -0.00000000000E+00 -0.57412413562E+03  0.57412413562E+03  0.00000000000E+00 0. -1.
          5    1    1    2  502    0 -0.34943593961E+02 -0.65592747855E+01 -0.11303639257E+03  0.11858918538E+03  0.47000000000E+01 0. -1.
         -5    1    1    2    0  502  0.47558383418E+02  0.27512668851E+02 -0.80816566607E+01  0.55732844491E+02  0.47000000000E+01 0.  1.
        -11    1    1    2    0    0  0.24018959723E+02 -0.41700783111E+02 -0.25847201206E+03  0.26291376296E+03  0.00000000000E+00 0.  1.
         11    1    1    2    0    0 -0.36633749180E+02  0.20747389045E+02 -0.16303715026E+03  0.16838526686E+03  0.00000000000E+00 0. -1.
<mgrwt>
<rscale>  0 0.11584001E+03</rscale>
<asrwt>0</asrwt>
<pdfrwt beam="2">  1        1 0.88326799E-01 0.12537379E+03</pdfrwt>
<pdfrwt beam="1">  1       -1 0.48456802E-02 0.12537379E+03</pdfrwt>
<totfact> 0.66028057E+03</totfact>
</mgrwt>
</event>
<event>
 6    1  0.7457796E-006  0.1240821E+03  0.7546771E-02  0.1255410E+00
         -2   -1    0    0    0  501 -0.00000000000E+00  0.00000000000E+00  0.82808999229E+03  0.82808999229E+03  0.00000000000E+00 0.  1.
          2   -1    0    0  501    0  0.00000000000E+00 -0.00000000000E+00 -0.13340147689E+02  0.13340147689E+02  0.00000000000E+00 0. -1.
          5    1    1    2  502    0  0.57990910111E+02 -0.81314841022E+01  0.33507765458E+03  0.34018846437E+03  0.47000000000E+01 0. -1.
         -5    1    1    2    0  502 -0.60286660487E+02  0.33553930112E+01  0.19341479893E+03  0.20267489865E+03  0.47000000000E+01 0.  1.
        -11    1    1    2    0    0 -0.36157528139E+02 -0.16383284779E+02  0.16175183681E+03  0.16655160033E+03  0.00000000000E+00 0.  1.
         11    1    1    2    0    0  0.38453278515E+02  0.21159375870E+02  0.12450555427E+03  0.13201517663E+03  0.00000000000E+00 0. -1.
<mgrwt>
<rscale>  0 0.11283386E+03</rscale>
<asrwt>0</asrwt>
<pdfrwt beam="2">  1        2 0.20523311E-02 0.12408206E+03</pdfrwt>
<pdfrwt beam="1">  1       -2 0.12739842E+00 0.12408206E+03</pdfrwt>
<totfact> 0.24011153E+03</totfact>
</mgrwt>
</event>
<event>
 6    1  0.7457796E-006  0.2380971E+03  0.7546771E-02  0.1121067E+00
         -1   -1    0    0    0  501 -0.00000000000E+00  0.00000000000E+00  0.84435041696E+03  0.84435041696E+03  0.00000000000E+00 0.  1.
          1   -1    0    0  501    0  0.00000000000E+00 -0.00000000000E+00 -0.16785161688E+02  0.16785161688E+02  0.00000000000E+00 0. -1.
          5    1    1    2  502    0 -0.23802909113E+02  0.52714536201E+02  0.55923426467E+03  0.56223700838E+03  0.47000000000E+01 0.  1.
         -5    1    1    2    0  502  0.13633042957E+02 -0.14036972319E+02  0.11060669207E+02  0.22963554940E+02  0.47000000000E+01 0.  1.
        -11    1    1    2    0    0  0.42638474293E+02 -0.94959796907E+01  0.19533968505E+03  0.20016444658E+03  0.00000000000E+00 0.  1.
         11    1    1    2    0    0 -0.32468608138E+02 -0.29181584191E+02  0.61930636347E+02  0.75770568750E+02  0.00000000000E+00 0. -1.
<mgrwt>
<rscale>  0 0.23809711E+03</rscale>
<asrwt>0</asrwt>
<pdfrwt beam="2">  1        1 0.25823332E-02 0.23809711E+03</pdfrwt>
<pdfrwt beam="1">  1       -1 0.12990003E+00 0.23809711E+03</pdfrwt>
<totfact> 0.22835075E+03</totfact>
</mgrwt>
</event>
<event>
 6    1  0.7457796E-006  0.1673833E+03  0.7546771E-02  0.1187479E+00
          4   -1    0    0  501    0  0.00000000000E+00  0.00000000000E+00  0.21059670270E+03  0.21059670270E+03  0.00000000000E+00 0.  1.
         -4   -1    0    0    0  501 -0.00000000000E+00 -0.00000000000E+00 -0.12164558626E+03  0.12164558626E+03  0.00000000000E+00 0. -1.
          5    1    1    2  502    0 -0.26764034663E+02  0.19903801999E+02  0.51271756742E+02  0.61346213615E+02  0.47000000000E+01 0. -1.
         -5    1    1    2    0  502 -0.77831174687E+02 -0.58012552680E+02 -0.42927334340E+02  0.10624497191E+03  0.47000000000E+01 0. -1.
        -11    1    1    2    0    0  0.78849774485E+02  0.50551954977E+02  0.94331476960E+02  0.13293312091E+03  0.00000000000E+00 0.  1.
         11    1    1    2    0    0  0.25745434866E+02 -0.12443204296E+02 -0.13724782922E+02  0.31717982531E+02  0.00000000000E+00 0. -1.
<mgrwt>
<rscale>  0 0.16108333E+03</rscale>
<asrwt>0</asrwt>
<pdfrwt beam="1">  1        4 0.32399493E-01 0.16738332E+03</pdfrwt>
<pdfrwt beam="2">  1       -4 0.18714706E-01 0.16738332E+03</pdfrwt>
<totfact> 0.40295388E+02</totfact>
</mgrwt>
</event>
<event>
 6    1  0.7457796E-006  0.1343314E+03  0.7546771E-02  0.1234541E+00
         -2   -1    0    0    0  501 -0.00000000000E+00  0.00000000000E+00  0.11963586601E+03  0.11963586601E+03  0.00000000000E+00 0.  1.
          2   -1    0    0  501    0  0.00000000000E+00 -0.00000000000E+00 -0.11694708884E+03  0.11694708884E+03  0.00000000000E+00 0. -1.
          5    1    1    2  502    0 -0.16431628880E+02 -0.52879195994E+02  0.58090949779E+02  0.80391891648E+02  0.47000000000E+01 0.  1.
         -5    1    1    2    0  502  0.21095593777E+02  0.38964304449E+01 -0.49562305370E+02  0.54209947064E+02  0.47000000000E+01 0.  1.
        -11    1    1    2    0    0  0.53912563603E+01  0.73947234465E+02 -0.97620581980E+01  0.74783399966E+02  0.00000000000E+00 0. -1.
         11    1    1    2    0    0 -0.10055221258E+02 -0.24964468916E+02  0.39221909594E+01  0.27197716167E+02  0.00000000000E+00 0.  1.
<mgrwt>
<rscale>  0 0.12533856E+03</rscale>
<asrwt>0</asrwt>
<pdfrwt beam="2">  1        2 0.17991860E-01 0.13433137E+03</pdfrwt>
<pdfrwt beam="1">  1       -2 0.18405518E-01 0.13433137E+03</pdfrwt>
<totfact> 0.72019884E+03</totfact>
</mgrwt>
</event>
<event>
 6    1  0.7457796E-006  0.1307044E+03  0.7546771E-02  0.1240425E+00
          1   -1    0    0  501    0  0.00000000000E+00  0.00000000000E+00  0.59887938666E+03  0.59887938666E+03  0.00000000000E+00 0. -1.
         -1   -1    0    0    0  501 -0.00000000000E+00 -0.00000000000E+00 -0.23722688700E+02  0.23722688700E+02  0.00000000000E+00 0.  1.
          5    1    1    2  502    0 -0.50451233813E+02  0.49936274069E+02  0.12219267149E+03  0.14139341367E+03  0.47000000000E+01 0.  1.
         -5    1    1    2    0  502  0.57864649679E+02 -0.12306650664E+02  0.11634399839E+03  0.13060546426E+03  0.47000000000E+01 0.  1.
        -11    1    1    2    0    0 -0.53876677670E+01 -0.63501767214E+02  0.29296882619E+03  0.29982033707E+03  0.00000000000E+00 0. -1.
         11    1    1    2    0    0 -0.20257480992E+01  0.25872143808E+02  0.43651201897E+02  0.50782860373E+02  0.00000000000E+00 0.  1.
<mgrwt>
<rscale>  0 0.12163418E+03</rscale>
<asrwt>0</asrwt>
<pdfrwt beam="1">  1        1 0.92135279E-01 0.13070442E+03</pdfrwt>
<pdfrwt beam="2">  1       -1 0.36496449E-02 0.13070442E+03</pdfrwt>
<totfact> 0.94821655E+03</totfact>
</mgrwt>
</event>
<event>
 6    1  0.7457796E-006  0.1755154E+03  0.7546771E-02  0.1177987E+00
         -1   -1    0    0    0  501 -0.00000000000E+00  0.00000000000E+00  0.28154482797E+03  0.28154482797E+03  0.00000000000E+00 0.  1.
          1   -1    0    0  501    0  0.00000000000E+00 -0.00000000000E+00 -0.10975187598E+03  0.10975187598E+03  0.00000000000E+00 0. -1.
          5    1    1    2  502    0  0.66591726457E+02 -0.74646187083E+02  0.74850797048E+02  0.12502496989E+03  0.47000000000E+01 0. -1.
         -5    1    1    2    0  502 -0.55567749086E+02 -0.48063309736E+02  0.84065600277E+02  0.11174511905E+03  0.47000000000E+01 0. -1.
        -11    1    1    2    0    0  0.14132369686E+02 -0.21389522134E+01  0.22662605155E+02  0.26793519029E+02  0.00000000000E+00 0.  1.
         11    1    1    2    0    0 -0.25156347058E+02  0.12484844903E+03 -0.97860504944E+01  0.12773309598E+03  0.00000000000E+00 0. -1.
<mgrwt>
<rscale>  0 0.16986698E+03</rscale>
<asrwt>0</asrwt>
<pdfrwt beam="2">  1        1 0.16884904E-01 0.17551539E+03</pdfrwt>
<pdfrwt beam="1">  1       -1 0.43314589E-01 0.17551539E+03</pdfrwt>
<totfact> 0.16806914E+03</totfact>
</mgrwt>
</event>
<event>
 6    1  0.7457796E-006  0.1333721E+03  0.7546771E-02  0.1235590E+00
          1   -1    0    0  501    0  0.00000000000E+00  0.00000000000E+00  0.56251963247E+03  0.56251963247E+03  0.00000000000E+00 0. -1.
         -1   -1    0    0    0  501 -0.00000000000E+00 -0.00000000000E+00 -0.26102214919E+02  0.26102214919E+02  0.00000000000E+00 0.  1.
          5    1    1    2  502    0 -0.48857089846E+02  0.14529687849E+02  0.37733686811E+02  0.63592831181E+02  0.47000000000E+01 0.  1.
         -5    1    1    2    0  502  0.53491680494E+02  0.31752792645E+02  0.19396801842E+03  0.20375299235E+03  0.47000000000E+01 0.  1.
        -11    1    1    2    0    0 -0.35730428690E+02 -0.58332862965E+02  0.21002396493E+03  0.22088334541E+03  0.00000000000E+00 0. -1.
         11    1    1    2    0    0  0.31095838042E+02  0.12050382472E+02  0.94691747400E+02  0.10039267845E+03  0.00000000000E+00 0.  1.
<mgrwt>
<rscale>  0 0.12466752E+03</rscale>
<asrwt>0</asrwt>
<pdfrwt beam="1">  1        1 0.86541473E-01 0.13337207E+03</pdfrwt>
<pdfrwt beam="2">  1       -1 0.40157258E-02 0.13337207E+03</pdfrwt>
<totfact> 0.89812439E+03</totfact>
</mgrwt>
</event>
<event>
 6    1  0.7457796E-006  0.1264393E+03  0.7546771E-02  0.1248854E+00
         -2   -1    0    0    0  501 -0.00000000000E+00  0.00000000000E+00  0.22143647217E+02  0.22143647217E+02  0.00000000000E+00 0.  1.
          2   -1    0    0  501    0  0.00000000000E+00 -0.00000000000E+00 -0.55281806819E+03  0.55281806819E+03  0.00000000000E+00 0. -1.
          5    1    1    2  502    0 -0.15521574389E+02 -0.56791802402E+02 -0.10939435032E+03  0.12431991785E+03  0.47000000000E+01 0. -1.
         -5    1    1    2    0  502 -0.59577701334E+00  0.66841786700E+02 -0.14724339242E+03  0.16177418215E+03  0.47000000000E+01 0. -1.
        -11    1    1    2    0    0  0.43973470659E+02  0.14443165614E+02 -0.20837183970E+03  0.21345045031E+03  0.00000000000E+00 0. -1.
         11    1    1    2    0    0 -0.27856119257E+02 -0.24493149912E+02 -0.65664838528E+02  0.75417165099E+02  0.00000000000E+00 0.  1.
<mgrwt>
<rscale>  0 0.11657677E+03</rscale>
<asrwt>0</asrwt>
<pdfrwt beam="2">  1        2 0.85048927E-01 0.12643933E+03</pdfrwt>
<pdfrwt beam="1">  1       -2 0.34067152E-02 0.12643933E+03</pdfrwt>
<totfact> 0.18227284E+04</totfact>
</mgrwt>
</event>
<event>
 6    1  0.7457796E-006  0.1608180E+03  0.7546771E-02  0.1197819E+00
          2   -1    0    0  501    0  0.00000000000E+00  0.00000000000E+00  0.98356193075E+03  0.98356193075E+03  0.00000000000E+00 0. -1.
         -2   -1    0    0    0  501 -0.00000000000E+00 -0.00000000000E+00 -0.21373450676E+02  0.21373450676E+02  0.00000000000E+00 0.  1.
          5    1    1    2  502    0  0.25595272094E+02 -0.15481031044E+02  0.10525635404E+03  0.10952520414E+03  0.47000000000E+01 0. -1.
         -5    1    1    2    0  502 -0.97557345920E+02  0.86603192973E+02  0.44758365623E+03  0.46623038093E+03  0.47000000000E+01 0. -1.
        -11    1    1    2    0    0 -0.20363651975E+01 -0.39776492827E+02  0.21851701333E+03  0.22211708912E+03  0.00000000000E+00 0.  1.
         11    1    1    2    0    0  0.73998439024E+02 -0.31345669101E+02  0.19083145647E+03  0.20706270724E+03  0.00000000000E+00 0. -1.
<mgrwt>
<rscale>  0 0.15218071E+03</rscale>
<asrwt>0</asrwt>
<pdfrwt beam="1">  1        2 0.15131719E+00 0.16081796E+03</pdfrwt>
<pdfrwt beam="2">  1       -2 0.32882239E-02 0.16081796E+03</pdfrwt>
<totfact> 0.96603752E+03</totfact>
</mgrwt>
</event>
<event>
 6    1  0.7457796E-006  0.1479130E+03  0.7546771E-02  0.1213000E+00
         -3   -1    0    0    0  501 -0.00000000000E+00  0.00000000000E+00  0.26771129959E+03  0.26771129959E+03  0.00000000000E+00 0.  1.
          3   -1    0    0  501    0  0.00000000000E+00 -0.00000000000E+00 -0.67835232255E+02  0.67835232255E+02  0.00000000000E+00 0. -1.
          5    1    1    2  502    0  0.43641097716E+02 -0.99847749825E+01 -0.79004331405E+01  0.45702822507E+02  0.47000000000E+01 0.  1.
         -5    1    1    2    0  502  0.19003862711E+02  0.58248222360E+02  0.13887869806E+03  0.15186633920E+03  0.47000000000E+01 0.  1.
        -11    1    1    2    0    0 -0.37995915414E+02 -0.10817909919E+02 -0.15479360651E+02  0.42430264781E+02  0.00000000000E+00 0. -1.
         11    1    1    2    0    0 -0.24649045012E+02 -0.37445537458E+02  0.84377163065E+02  0.95547105359E+02  0.00000000000E+00 0.  1.
<mgrwt>
<rscale>  0 0.14024491E+03</rscale>
<asrwt>0</asrwt>
<pdfrwt beam="2">  1        3 0.10436190E-01 0.14791304E+03</pdfrwt>
<pdfrwt beam="1">  1       -3 0.41186353E-01 0.14791304E+03</pdfrwt>
<totfact> 0.94239413E+02</totfact>
</mgrwt>
</event>
<event>
 6    1  0.7457796E-006  0.1295944E+03  0.7546771E-02  0.1240396E+00
          3   -1    0    0  501    0  0.00000000000E+00  0.00000000000E+00  0.78447052215E+02  0.78447052215E+02  0.00000000000E+00 0. -1.
         -3   -1    0    0    0  501 -0.00000000000E+00 -0.00000000000E+00 -0.19686845333E+03  0.19686845333E+03  0.00000000000E+00 0.  1.
          5    1    1    2  502    0 -0.60668813686E+02  0.44280332198E+02 -0.10519283858E+03  0.12934092957E+03  0.47000000000E+01 0. -1.
         -5    1    1    2    0  502  0.28416665814E+02 -0.32917695830E+02 -0.11930859088E+02  0.45337809754E+02  0.47000000000E+01 0. -1.
        -11    1    1    2    0    0  0.24157755839E+02  0.23270718731E+02 -0.37207197182E+02  0.50094900335E+02  0.00000000000E+00 0.  1.
         11    1    1    2    0    0  0.80943920329E+01 -0.34633355100E+02  0.35909493729E+02  0.50541865891E+02  0.00000000000E+00 0. -1.
<mgrwt>
<rscale>  0 0.12165214E+03</rscale>
<asrwt>0</asrwt>
<pdfrwt beam="1">  1        3 0.12068777E-01 0.12959437E+03</pdfrwt>
<pdfrwt beam="2">  1       -3 0.30287454E-01 0.12959437E+03</pdfrwt>
<totfact> 0.12957453E+03</totfact>
</mgrwt>
</event>
<event>
 6    1  0.7457796E-006  0.1932529E+03  0.7546771E-02  0.1160313E+00
          2   -1    0    0  501    0  0.00000000000E+00  0.00000000000E+00  0.12993034201E+03  0.12993034201E+03  0.00000000000E+00 0. -1.
         -2   -1    0    0    0  501 -0.00000000000E+00 -0.00000000000E+00 -0.26533004632E+03  0.26533004632E+03  0.00000000000E+00 0.  1.
          5    1    1    2  502    0  0.93905057659E+00  0.99006788486E+02 -0.53085267553E+02  0.11244270369E+03  0.47000000000E+01 0. -1.
         -5    1    1    2    0  502  0.92859421782E+02  0.14675698266E+02 -0.51031332551E+02  0.10707256995E+03  0.47000000000E+01 0. -1.
        -11    1    1    2    0    0 -0.77115718642E+02 -0.12470454263E+03 -0.10642674185E+02  0.14700790295E+03  0.00000000000E+00 0. -1.
         11    1    1    2    0    0 -0.16682753717E+02  0.11022055879E+02 -0.20640430019E+02  0.28737211743E+02  0.00000000000E+00 0.  1.
<mgrwt>
<rscale>  0 0.18796087E+03</rscale>
<asrwt>0</asrwt>
<pdfrwt beam="1">  1        2 0.19989284E-01 0.19325291E+03</pdfrwt>
<pdfrwt beam="2">  1       -2 0.40820007E-01 0.19325291E+03</pdfrwt>
<totfact> 0.15728189E+03</totfact>
</mgrwt>
</event>
<event>
 6    1  0.7457796E-006  0.1383858E+03  0.7546771E-02  0.1228331E+00
          2   -1    0    0  501    0  0.00000000000E+00  0.00000000000E+00  0.33187510787E+03  0.33187510787E+03  0.00000000000E+00 0.  1.
         -2   -1    0    0    0  501 -0.00000000000E+00 -0.00000000000E+00 -0.44943647810E+02  0.44943647810E+02  0.00000000000E+00 0. -1.
          5    1    1    2  502    0  0.10488470907E+02 -0.21942796573E+02 -0.11615387243E+02  0.27358756627E+02  0.47000000000E+01 0.  1.
         -5    1    1    2    0  502  0.38675544746E+02  0.54855502174E+02  0.17076571437E+03  0.18354275547E+03  0.47000000000E+01 0.  1.
        -11    1    1    2    0    0 -0.47476948664E+01  0.27475472007E+02  0.53794947618E+02  0.60591571673E+02  0.00000000000E+00 0.  1.
         11    1    1    2    0    0 -0.44416320786E+02 -0.60388177608E+02  0.73986185320E+02  0.10532567192E+03  0.00000000000E+00 0. -1.
<mgrwt>
<rscale>  0 0.12941163E+03</rscale>
<asrwt>0</asrwt>
<pdfrwt beam="1">  1        2 0.51057707E-01 0.13838577E+03</pdfrwt>
<pdfrwt beam="2">  1       -2 0.69144076E-02 0.13838577E+03</pdfrwt>
<totfact> 0.11017417E+04</totfact>
</mgrwt>
</event>
<event>
 6    1  0.7457796E-006  0.1327702E+03  0.7546771E-02  0.1236085E+00
         -2   -1    0    0    0  501 -0.00000000000E+00  0.00000000000E+00  0.44460373575E+02  0.44460373575E+02  0.00000000000E+00 0.  1.
          2   -1    0    0  501    0  0.00000000000E+00 -0.00000000000E+00 -0.34211477164E+03  0.34211477164E+03  0.00000000000E+00 0. -1.
          5    1    1    2  502    0 -0.16878931670E+02  0.21701646261E+02 -0.13467170430E+03  0.13752969761E+03  0.47000000000E+01 0. -1.
         -5    1    1    2    0  502  0.34278762701E+00  0.19885341339E+02  0.26684587930E+02  0.33611032958E+02  0.47000000000E+01 0. -1.
        -11    1    1    2    0    0  0.27532386832E+01  0.15359396258E+02  0.13220186763E+01  0.15660112070E+02  0.00000000000E+00 0.  1.
         11    1    1    2    0    0  0.13782905359E+02 -0.56946383858E+02 -0.19098930037E+03  0.19977430258E+03  0.00000000000E+00 0. -1.
<mgrwt>
<rscale>  0 0.12435243E+03</rscale>
<asrwt>0</asrwt>
<pdfrwt beam="2">  1        2 0.52633039E-01 0.13277022E+03</pdfrwt>
<pdfrwt beam="1">  1       -2 0.68400579E-02 0.13277022E+03</pdfrwt>
<totfact> 0.10812294E+04</totfact>
</mgrwt>
</event>
<event>
 6    1  0.7457796E-006  0.1274779E+03  0.7546771E-02  0.1250524E+00
         -2   -1    0    0    0  501 -0.00000000000E+00  0.00000000000E+00  0.12481069804E+03  0.12481069804E+03  0.00000000000E+00 0.  1.
          2   -1    0    0  501    0  0.00000000000E+00 -0.00000000000E+00 -0.10681421685E+03  0.10681421685E+03  0.00000000000E+00 0. -1.
          5    1    1    2  502    0  0.25352829509E+02 -0.10624337098E+02 -0.29436250632E+02  0.40549048745E+02  0.47000000000E+01 0.  1.
         -5    1    1    2    0  502 -0.50274668759E+02  0.10130150977E+02  0.83098664961E+02  0.97763185279E+02  0.47000000000E+01 0.  1.
        -11    1    1    2    0    0  0.42830171798E+02 -0.25322652894E+01  0.10097303006E+02  0.44077108704E+02  0.00000000000E+00 0.  1.
         11    1    1    2    0    0 -0.17908332548E+02  0.30264514108E+01 -0.45763236145E+02  0.49235572154E+02  0.00000000000E+00 0. -1.
<mgrwt>
<rscale>  0 0.11560797E+03</rscale>
<asrwt>0</asrwt>
<pdfrwt beam="2">  1        2 0.16432956E-01 0.12747792E+03</pdfrwt>
<pdfrwt beam="1">  1       -2 0.19201646E-01 0.12747792E+03</pdfrwt>
<totfact> 0.74160106E+03</totfact>
</mgrwt>
</event>
<event>
 6    1  0.7457796E-006  0.1265266E+03  0.7546771E-02  0.1247868E+00
          2   -1    0    0  501    0  0.00000000000E+00  0.00000000000E+00  0.33953013531E+03  0.33953013531E+03  0.00000000000E+00 0. -1.
         -2   -1    0    0    0  501 -0.00000000000E+00 -0.00000000000E+00 -0.40178168855E+02  0.40178168855E+02  0.00000000000E+00 0.  1.
          5    1    1    2  502    0 -0.12726461848E+02 -0.60878454713E+02  0.34747562898E+02  0.71397704493E+02  0.47000000000E+01 0.  1.
         -5    1    1    2    0  502  0.30439012238E+02  0.52489054978E+02  0.70894773902E+02  0.93433363019E+02  0.47000000000E+01 0.  1.
        -11    1    1    2    0    0 -0.22828491547E+02 -0.28972878465E+02  0.32010477836E+02  0.48838902569E+02  0.00000000000E+00 0.  1.
         11    1    1    2    0    0  0.51159411576E+01  0.37362278200E+02  0.16169915182E+03  0.16603833409E+03  0.00000000000E+00 0. -1.
<mgrwt>
<rscale>  0 0.11715366E+03</rscale>
<asrwt>0</asrwt>
<pdfrwt beam="1">  1        2 0.52235403E-01 0.12652659E+03</pdfrwt>
<pdfrwt beam="2">  1       -2 0.61812570E-02 0.12652659E+03</pdfrwt>
<totfact> 0.12666976E+04</totfact>
</mgrwt>
</event>
<event>
 6    1  0.7457796E-006  0.1287572E+03  0.7546771E-02  0.1243175E+00
          2   -1    0    0  501    0  0.00000000000E+00  0.00000000000E+00  0.42789903602E+03  0.42789903602E+03  0.00000000000E+00 0. -1.
         -2   -1    0    0    0  501 -0.00000000000E+00 -0.00000000000E+00 -0.29793188140E+02  0.29793188140E+02  0.00000000000E+00 0.  1.
          5    1    1    2  502    0 -0.18717348776E+02 -0.13763984119E+02 -0.45652728061E+01  0.24139555088E+02  0.47000000000E+01 0.  1.
         -5    1    1    2    0  502  0.31087572161E+02  0.42038330067E+02  0.22592410342E+03  0.23194277063E+03  0.47000000000E+01 0.  1.
        -11    1    1    2    0    0  0.34355415642E+02  0.10824089879E+02  0.68616108758E+02  0.77495973358E+02  0.00000000000E+00 0.  1.
         11    1    1    2    0    0 -0.46725639027E+02 -0.39098435827E+02  0.10813090850E+03  0.12411392508E+03  0.00000000000E+00 0. -1.
<mgrwt>
<rscale>  0 0.11995280E+03</rscale>
<asrwt>0</asrwt>
<pdfrwt beam="1">  1        2 0.65830617E-01 0.12875724E+03</pdfrwt>
<pdfrwt beam="2">  1       -2 0.45835677E-02 0.12875724E+03</pdfrwt>
<totfact> 0.15549950E+04</totfact>
</mgrwt>
</event>
<event>
 6    1  0.7457796E-006  0.2297399E+03  0.7546771E-02  0.1130348E+00
         -2   -1    0    0    0  501 -0.00000000000E+00  0.00000000000E+00  0.79014754379E+02  0.79014754379E+02  0.00000000000E+00 0. -1.
          2   -1    0    0  501    0  0.00000000000E+00 -0.00000000000E+00 -0.70810650492E+03  0.70810650492E+03  0.00000000000E+00 0.  1.
          5    1    1    2  502    0 -0.49043823130E+02 -0.29581704706E+02 -0.94040123289E+02  0.11020893171E+03  0.47000000000E+01 0. -1.
         -5    1    1    2    0  502  0.13319240134E+02 -0.15983386199E+03 -0.88667641589E+02  0.18332568359E+03  0.47000000000E+01 0. -1.
        -11    1    1    2    0    0 -0.26548387835E+02  0.84119162410E+02 -0.17962105455E+03  0.20011140302E+03  0.00000000000E+00 0. -1.
         11    1    1    2    0    0  0.62272970831E+02  0.10529640429E+03 -0.26676293111E+03  0.29347524098E+03  0.00000000000E+00 0.  1.
<mgrwt>
<rscale>  0 0.22480837E+03</rscale>
<asrwt>0</asrwt>
<pdfrwt beam="2">  1        2 0.10893946E+00 0.22973995E+03</pdfrwt>
<pdfrwt beam="1">  1       -2 0.12156116E-01 0.22973995E+03</pdfrwt>
<totfact> 0.19948455E+03</totfact>
</mgrwt>
</event>
<event>
 6    1  0.7457796E-006  0.1136496E+03  0.7546771E-02  0.1263318E+00
         -1   -1    0    0    0  501 -0.00000000000E+00  0.00000000000E+00  0.74515304630E+03  0.74515304630E+03  0.00000000000E+00 0.  1.
          1   -1    0    0  501    0  0.00000000000E+00 -0.00000000000E+00 -0.17485546571E+02  0.17485546571E+02  0.00000000000E+00 0. -1.
          5    1    1    2  502    0 -0.40572997711E+02  0.80738482906E+01  0.11500930480E+03  0.12231347171E+03  0.47000000000E+01 0. -1.
         -5    1    1    2    0  502  0.58378671358E+02 -0.19098332436E+02  0.43265925181E+03  0.43702280690E+03  0.47000000000E+01 0.  1.
        -11    1    1    2    0    0  0.29505750283E+02 -0.20854404688E+02  0.53792450114E+02  0.64800641848E+02  0.00000000000E+00 0.  1.
         11    1    1    2    0    0 -0.47311423929E+02  0.31878888834E+02  0.12620649300E+03  0.13850167242E+03  0.00000000000E+00 0. -1.
<mgrwt>
<rscale>  0 0.10852898E+03</rscale>
<asrwt>0</asrwt>
<pdfrwt beam="2">  1        1 0.26900847E-02 0.11364957E+03</pdfrwt>
<pdfrwt beam="1">  1       -1 0.11463891E+00 0.11364957E+03</pdfrwt>
<totfact> 0.27947191E+03</totfact>
</mgrwt>
</event>
<event>
 6    1  0.7457796E-006  0.1260244E+03  0.7546771E-02  0.1249789E+00
         -2   -1    0    0    0  501 -0.00000000000E+00  0.00000000000E+00  0.56954503319E+02  0.56954503319E+02  0.00000000000E+00 0.  1.
          2   -1    0    0  501    0  0.00000000000E+00 -0.00000000000E+00 -0.20688265630E+03  0.20688265630E+03  0.00000000000E+00 0. -1.
          5    1    1    2  502    0 -0.33694531231E+02  0.42677106431E+02 -0.58893554719E+02  0.80294443368E+02  0.47000000000E+01 0.  1.
         -5    1    1    2    0  502  0.48918586114E+02 -0.48103860029E+02 -0.37192609526E+02  0.78181772943E+02  0.47000000000E+01 0.  1.
        -11    1    1    2    0    0  0.26656583685E+02  0.31122856211E+02 -0.29739628169E+02  0.50632510466E+02  0.00000000000E+00 0.  1.
         11    1    1    2    0    0 -0.41880638569E+02 -0.25696102613E+02 -0.24102360564E+02  0.54728432841E+02  0.00000000000E+00 0. -1.
<mgrwt>
<rscale>  0 0.11603282E+03</rscale>
<asrwt>0</asrwt>
<pdfrwt beam="2">  1        2 0.31828101E-01 0.12602444E+03</pdfrwt>
<pdfrwt beam="1">  1       -2 0.87622312E-02 0.12602444E+03</pdfrwt>
<totfact> 0.12553086E+04</totfact>
</mgrwt>
</event>
<event>
 6    1  0.7457796E-006  0.3907099E+03  0.7546771E-02  0.1047045E+00
         -1   -1    0    0    0  501 -0.00000000000E+00  0.00000000000E+00  0.50059330394E+02  0.50059330394E+02  0.00000000000E+00 0.  1.
          1   -1    0    0  501    0  0.00000000000E+00 -0.00000000000E+00 -0.76236655279E+03  0.76236655279E+03  0.00000000000E+00 0. -1.
          5    1    1    2  502    0  0.15386055782E+02  0.20726463884E+02 -0.22547976281E+03  0.22700116840E+03  0.47000000000E+01 0. -1.
         -5    1    1    2    0  502  0.95987702763E+02 -0.10274166689E+03 -0.32337408738E+03  0.35265050629E+03  0.47000000000E+01 0. -1.
        -11    1    1    2    0    0 -0.93460980548E+02  0.12954934149E+02 -0.90839502161E+02  0.13097557160E+03  0.00000000000E+00 0.  1.
         11    1    1    2    0    0 -0.17912777997E+02  0.69060268858E+02 -0.72613870043E+02  0.10179863689E+03  0.00000000000E+00 0. -1.
<mgrwt>
<rscale>  0 0.39070991E+03</rscale>
<asrwt>0</asrwt>
<pdfrwt beam="2">  1        1 0.11728716E+00 0.39070991E+03</pdfrwt>
<pdfrwt beam="1">  1       -1 0.77014355E-02 0.39070991E+03</pdfrwt>
<totfact> 0.22716033E+03</totfact>
</mgrwt>
</event>
<event>
 6    1  0.7457796E-006  0.1288471E+03  0.7546771E-02  0.1240085E+00
         -3   -1    0    0    0  501 -0.00000000000E+00  0.00000000000E+00  0.10396845256E+03  0.10396845256E+03  0.00000000000E+00 0.  1.
          3   -1    0    0  501    0  0.00000000000E+00 -0.00000000000E+00 -0.16331023662E+03  0.16331023662E+03  0.00000000000E+00 0. -1.
          5    1    1    2  502    0 -0.55465460350E+02 -0.55216389635E+02  0.33100395062E+01  0.78474921712E+02  0.47000000000E+01 0. -1.
         -5    1    1    2    0  502  0.33375139996E+02  0.33058429986E+02  0.25095307315E+02  0.53466103393E+02  0.47000000000E+01 0. -1.
        -11    1    1    2    0    0  0.52572344118E+02  0.27802132722E+02 -0.85642367026E+02  0.10426612575E+03  0.00000000000E+00 0. -1.
         11    1    1    2    0    0 -0.30482023764E+02 -0.56441730730E+01 -0.21047638530E+01  0.31071538315E+02  0.00000000000E+00 0.  1.
<mgrwt>
<rscale>  0 0.12184417E+03</rscale>
<asrwt>0</asrwt>
<pdfrwt beam="2">  1        3 0.25124652E-01 0.12884708E+03</pdfrwt>
<pdfrwt beam="1">  1       -3 0.15995147E-01 0.12884708E+03</pdfrwt>
<totfact> 0.11295436E+03</totfact>
</mgrwt>
</event>
<event>
 6    1  0.7457796E-006  0.1283528E+03  0.7546771E-02  0.1244078E+00
          4   -1    0    0  501    0  0.00000000000E+00  0.00000000000E+00  0.12850930714E+03  0.12850930714E+03  0.00000000000E+00 0.  1.
         -4   -1    0    0    0  501 -0.00000000000E+00 -0.00000000000E+00 -0.10872717570E+03  0.10872717570E+03  0.00000000000E+00 0. -1.
          5    1    1    2  502    0  0.47904587268E+02 -0.33709742939E+01 -0.33736253006E+02  0.58876461475E+02  0.47000000000E+01 0.  1.
         -5    1    1    2    0  502 -0.69562283739E+02 -0.16138344071E+02  0.80683435174E+01  0.72017675854E+02  0.47000000000E+01 0.  1.
        -11    1    1    2    0    0 -0.44701195340E+01  0.22145194716E+02 -0.23477405032E+02  0.32581899341E+02  0.00000000000E+00 0. -1.
         11    1    1    2    0    0  0.26127816005E+02 -0.26358763510E+01  0.68927445956E+02  0.73760446171E+02  0.00000000000E+00 0.  1.
<mgrwt>
<rscale>  0 0.11940719E+03</rscale>
<asrwt>0</asrwt>
<pdfrwt beam="1">  1        4 0.19770663E-01 0.12835277E+03</pdfrwt>
<pdfrwt beam="2">  1       -4 0.16727258E-01 0.12835277E+03</pdfrwt>
<totfact> 0.11667862E+03</totfact>
</mgrwt>
</event>
<event>
 6    1  0.7457796E-006  0.1262140E+03  0.7546771E-02  0.1247696E+00
         -2   -1    0    0    0  501 -0.00000000000E+00  0.00000000000E+00  0.21857047435E+02  0.21857047435E+02  0.00000000000E+00 0.  1.
          2   -1    0    0  501    0  0.00000000000E+00 -0.00000000000E+00 -0.55996052455E+03  0.55996052455E+03  0.00000000000E+00 0. -1.
          5    1    1    2  502    0 -0.37453620472E+02  0.39242846393E+02 -0.15652555130E+03  0.16572601754E+03  0.47000000000E+01 0.  1.
         -5    1    1    2    0  502  0.38980551463E+02 -0.56664783409E+02 -0.12373287505E+03  0.14164143264E+03  0.47000000000E+01 0.  1.
        -11    1    1    2    0    0  0.74419616394E+01  0.54644582331E+02 -0.16684790397E+03  0.17572602605E+03  0.00000000000E+00 0. -1.
         11    1    1    2    0    0 -0.89688926308E+01 -0.37222645315E+02 -0.90997146786E+02  0.98724095755E+02  0.00000000000E+00 0.  1.
<mgrwt>
<rscale>  0 0.11725455E+03</rscale>
<asrwt>0</asrwt>
<pdfrwt beam="2">  1        2 0.86147774E-01 0.12621396E+03</pdfrwt>
<pdfrwt beam="1">  1       -2 0.33626227E-02 0.12621396E+03</pdfrwt>
<totfact> 0.18313533E+04</totfact>
</mgrwt>
</event>
<event>
 6    1  0.7457796E-006  0.3243676E+03  0.7546771E-02  0.1073657E+00
          1   -1    0    0  501    0  0.00000000000E+00  0.00000000000E+00  0.57334443983E+03  0.57334443983E+03  0.00000000000E+00 0. -1.
         -1   -1    0    0    0  501 -0.00000000000E+00 -0.00000000000E+00 -0.45877464577E+02  0.45877464577E+02  0.00000000000E+00 0.  1.
          5    1    1    2  502    0  0.89531953705E+01  0.15151236418E+02  0.85677329803E+02  0.87592319952E+02  0.47000000000E+01 0. -1.
         -5    1    1    2    0  502 -0.91211986883E+02 -0.57020361432E+02  0.50094529628E+02  0.11875394759E+03  0.47000000000E+01 0. -1.
        -11    1    1    2    0    0 -0.31850804808E+01  0.40896498603E+02  0.83165188435E+02  0.92731423493E+02  0.00000000000E+00 0.  1.
         11    1    1    2    0    0  0.85443871994E+02  0.97262641094E+00  0.30852992739E+03  0.32014421337E+03  0.00000000000E+00 0. -1.
<mgrwt>
<rscale>  0 0.32436763E+03</rscale>
<asrwt>0</asrwt>
<pdfrwt beam="1">  1        1 0.88206832E-01 0.32436763E+03</pdfrwt>
<pdfrwt beam="2">  1       -1 0.70580719E-02 0.32436763E+03</pdfrwt>
<totfact> 0.39155207E+03</totfact>
</mgrwt>
</event>
<event>
 6    1  0.7457796E-006  0.1454603E+03  0.7546771E-02  0.1255684E+00
         -2   -1    0    0    0  501 -0.00000000000E+00  0.00000000000E+00  0.67347731543E+02  0.67347731543E+02  0.00000000000E+00 0.  1.
          2   -1    0    0  501    0  0.00000000000E+00 -0.00000000000E+00 -0.29215114381E+03  0.29215114381E+03  0.00000000000E+00 0. -1.
          5    1    1    2  502    0  0.29067949905E+02  0.71669422360E+02 -0.10375032451E+02  0.78174056511E+02  0.47000000000E+01 0. -1.
         -5    1    1    2    0  502 -0.59936903995E+02 -0.31716500371E+02 -0.81040275566E+01  0.68455343976E+02  0.47000000000E+01 0.  1.
        -11    1    1    2    0    0  0.20962707431E+02 -0.34073278422E+02 -0.17442177455E+03  0.17895077212E+03  0.00000000000E+00 0. -1.
         11    1    1    2    0    0  0.99062466589E+01 -0.58796435669E+01 -0.31902577707E+02  0.33918702742E+02  0.00000000000E+00 0.  1.
<mgrwt>
<rscale>  0 0.11268082E+03</rscale>
<asrwt>0</asrwt>
<pdfrwt beam="2">  1        2 0.44946330E-01 0.14546032E+03</pdfrwt>
<pdfrwt beam="1">  1       -2 0.10361189E-01 0.14546032E+03</pdfrwt>
<totfact> 0.67536212E+03</totfact>
</mgrwt>
</event>
<event>
 6    1  0.7457796E-006  0.1437755E+03  0.7546771E-02  0.1219566E+00
         -1   -1    0    0    0  501 -0.00000000000E+00  0.00000000000E+00  0.50839142493E+02  0.50839142493E+02  0.00000000000E+00 0.  1.
          1   -1    0    0  501    0  0.00000000000E+00 -0.00000000000E+00 -0.33637039637E+03  0.33637039637E+03  0.00000000000E+00 0. -1.
          5    1    1    2  502    0  0.80195791317E+02  0.42781999769E+02 -0.12732490379E+03  0.15651001749E+03  0.47000000000E+01 0. -1.
         -5    1    1    2    0  502 -0.31436110462E+02  0.88666328364E+01  0.35699399369E+01  0.33191575588E+02  0.47000000000E+01 0. -1.
        -11    1    1    2    0    0 -0.34432773010E+02 -0.29819040448E+02 -0.14305623329E+02  0.47743501015E+02  0.00000000000E+00 0.  1.
         11    1    1    2    0    0 -0.14326907845E+02 -0.21829592157E+02 -0.14747066670E+03  0.14976444477E+03  0.00000000000E+00 0. -1.
<mgrwt>
<rscale>  0 0.13546439E+03</rscale>
<asrwt>0</asrwt>
<pdfrwt beam="2">  1        1 0.51749293E-01 0.14377553E+03</pdfrwt>
<pdfrwt beam="1">  1       -1 0.78214064E-02 0.14377553E+03</pdfrwt>
<totfact> 0.64695139E+03</totfact>
</mgrwt>
</event>
<event>
 6    1  0.7457796E-006  0.2830145E+03  0.7546771E-02  0.1094054E+00
          2   -1    0    0  501    0  0.00000000000E+00  0.00000000000E+00  0.10587264724E+04  0.10587264724E+04  0.00000000000E+00 0. -1.
         -2   -1    0    0    0  501 -0.00000000000E+00 -0.00000000000E+00 -0.18913570983E+02  0.18913570983E+02  0.00000000000E+00 0.  1.
          5    1    1    2  502    0  0.95284150211E+02  0.51393343196E+02  0.23969902461E+03  0.26305523641E+03  0.47000000000E+01 0. -1.
         -5    1    1    2    0  502 -0.27758386372E+02 -0.13370660575E+02  0.15613421535E+03  0.15921459035E+03  0.47000000000E+01 0. -1.
        -11    1    1    2    0    0 -0.91973955196E+01 -0.58472209958E+02  0.28111768570E+03  0.28728164688E+03  0.00000000000E+00 0. -1.
         11    1    1    2    0    0 -0.58328368319E+02  0.20449527336E+02  0.36286197578E+03  0.36808856976E+03  0.00000000000E+00 0.  1.
<mgrwt>
<rscale>  0 0.28301448E+03</rscale>
<asrwt>0</asrwt>
<pdfrwt beam="1">  1        2 0.16288095E+00 0.28301448E+03</pdfrwt>
<pdfrwt beam="2">  1       -2 0.29097810E-02 0.28301448E+03</pdfrwt>
<totfact> 0.10708465E+04</totfact>
</mgrwt>
</event>
<event>
 6    1  0.7457796E-006  0.1537355E+03  0.7546771E-02  0.1204826E+00
         -2   -1    0    0    0  501 -0.00000000000E+00  0.00000000000E+00  0.54215624421E+02  0.54215624421E+02  0.00000000000E+00 0.  1.
          2   -1    0    0  501    0  0.00000000000E+00 -0.00000000000E+00 -0.36419803725E+03  0.36419803725E+03  0.00000000000E+00 0. -1.
          5    1    1    2  502    0 -0.35764293880E+02  0.12747935449E+02 -0.16273733718E+03  0.16717393783E+03  0.47000000000E+01 0.  1.
         -5    1    1    2    0  502 -0.23544483325E+01  0.68225470023E+02 -0.19304438665E+02  0.71098590275E+02  0.47000000000E+01 0.  1.
        -11    1    1    2    0    0  0.74654059896E+01 -0.19995813417E+02  0.11970484239E+02  0.24471561734E+02  0.00000000000E+00 0.  1.
         11    1    1    2    0    0  0.30653336223E+02 -0.60977592056E+02 -0.13991112122E+03  0.15566957184E+03  0.00000000000E+00 0. -1.
<mgrwt>
<rscale>  0 0.14651197E+03</rscale>
<asrwt>0</asrwt>
<pdfrwt beam="2">  1        2 0.56030467E-01 0.15373545E+03</pdfrwt>
<pdfrwt beam="1">  1       -2 0.83408654E-02 0.15373545E+03</pdfrwt>
<totfact> 0.75279904E+03</totfact>
</mgrwt>
</event>
<event>
 6    1  0.7457796E-006  0.1261355E+03  0.7546771E-02  0.1249235E+00
          2   -1    0    0  501    0  0.00000000000E+00  0.00000000000E+00  0.34050794114E+02  0.34050794114E+02  0.00000000000E+00 0. -1.
         -2   -1    0    0    0  501 -0.00000000000E+00 -0.00000000000E+00 -0.36987559180E+03  0.36987559180E+03  0.00000000000E+00 0.  1.
          5    1    1    2  502    0  0.18919446166E+02 -0.24242596933E+02 -0.21957156858E+03  0.22176431786E+03  0.47000000000E+01 0. -1.
         -5    1    1    2    0  502 -0.34733434785E+02  0.30122202557E+02 -0.22954616769E+02  0.51601967112E+02  0.47000000000E+01 0. -1.
        -11    1    1    2    0    0  0.43850294462E+02  0.37729641265E+01 -0.90675960742E+02  0.10079292356E+03  0.00000000000E+00 0.  1.
         11    1    1    2    0    0 -0.28036305844E+02 -0.96525697499E+01 -0.26226516010E+01  0.29767177387E+02  0.00000000000E+00 0. -1.
<mgrwt>
<rscale>  0 0.11635429E+03</rscale>
<asrwt>0</asrwt>
<pdfrwt beam="1">  1        2 0.52385841E-02 0.12613554E+03</pdfrwt>
<pdfrwt beam="2">  1       -2 0.56903933E-01 0.12613554E+03</pdfrwt>
<totfact> 0.41259443E+03</totfact>
</mgrwt>
</event>
<event>
 6    1  0.7457796E-006  0.1464500E+03  0.7546771E-02  0.1214683E+00
         -4   -1    0    0    0  501 -0.00000000000E+00  0.00000000000E+00  0.15978437928E+03  0.15978437928E+03  0.00000000000E+00 0.  1.
          4   -1    0    0  501    0  0.00000000000E+00 -0.00000000000E+00 -0.18698729758E+03  0.18698729758E+03  0.00000000000E+00 0. -1.
          5    1    1    2  502    0  0.38364557191E+02  0.12079087609E+01 -0.25993735027E+02  0.46594662277E+02  0.47000000000E+01 0. -1.
         -5    1    1    2    0  502  0.36649091996E+02 -0.15144845588E+02  0.12237351655E+03  0.12872408417E+03  0.47000000000E+01 0. -1.
        -11    1    1    2    0    0 -0.21367755658E+02 -0.25504788028E+02 -0.26208809415E+01  0.33375802779E+02  0.00000000000E+00 0.  1.
         11    1    1    2    0    0 -0.53645893529E+02  0.39441724855E+02 -0.12096181888E+03  0.13807712764E+03  0.00000000000E+00 0. -1.
<mgrwt>
<rscale>  0 0.13899831E+03</rscale>
<asrwt>0</asrwt>
<pdfrwt beam="2">  1        4 0.28767276E-01 0.14644999E+03</pdfrwt>
<pdfrwt beam="1">  1       -4 0.24582212E-01 0.14644999E+03</pdfrwt>
<totfact> 0.30038424E+02</totfact>
</mgrwt>
</event>
<event>
 6    1  0.7457796E-006  0.1955047E+03  0.7546771E-02  0.1157719E+00
          1   -1    0    0  501    0  0.00000000000E+00  0.00000000000E+00  0.11433989453E+03  0.11433989453E+03  0.00000000000E+00 0. -1.
         -1   -1    0    0    0  501 -0.00000000000E+00 -0.00000000000E+00 -0.32091225151E+03  0.32091225151E+03  0.00000000000E+00 0.  1.
          5    1    1    2  502    0  0.99493030611E+02  0.71697537956E+02 -0.14747019134E+03  0.19185658035E+03  0.47000000000E+01 0. -1.
         -5    1    1    2    0  502  0.46351337427E+02 -0.35305916787E+02 -0.10274690849E+02  0.59351609190E+02  0.47000000000E+01 0. -1.
        -11    1    1    2    0    0 -0.83354904594E+02 -0.20951101878E+02  0.21612336443E+02  0.88623258100E+02  0.00000000000E+00 0. -1.
         11    1    1    2    0    0 -0.62489463444E+02 -0.15440519291E+02 -0.70439811232E+02  0.95420698404E+02  0.00000000000E+00 0.  1.
<mgrwt>
<rscale>  0 0.19082541E+03</rscale>
<asrwt>0</asrwt>
<pdfrwt beam="1">  1        1 0.17590753E-01 0.19550475E+03</pdfrwt>
<pdfrwt beam="2">  1       -1 0.49371116E-01 0.19550475E+03</pdfrwt>
<totfact> 0.12610265E+03</totfact>
</mgrwt>
</event>
<event>
 6    1  0.7457796E-006  0.1827493E+03  0.7546771E-02  0.1170082E+00
          2   -1    0    0  501    0  0.00000000000E+00  0.00000000000E+00  0.54442373026E+03  0.54442373026E+03  0.00000000000E+00 0. -1.
         -2   -1    0    0    0  501 -0.00000000000E+00 -0.00000000000E+00 -0.66075742617E+02  0.66075742617E+02  0.00000000000E+00 0.  1.
          5    1    1    2  502    0  0.18026657381E+02  0.63159286868E+02  0.24493943007E+02  0.70257377819E+02  0.47000000000E+01 0.  1.
         -5    1    1    2    0  502 -0.10670846328E+03  0.36385905454E+02  0.10092867054E+03  0.15139127052E+03  0.47000000000E+01 0.  1.
        -11    1    1    2    0    0  0.48330161552E+02 -0.62195443317E+02  0.30780583964E+03  0.31772395661E+03  0.00000000000E+00 0. -1.
         11    1    1    2    0    0  0.40351644352E+02 -0.37349749005E+02  0.45119534456E+02  0.71126867935E+02  0.00000000000E+00 0.  1.
<mgrwt>
<rscale>  0 0.17766468E+03</rscale>
<asrwt>0</asrwt>
<pdfrwt beam="1">  1        2 0.83757494E-01 0.18274926E+03</pdfrwt>
<pdfrwt beam="2">  1       -2 0.10165499E-01 0.18274926E+03</pdfrwt>
<totfact> 0.35894494E+03</totfact>
</mgrwt>
</event>
<event>
 6    1  0.7457796E-006  0.1313278E+03  0.7546771E-02  0.1231595E+00
         -3   -1    0    0    0  501 -0.00000000000E+00  0.00000000000E+00  0.16686631707E+04  0.16686631707E+04  0.00000000000E+00 0.  1.
          3   -1    0    0  501    0  0.00000000000E+00 -0.00000000000E+00 -0.17240912843E+02  0.17240912843E+02  0.00000000000E+00 0. -1.
          5    1    1    2  502    0  0.11853131866E+02 -0.14190584477E+02  0.78545591318E+03  0.78568756575E+03  0.47000000000E+01 0. -1.
         -5    1    1    2    0  502 -0.78016847018E+02  0.37218797154E+02  0.64481840384E+03  0.65060335936E+03  0.47000000000E+01 0.  1.
        -11    1    1    2    0    0 -0.82607387883E+01  0.25219744223E+02  0.41443497985E+02  0.49212181716E+02  0.00000000000E+00 0.  1.
         11    1    1    2    0    0  0.74424453941E+02 -0.48247956900E+02  0.17970444288E+03  0.20040097674E+03  0.00000000000E+00 0. -1.
<mgrwt>
<rscale>  0 0.12724976E+03</rscale>
<asrwt>0</asrwt>
<pdfrwt beam="2">  1        3 0.26524495E-02 0.13132783E+03</pdfrwt>
<pdfrwt beam="1">  1       -3 0.25671728E+00 0.13132783E+03</pdfrwt>
<totfact> 0.11072174E+02</totfact>
</mgrwt>
</event>
<event>
 6    1  0.7457796E-006  0.2905319E+03  0.7546771E-02  0.1108155E+00
         -1   -1    0    0    0  501 -0.00000000000E+00  0.00000000000E+00  0.66700236262E+02  0.66700236262E+02  0.00000000000E+00 0.  1.
          1   -1    0    0  501    0  0.00000000000E+00 -0.00000000000E+00 -0.10505451094E+04  0.10505451094E+04  0.00000000000E+00 0. -1.
          5    1    1    2  502    0  0.88574139160E+02  0.11781421376E+03 -0.24611280008E+03  0.28691317059E+03  0.47000000000E+01 0. -1.
         -5    1    1    2    0  502 -0.12412402898E+03  0.34036249097E+02 -0.88707917241E+02  0.15638550254E+03  0.47000000000E+01 0.  1.
        -11    1    1    2    0    0 -0.16551094475E+01  0.12627536427E+02 -0.37872832354E+02  0.39956795342E+02  0.00000000000E+00 0.  1.
         11    1    1    2    0    0  0.37204999266E+02 -0.16447799928E+03 -0.61115132342E+03  0.63398987716E+03  0.00000000000E+00 0. -1.
<mgrwt>
<rscale>  0 0.25832306E+03</rscale>
<asrwt>0</asrwt>
<pdfrwt beam="2">  1        1 0.16162233E+00 0.29053193E+03</pdfrwt>
<pdfrwt beam="1">  1       -1 0.10261574E-01 0.29053193E+03</pdfrwt>
<totfact> 0.85937585E+02</totfact>
</mgrwt>
</event>
<event>
 6    1  0.7457796E-006  0.1261938E+03  0.7546771E-02  0.1246776E+00
          2   -1    0    0  501    0  0.00000000000E+00  0.00000000000E+00  0.47809036265E+03  0.47809036265E+03  0.00000000000E+00 0. -1.
         -2   -1    0    0    0  501 -0.00000000000E+00 -0.00000000000E+00 -0.25921001058E+02  0.25921001058E+02  0.00000000000E+00 0.  1.
          5    1    1    2  502    0  0.32142228381E+02  0.54840044479E+02  0.75068671405E+02  0.98478163825E+02  0.47000000000E+01 0. -1.
         -5    1    1    2    0  502 -0.15879019287E+02 -0.48881622759E+02  0.16290057779E+03  0.17088079044E+03  0.47000000000E+01 0. -1.
        -11    1    1    2    0    0  0.19752042315E+02  0.34611771527E+02  0.69465404733E+02  0.80084707395E+02  0.00000000000E+00 0.  1.
         11    1    1    2    0    0 -0.36015251409E+02 -0.40570193246E+02  0.14473470767E+03  0.15456770205E+03  0.00000000000E+00 0. -1.
<mgrwt>
<rscale>  0 0.11779702E+03</rscale>
<asrwt>0</asrwt>
<pdfrwt beam="1">  1        2 0.73552357E-01 0.12619383E+03</pdfrwt>
<pdfrwt beam="2">  1       -2 0.39878467E-02 0.12619383E+03</pdfrwt>
<totfact> 0.16940736E+04</totfact>
</mgrwt>
</event>
<event>
 6    1  0.7457796E-006  0.2962914E+03  0.7546771E-02  0.1087109E+00
         -2   -1    0    0    0  501 -0.00000000000E+00  0.00000000000E+00  0.31708116655E+02  0.31708116655E+02  0.00000000000E+00 0.  1.
          2   -1    0    0  501    0  0.00000000000E+00 -0.00000000000E+00 -0.69216162588E+03  0.69216162588E+03  0.00000000000E+00 0. -1.
          5    1    1    2  502    0  0.96754119388E+02  0.35293764625E+02 -0.13107069826E+03  0.16675918980E+03  0.47000000000E+01 0.  1.
         -5    1    1    2    0  502 -0.14579564621E+02 -0.42326054702E+02 -0.84254054254E+02  0.95524312452E+02  0.47000000000E+01 0.  1.
        -11    1    1    2    0    0 -0.36954842138E+02  0.48006576238E+02 -0.24367278150E+03  0.25109105154E+03  0.00000000000E+00 0.  1.
         11    1    1    2    0    0 -0.45219712628E+02 -0.40974286161E+02 -0.20145597521E+03  0.21049518875E+03  0.00000000000E+00 0. -1.
<mgrwt>
<rscale>  0 0.29629135E+03</rscale>
<asrwt>0</asrwt>
<pdfrwt beam="2">  1        2 0.10648640E+00 0.29629135E+03</pdfrwt>
<pdfrwt beam="1">  1       -2 0.48781721E-02 0.29629135E+03</pdfrwt>
<totfact> 0.86399241E+03</totfact>
</mgrwt>
</event>
<event>
 6    1  0.7457796E-006  0.1330113E+03  0.7546771E-02  0.1236223E+00
          2   -1    0    0  501    0  0.00000000000E+00  0.00000000000E+00  0.87175186038E+03  0.87175186038E+03  0.00000000000E+00 0. -1.
         -2   -1    0    0    0  501 -0.00000000000E+00 -0.00000000000E+00 -0.16135193211E+02  0.16135193211E+02  0.00000000000E+00 0.  1.
          5    1    1    2  502    0 -0.12447216571E+01 -0.62378808832E+02  0.26404847597E+03  0.27136019013E+03  0.47000000000E+01 0. -1.
         -5    1    1    2    0  502 -0.43634029305E+02  0.55083743582E+02  0.28835808256E+03  0.29683433274E+03  0.47000000000E+01 0. -1.
        -11    1    1    2    0    0  0.29097435381E+02  0.40335380703E+02  0.85406415052E+02  0.98832481575E+02  0.00000000000E+00 0.  1.
         11    1    1    2    0    0  0.15781315581E+02 -0.33040315453E+02  0.21780369359E+03  0.22086004915E+03  0.00000000000E+00 0. -1.
<mgrwt>
<rscale>  0 0.12426436E+03</rscale>
<asrwt>0</asrwt>
<pdfrwt beam="1">  1        2 0.13411563E+00 0.13301131E+03</pdfrwt>
<pdfrwt beam="2">  1       -2 0.24823381E-02 0.13301131E+03</pdfrwt>
<totfact> 0.16946284E+04</totfact>
</mgrwt>
</event>
<event>
 6    1  0.7457796E-006  0.1364146E+03  0.7546771E-02  0.1229798E+00
          1   -1    0    0  501    0  0.00000000000E+00  0.00000000000E+00  0.72995466773E+03  0.72995466773E+03  0.00000000000E+00 0. -1.
         -1   -1    0    0    0  501 -0.00000000000E+00 -0.00000000000E+00 -0.20731926903E+02  0.20731926903E+02  0.00000000000E+00 0.  1.
          5    1    1    2  502    0  0.35414524866E+02 -0.68335964813E+02  0.30145425391E+03  0.31116032822E+03  0.47000000000E+01 0. -1.
         -5    1    1    2    0  502 -0.38052046133E+02  0.13773832795E+02  0.42572381476E+02  0.58925158882E+02  0.47000000000E+01 0. -1.
        -11    1    1    2    0    0  0.28847468008E+02 -0.32721022710E+01  0.40956675593E+02  0.50202911663E+02  0.00000000000E+00 0.  1.
         11    1    1    2    0    0 -0.26209946741E+02  0.57834234289E+02  0.32423942985E+03  0.33039819587E+03  0.00000000000E+00 0. -1.
<mgrwt>
<rscale>  0 0.12843428E+03</rscale>
<asrwt>0</asrwt>
<pdfrwt beam="1">  1        1 0.11230070E+00 0.13641460E+03</pdfrwt>
<pdfrwt beam="2">  1       -1 0.31895278E-02 0.13641460E+03</pdfrwt>
<totfact> 0.87707843E+03</totfact>
</mgrwt>
</event>
<event>
 6    1  0.7457796E-006  0.1430270E+03  0.7546771E-02  0.1220239E+00
          1   -1    0    0  501    0  0.00000000000E+00  0.00000000000E+00  0.29234556396E+03  0.29234556396E+03  0.00000000000E+00 0. -1.
         -1   -1    0    0    0  501 -0.00000000000E+00 -0.00000000000E+00 -0.58627564413E+02  0.58627564413E+02  0.00000000000E+00 0.  1.
          5    1    1    2  502    0 -0.17215000116E+02 -0.10808960357E+02 -0.30454648421E+02  0.36915653366E+02  0.47000000000E+01 0.  1.
         -5    1    1    2    0  502 -0.38006264469E+02 -0.31400638915E+02  0.12521920266E+03  0.13465665590E+03  0.47000000000E+01 0.  1.
        -11    1    1    2    0    0  0.34538104667E+02 -0.18996527825E+02  0.90284545482E+02  0.98514201496E+02  0.00000000000E+00 0. -1.
         11    1    1    2    0    0  0.20683159918E+02  0.61206127097E+02  0.48668899826E+02  0.80886617611E+02  0.00000000000E+00 0.  1.
<mgrwt>
<rscale>  0 0.13498601E+03</rscale>
<asrwt>0</asrwt>
<pdfrwt beam="1">  1        1 0.44976240E-01 0.14302705E+03</pdfrwt>
<pdfrwt beam="2">  1       -1 0.90196255E-02 0.14302705E+03</pdfrwt>
<totfact> 0.62040497E+03</totfact>
</mgrwt>
</event>
<event>
 6    1  0.7457796E-006  0.1828766E+03  0.7546771E-02  0.1170423E+00
          1   -1    0    0  501    0  0.00000000000E+00  0.00000000000E+00  0.16242324268E+03  0.16242324268E+03  0.00000000000E+00 0. -1.
         -1   -1    0    0    0  501 -0.00000000000E+00 -0.00000000000E+00 -0.20817322895E+03  0.20817322895E+03  0.00000000000E+00 0.  1.
          5    1    1    2  502    0  0.15304420602E+02  0.30869602248E+02 -0.43252837291E+02  0.55498248321E+02  0.47000000000E+01 0.  1.
         -5    1    1    2    0  502  0.99109886335E+02 -0.99629900216E+02 -0.45581937018E+02  0.14781302232E+03  0.47000000000E+01 0.  1.
        -11    1    1    2    0    0 -0.47856446045E+01  0.41652995518E+02 -0.90642104479E+01  0.42895621466E+02  0.00000000000E+00 0.  1.
         11    1    1    2    0    0 -0.10962866233E+03  0.27107302451E+02  0.52148998490E+02  0.12438957953E+03  0.00000000000E+00 0. -1.
<mgrwt>
<rscale>  0 0.17731970E+03</rscale>
<asrwt>0</asrwt>
<pdfrwt beam="1">  1        1 0.24988191E-01 0.18287661E+03</pdfrwt>
<pdfrwt beam="2">  1       -1 0.32026651E-01 0.18287661E+03</pdfrwt>
<totfact> 0.17261477E+03</totfact>
</mgrwt>
</event>
<event>
 6    1  0.7457796E-006  0.1667611E+03  0.7546771E-02  0.1205267E+00
          4   -1    0    0  501    0  0.00000000000E+00  0.00000000000E+00  0.16824017624E+03  0.16824017624E+03  0.00000000000E+00 0. -1.
         -4   -1    0    0    0  501 -0.00000000000E+00 -0.00000000000E+00 -0.10580829744E+03  0.10580829744E+03  0.00000000000E+00 0.  1.
          5    1    1    2  502    0  0.27208506396E+02  0.71876879513E+02  0.34363277908E+02  0.84317931055E+02  0.47000000000E+01 0. -1.
         -5    1    1    2    0  502 -0.60412529293E+02 -0.57634342193E+02 -0.99645376815E+01  0.84218603092E+02  0.47000000000E+01 0.  1.
        -11    1    1    2    0    0  0.26945106025E+02 -0.30982300563E+02 -0.19363735848E+02  0.45397091899E+02  0.00000000000E+00 0.  1.
         11    1    1    2    0    0  0.62589168725E+01  0.16739763243E+02  0.57396874415E+02  0.60114847638E+02  0.00000000000E+00 0. -1.
<mgrwt>
<rscale>  0 0.14616403E+03</rscale>
<asrwt>0</asrwt>
<pdfrwt beam="1">  1        4 0.25883104E-01 0.16676110E+03</pdfrwt>
<pdfrwt beam="2">  1       -4 0.16278200E-01 0.16676110E+03</pdfrwt>
<totfact> 0.78897861E+02</totfact>
</mgrwt>
</event>
<event>
 6    1  0.7457796E-006  0.3310887E+03  0.7546771E-02  0.1070656E+00
         -2   -1    0    0    0  501 -0.00000000000E+00  0.00000000000E+00  0.20817860817E+03  0.20817860817E+03  0.00000000000E+00 0.  1.
          2   -1    0    0  501    0  0.00000000000E+00 -0.00000000000E+00 -0.13164146228E+03  0.13164146228E+03  0.00000000000E+00 0. -1.
          5    1    1    2  502    0  0.27329278106E+02 -0.63632240269E+01  0.60117553493E+02  0.66510076678E+02  0.47000000000E+01 0. -1.
         -5    1    1    2    0  502 -0.11166937622E+03  0.21957533832E+02  0.73409442066E+02  0.13551095550E+03  0.47000000000E+01 0. -1.
        -11    1    1    2    0    0  0.27293566226E+02 -0.51232615443E+02 -0.23055020467E+02  0.62460016100E+02  0.00000000000E+00 0. -1.
         11    1    1    2    0    0  0.57046531885E+02  0.35638305638E+02 -0.33934829197E+02  0.75339022170E+02  0.00000000000E+00 0.  1.
<mgrwt>
<rscale>  0 0.33108873E+03</rscale>
<asrwt>0</asrwt>
<pdfrwt beam="2">  1        2 0.20252533E-01 0.33108873E+03</pdfrwt>
<pdfrwt beam="1">  1       -2 0.32027478E-01 0.33108873E+03</pdfrwt>
<totfact> 0.24882682E+03</totfact>
</mgrwt>
</event>
<event>
 6    1  0.7457796E-006  0.1266401E+03  0.7546771E-02  0.1248229E+00
          3   -1    0    0  501    0  0.00000000000E+00  0.00000000000E+00  0.69681674757E+02  0.69681674757E+02  0.00000000000E+00 0. -1.
         -3   -1    0    0    0  501 -0.00000000000E+00 -0.00000000000E+00 -0.18074016284E+03  0.18074016284E+03  0.00000000000E+00 0.  1.
          5    1    1    2  502    0 -0.11003474187E+02 -0.69291755367E+02 -0.64704603300E+02  0.95557309999E+02  0.47000000000E+01 0.  1.
         -5    1    1    2    0  502  0.19252701698E+02  0.50730218176E+02 -0.26926740952E+02  0.60756571144E+02  0.47000000000E+01 0.  1.
        -11    1    1    2    0    0 -0.27384327501E+02  0.30017432675E+02  0.22626095723E+02  0.46506858255E+02  0.00000000000E+00 0. -1.
         11    1    1    2    0    0  0.19135099990E+02 -0.11455895484E+02 -0.42053239558E+02  0.47601098204E+02  0.00000000000E+00 0.  1.
<mgrwt>
<rscale>  0 0.11694212E+03</rscale>
<asrwt>0</asrwt>
<pdfrwt beam="1">  1        3 0.10720258E-01 0.12664014E+03</pdfrwt>
<pdfrwt beam="2">  1       -3 0.27806178E-01 0.12664014E+03</pdfrwt>
<totfact> 0.18400404E+03</totfact>
</mgrwt>
</event>
<event>
 6    1  0.7457796E-006  0.1271697E+03  0.7546771E-02  0.1246576E+00
          4   -1    0    0  501    0  0.00000000000E+00  0.00000000000E+00  0.28344903552E+03  0.28344903552E+03  0.00000000000E+00 0. -1.
         -4   -1    0    0    0  501 -0.00000000000E+00 -0.00000000000E+00 -0.48907853700E+02  0.48907853700E+02  0.00000000000E+00 0.  1.
          5    1    1    2  502    0 -0.17359720620E+02  0.88584805814E+01 -0.32077758601E+02  0.37827307267E+02  0.47000000000E+01 0.  1.
         -5    1    1    2    0  502  0.15083898997E+02  0.14455712318E+02  0.10838351678E+03  0.11047881397E+03  0.47000000000E+01 0.  1.
        -11    1    1    2    0    0 -0.21060499238E+02 -0.44746445194E+01 -0.14441535626E+01  0.21578986335E+02  0.00000000000E+00 0.  1.
         11    1    1    2    0    0  0.23336320861E+02 -0.18839548380E+02  0.15967957721E+03  0.16247178165E+03  0.00000000000E+00 0. -1.
<mgrwt>
<rscale>  0 0.11791558E+03</rscale>
<asrwt>0</asrwt>
<pdfrwt beam="1">  1        4 0.43607543E-01 0.12716972E+03</pdfrwt>
<pdfrwt beam="2">  1       -4 0.75242854E-02 0.12716972E+03</pdfrwt>
<totfact> 0.10196112E+03</totfact>
</mgrwt>
</event>
<event>
 6    1  0.7457796E-006  0.1282716E+03  0.7546771E-02  0.1245647E+00
         -4   -1    0    0    0  501 -0.00000000000E+00  0.00000000000E+00  0.30675176673E+02  0.30675176673E+02  0.00000000000E+00 0.  1.
          4   -1    0    0  501    0  0.00000000000E+00 -0.00000000000E+00 -0.42531689518E+03  0.42531689518E+03  0.00000000000E+00 0. -1.
          5    1    1    2  502    0 -0.14527675375E+02 -0.61181921786E+02 -0.32584642005E+02  0.70979784445E+02  0.47000000000E+01 0. -1.
         -5    1    1    2    0  502  0.70248389966E+01  0.33397848666E+02 -0.13926829681E+03  0.14346606970E+03  0.47000000000E+01 0. -1.
        -11    1    1    2    0    0 -0.23982600697E+02 -0.97237371785E+01 -0.19394997002E+02  0.32340100644E+02  0.00000000000E+00 0.  1.
         11    1    1    2    0    0  0.31485437075E+02  0.37507810299E+02 -0.20339378269E+03  0.20920611707E+03  0.00000000000E+00 0. -1.
<mgrwt>
<rscale>  0 0.11846727E+03</rscale>
<asrwt>0</asrwt>
<pdfrwt beam="2">  1        4 0.65433367E-01 0.12827155E+03</pdfrwt>
<pdfrwt beam="1">  1       -4 0.47192581E-02 0.12827155E+03</pdfrwt>
<totfact> 0.94495800E+02</totfact>
</mgrwt>
</event>
<event>
 6    1  0.7457796E-006  0.1266380E+03  0.7546771E-02  0.1243766E+00
         -1   -1    0    0    0  501 -0.00000000000E+00  0.00000000000E+00  0.52409985842E+02  0.52409985842E+02  0.00000000000E+00 0.  1.
          1   -1    0    0  501    0  0.00000000000E+00 -0.00000000000E+00 -0.30382647285E+03  0.30382647285E+03  0.00000000000E+00 0. -1.
          5    1    1    2  502    0  0.22377653249E+02  0.26752310667E+02 -0.86883782412E+02  0.93740744275E+02  0.47000000000E+01 0. -1.
         -5    1    1    2    0  502  0.22847685819E+02 -0.30434294826E+02  0.26445491496E+02  0.46580221869E+02  0.47000000000E+01 0.  1.
        -11    1    1    2    0    0  0.12217285174E+02 -0.29791775325E+02 -0.43285242016E+02  0.53948346689E+02  0.00000000000E+00 0.  1.
         11    1    1    2    0    0 -0.57442624243E+02  0.33473759484E+02 -0.14769295408E+03  0.16196714586E+03  0.00000000000E+00 0. -1.
<mgrwt>
<rscale>  0 0.11959537E+03</rscale>
<asrwt>0</asrwt>
<pdfrwt beam="2">  1        1 0.46742534E-01 0.12663801E+03</pdfrwt>
<pdfrwt beam="1">  1       -1 0.80630748E-02 0.12663801E+03</pdfrwt>
<totfact> 0.69538434E+03</totfact>
</mgrwt>
</event>
<event>
 6    1  0.7457796E-006  0.1293439E+03  0.7546771E-02  0.1241967E+00
          2   -1    0    0  501    0  0.00000000000E+00  0.00000000000E+00  0.15304579087E+03  0.15304579087E+03  0.00000000000E+00 0. -1.
         -2   -1    0    0    0  501 -0.00000000000E+00 -0.00000000000E+00 -0.94387287169E+02  0.94387287169E+02  0.00000000000E+00 0.  1.
          5    1    1    2  502    0 -0.58497078357E+02 -0.49860403224E+01 -0.23770997465E+02  0.63513141119E+02  0.47000000000E+01 0.  1.
         -5    1    1    2    0  502  0.57028719851E+02 -0.28222610309E+02  0.16930506074E+02  0.66011534268E+02  0.47000000000E+01 0.  1.
        -11    1    1    2    0    0  0.16587993467E+02 -0.13363679019E+02  0.65569935882E+02  0.68943208047E+02  0.00000000000E+00 0. -1.
         11    1    1    2    0    0 -0.15119634961E+02  0.46572329651E+02 -0.70940786970E-01  0.48965194608E+02  0.00000000000E+00 0.  1.
<mgrwt>
<rscale>  0 0.12068763E+03</rscale>
<asrwt>0</asrwt>
<pdfrwt beam="1">  1        2 0.23545506E-01 0.12934392E+03</pdfrwt>
<pdfrwt beam="2">  1       -2 0.14521121E-01 0.12934392E+03</pdfrwt>
<totfact> 0.78417391E+03</totfact>
</mgrwt>
</event>
<event>
 6    1  0.7457796E-006  0.1480270E+03  0.7546771E-02  0.1212729E+00
         -2   -1    0    0    0  501 -0.00000000000E+00  0.00000000000E+00  0.16021880677E+03  0.16021880677E+03  0.00000000000E+00 0.  1.
          2   -1    0    0  501    0  0.00000000000E+00 -0.00000000000E+00 -0.11813747259E+03  0.11813747259E+03  0.00000000000E+00 0. -1.
          5    1    1    2  502    0  0.93195114828E+02  0.43427203956E+02  0.47630578751E+02  0.11341081740E+03  0.47000000000E+01 0. -1.
         -5    1    1    2    0  502 -0.40553007006E+02  0.15874658524E+02  0.69082955660E+01  0.44343722308E+02  0.47000000000E+01 0. -1.
        -11    1    1    2    0    0 -0.32973202422E+02 -0.65249219791E+02  0.25510013032E+02  0.77430314001E+02  0.00000000000E+00 0.  1.
         11    1    1    2    0    0 -0.19668905400E+02  0.59473573115E+01 -0.37967553170E+02  0.43171425646E+02  0.00000000000E+00 0. -1.
<mgrwt>
<rscale>  0 0.14044680E+03</rscale>
<asrwt>0</asrwt>
<pdfrwt beam="2">  1        2 0.18174996E-01 0.14802704E+03</pdfrwt>
<pdfrwt beam="1">  1       -2 0.24649047E-01 0.14802704E+03</pdfrwt>
<totfact> 0.43496324E+03</totfact>
</mgrwt>
</event>
<event>
 6    1  0.7457796E-006  0.3100966E+03  0.7546771E-02  0.1081821E+00
         -2   -1    0    0    0  501 -0.00000000000E+00  0.00000000000E+00  0.29990662591E+03  0.29990662591E+03  0.00000000000E+00 0.  1.
          2   -1    0    0  501    0  0.00000000000E+00 -0.00000000000E+00 -0.31041603712E+03  0.31041603712E+03  0.00000000000E+00 0. -1.
          5    1    1    2  502    0 -0.40732343238E+02  0.16532693062E+03  0.46570380391E+02  0.17658711194E+03  0.47000000000E+01 0.  1.
         -5    1    1    2    0  502  0.59324222556E+02  0.11785694833E+03 -0.24542577715E+02  0.13429092215E+03  0.47000000000E+01 0.  1.
        -11    1    1    2    0    0 -0.47281031185E+02 -0.15895627466E+03 -0.43581266642E+02  0.17146988063E+03  0.00000000000E+00 0.  1.
         11    1    1    2    0    0  0.28689151867E+02 -0.12422760429E+03  0.11044052759E+02  0.12797474830E+03  0.00000000000E+00 0. -1.
<mgrwt>
<rscale>  0 0.30694260E+03</rscale>
<asrwt>0</asrwt>
<pdfrwt beam="2">  1        2 0.47756314E-01 0.31009664E+03</pdfrwt>
<pdfrwt beam="1">  1       -2 0.46139481E-01 0.31009664E+03</pdfrwt>
<totfact> 0.47694477E+02</totfact>
</mgrwt>
</event>
<event>
 6    1  0.7457796E-006  0.1425654E+03  0.7546771E-02  0.1220523E+00
         -3   -1    0    0    0  501 -0.00000000000E+00  0.00000000000E+00  0.67909112858E+03  0.67909112858E+03  0.00000000000E+00 0.  1.
          3   -1    0    0  501    0  0.00000000000E+00 -0.00000000000E+00 -0.31607203846E+02  0.31607203846E+02  0.00000000000E+00 0. -1.
          5    1    1    2  502    0  0.16583277854E+01  0.21276565336E+02  0.40864162503E+03  0.40922550017E+03  0.47000000000E+01 0.  1.
         -5    1    1    2    0  502  0.66264007832E+02 -0.12094917080E+02  0.11385378081E+03  0.13237061289E+03  0.47000000000E+01 0.  1.
        -11    1    1    2    0    0 -0.88636991389E+02 -0.96019301640E+01  0.80904325496E+02  0.12039195650E+03  0.00000000000E+00 0. -1.
         11    1    1    2    0    0  0.20714655771E+02  0.42028190763E+00  0.44084193401E+02  0.48710262865E+02  0.00000000000E+00 0.  1.
<mgrwt>
<rscale>  0 0.13478530E+03</rscale>
<asrwt>0</asrwt>
<pdfrwt beam="2">  1        3 0.48626473E-02 0.14256543E+03</pdfrwt>
<pdfrwt beam="1">  1       -3 0.10447555E+00 0.14256543E+03</pdfrwt>
<totfact> 0.45593856E+02</totfact>
</mgrwt>
</event>
<event>
 6    1  0.7457796E-006  0.1532860E+03  0.7546771E-02  0.1202667E+00
         -1   -1    0    0    0  501 -0.00000000000E+00  0.00000000000E+00  0.38339158703E+03  0.38339158703E+03  0.00000000000E+00 0.  1.
          1   -1    0    0  501    0  0.00000000000E+00 -0.00000000000E+00 -0.68578604211E+02  0.68578604211E+02  0.00000000000E+00 0. -1.
          5    1    1    2  502    0 -0.70574620736E+02  0.38427269507E+02  0.10431849077E+03  0.13176444759E+03  0.47000000000E+01 0. -1.
         -5    1    1    2    0  502 -0.25124673301E+02 -0.61876644807E+02  0.16597887261E+03  0.17897218928E+03  0.47000000000E+01 0.  1.
        -11    1    1    2    0    0  0.58249517359E+02  0.57915344521E+02  0.35769941879E+02  0.89591752664E+02  0.00000000000E+00 0. -1.
         11    1    1    2    0    0  0.37449776679E+02 -0.34465969220E+02  0.87456775624E+01  0.51641801707E+02  0.00000000000E+00 0.  1.
<mgrwt>
<rscale>  0 0.14822828E+03</rscale>
<asrwt>0</asrwt>
<pdfrwt beam="2">  1        1 0.10550555E-01 0.15328598E+03</pdfrwt>
<pdfrwt beam="1">  1       -1 0.58983320E-01 0.15328598E+03</pdfrwt>
<totfact> 0.17558946E+03</totfact>
</mgrwt>
</event>
<event>
 6    1  0.7457796E-006  0.1499579E+03  0.7546771E-02  0.1209666E+00
         -2   -1    0    0    0  501 -0.00000000000E+00  0.00000000000E+00  0.21631276927E+03  0.21631276927E+03  0.00000000000E+00 0.  1.
          2   -1    0    0  501    0  0.00000000000E+00 -0.00000000000E+00 -0.10545403423E+03  0.10545403423E+03  0.00000000000E+00 0. -1.
          5    1    1    2  502    0  0.15873193534E+02  0.14937365124E+02 -0.23216745173E+02  0.32189911560E+02  0.47000000000E+01 0.  1.
         -5    1    1    2    0  502  0.65551962079E+02  0.29906566303E+00  0.15154309458E+03  0.16518035200E+03  0.47000000000E+01 0.  1.
        -11    1    1    2    0    0  0.43312173527E+01 -0.12259792741E+02 -0.34540319422E+02  0.36906579733E+02  0.00000000000E+00 0. -1.
         11    1    1    2    0    0 -0.85756372966E+02 -0.29766380461E+01  0.17072705062E+02  0.87489960204E+02  0.00000000000E+00 0.  1.
<mgrwt>
<rscale>  0 0.14275719E+03</rscale>
<asrwt>0</asrwt>
<pdfrwt beam="2">  1        2 0.16223698E-01 0.14995789E+03</pdfrwt>
<pdfrwt beam="1">  1       -2 0.33278888E-01 0.14995789E+03</pdfrwt>
<totfact> 0.29011405E+03</totfact>
</mgrwt>
</event>
<event>
 6    1  0.7457796E-006  0.1339286E+03  0.7546771E-02  0.1233112E+00
         -2   -1    0    0    0  501 -0.00000000000E+00  0.00000000000E+00  0.19262160408E+03  0.19262160408E+03  0.00000000000E+00 0.  1.
          2   -1    0    0  501    0  0.00000000000E+00 -0.00000000000E+00 -0.10147700561E+03  0.10147700561E+03  0.00000000000E+00 0. -1.
          5    1    1    2  502    0 -0.15136262728E+02 -0.56977562455E+02  0.12270130781E+02  0.60400291242E+02  0.47000000000E+01 0.  1.
         -5    1    1    2    0  502 -0.29370818442E+02  0.38693507830E+02  0.11254957082E+03  0.12267570426E+03  0.47000000000E+01 0.  1.
        -11    1    1    2    0    0  0.55377179519E+02 -0.10112910054E+02  0.10629392958E+02  0.57287755723E+02  0.00000000000E+00 0.  1.
         11    1    1    2    0    0 -0.10870098348E+02  0.28396964678E+02 -0.44304496089E+02  0.53734858470E+02  0.00000000000E+00 0. -1.
<mgrwt>
<rscale>  0 0.12626077E+03</rscale>
<asrwt>0</asrwt>
<pdfrwt beam="2">  1        2 0.15611847E-01 0.13392857E+03</pdfrwt>
<pdfrwt beam="1">  1       -2 0.29634093E-01 0.13392857E+03</pdfrwt>
<totfact> 0.37209040E+03</totfact>
</mgrwt>
</event>
<event>
 6    1  0.7457796E-006  0.1274195E+03  0.7546771E-02  0.1245605E+00
         -1   -1    0    0    0  501 -0.00000000000E+00  0.00000000000E+00  0.79328984270E+02  0.79328984270E+02  0.00000000000E+00 0.  1.
          1   -1    0    0  501    0  0.00000000000E+00 -0.00000000000E+00 -0.16537542830E+03  0.16537542830E+03  0.00000000000E+00 0. -1.
          5    1    1    2  502    0  0.47993901825E+02 -0.27516693969E+02 -0.47125209318E+02  0.72824847495E+02  0.47000000000E+01 0. -1.
         -5    1    1    2    0  502 -0.27330171979E+02  0.41064704812E+02  0.26596128161E+02  0.56237819257E+02  0.47000000000E+01 0. -1.
        -11    1    1    2    0    0  0.96591628407E+01  0.10394087601E+02  0.18412910735E+02  0.23245897823E+02  0.00000000000E+00 0.  1.
         11    1    1    2    0    0 -0.30322892687E+02 -0.23942098444E+02 -0.83930273612E+02  0.92395847999E+02  0.00000000000E+00 0. -1.
<mgrwt>
<rscale>  0 0.11849242E+03</rscale>
<asrwt>0</asrwt>
<pdfrwt beam="2">  1        1 0.25442373E-01 0.12741950E+03</pdfrwt>
<pdfrwt beam="1">  1       -1 0.12204459E-01 0.12741950E+03</pdfrwt>
<totfact> 0.78579264E+03</totfact>
</mgrwt>
</event>
<event>
 6    1  0.7457796E-006  0.1266209E+03  0.7546771E-02  0.1248286E+00
         -1   -1    0    0    0  501 -0.00000000000E+00  0.00000000000E+00  0.54604652649E+02  0.54604652649E+02  0.00000000000E+00 0.  1.
          1   -1    0    0  501    0  0.00000000000E+00 -0.00000000000E+00 -0.22234805243E+03  0.22234805243E+03  0.00000000000E+00 0. -1.
          5    1    1    2  502    0  0.22936826827E+02 -0.18406908714E+02 -0.96201570972E+02  0.10070622906E+03  0.47000000000E+01 0.  1.
         -5    1    1    2    0  502 -0.25013831430E+02  0.38477890525E+02  0.16402012027E+02  0.48962800376E+02  0.47000000000E+01 0.  1.
        -11    1    1    2    0    0 -0.25081607502E+01 -0.47656217264E+02 -0.16387636026E+02  0.50457512115E+02  0.00000000000E+00 0.  1.
         11    1    1    2    0    0  0.45851653536E+01  0.27585235452E+02 -0.71556204805E+02  0.76826163528E+02  0.00000000000E+00 0. -1.
<mgrwt>
<rscale>  0 0.11690829E+03</rscale>
<asrwt>0</asrwt>
<pdfrwt beam="2">  1        1 0.34207393E-01 0.12662089E+03</pdfrwt>
<pdfrwt beam="1">  1       -1 0.84007157E-02 0.12662089E+03</pdfrwt>
<totfact> 0.96090623E+03</totfact>
</mgrwt>
</event>
<event>
 6    1  0.7457796E-006  0.1435382E+03  0.7546771E-02  0.1218290E+00
          2   -1    0    0  501    0  0.00000000000E+00  0.00000000000E+00  0.29952501467E+03  0.29952501467E+03  0.00000000000E+00 0.  1.
         -2   -1    0    0    0  501 -0.00000000000E+00 -0.00000000000E+00 -0.56642072114E+02  0.56642072114E+02  0.00000000000E+00 0. -1.
          5    1    1    2  502    0 -0.69430105530E+02 -0.20897755836E+02  0.64494690265E+02  0.97154057174E+02  0.47000000000E+01 0.  1.
         -5    1    1    2    0  502  0.52276734959E+02 -0.47540112161E+02  0.68556801563E+02  0.98564924404E+02  0.47000000000E+01 0.  1.
        -11    1    1    2    0    0 -0.20076609843E+02  0.63785060757E+02  0.10224288601E+03  0.12216878479E+03  0.00000000000E+00 0.  1.
         11    1    1    2    0    0  0.37229980415E+02  0.46528072406E+01  0.75885647209E+01  0.38279320415E+02  0.00000000000E+00 0. -1.
<mgrwt>
<rscale>  0 0.13637633E+03</rscale>
<asrwt>0</asrwt>
<pdfrwt beam="1">  1        2 0.46080770E-01 0.14353822E+03</pdfrwt>
<pdfrwt beam="2">  1       -2 0.87141651E-02 0.14353822E+03</pdfrwt>
<totfact> 0.86196679E+03</totfact>
</mgrwt>
</event>
<event>
 6    1  0.7457796E-006  0.1259341E+03  0.7546771E-02  0.1248694E+00
         -1   -1    0    0    0  501 -0.00000000000E+00  0.00000000000E+00  0.31629074177E+03  0.31629074177E+03  0.00000000000E+00 0.  1.
          1   -1    0    0  501    0  0.00000000000E+00 -0.00000000000E+00 -0.45379654932E+02  0.45379654932E+02  0.00000000000E+00 0. -1.
          5    1    1    2  502    0  0.78071875576E+01  0.24575385702E+02  0.23927281139E+03  0.24070411303E+03  0.47000000000E+01 0.  1.
         -5    1    1    2    0  502 -0.59648010286E+01 -0.86597677116E+01 -0.13543120417E+02  0.17778541525E+02  0.47000000000E+01 0.  1.
        -11    1    1    2    0    0 -0.24564052661E+02 -0.40319640729E+02  0.50823926425E+02  0.69369572645E+02  0.00000000000E+00 0. -1.
         11    1    1    2    0    0  0.22721666133E+02  0.24404022739E+02 -0.56425305546E+01  0.33818169506E+02  0.00000000000E+00 0.  1.
<mgrwt>
<rscale>  0 0.11667016E+03</rscale>
<asrwt>0</asrwt>
<pdfrwt beam="2">  1        1 0.69814856E-02 0.12593407E+03</pdfrwt>
<pdfrwt beam="1">  1       -1 0.48660113E-01 0.12593407E+03</pdfrwt>
<totfact> 0.43126443E+03</totfact>
</mgrwt>
</event>
<event>
 6    1  0.7457796E-006  0.1504295E+03  0.7546771E-02  0.1209016E+00
         -3   -1    0    0    0  501 -0.00000000000E+00  0.00000000000E+00  0.19249917278E+03  0.19249917278E+03  0.00000000000E+00 0.  1.
          3   -1    0    0  501    0  0.00000000000E+00 -0.00000000000E+00 -0.98752316912E+02  0.98752316912E+02  0.00000000000E+00 0. -1.
          5    1    1    2  502    0 -0.79877061902E+02  0.61978001972E+02  0.52027977507E+02  0.11380078291E+03  0.47000000000E+01 0.  1.
         -5    1    1    2    0  502  0.46140782985E+02  0.14597354496E+02  0.14978003782E+02  0.50877158038E+02  0.47000000000E+01 0.  1.
        -11    1    1    2    0    0  0.63979167232E+02 -0.37768483128E+02  0.19785332683E+02  0.76884663926E+02  0.00000000000E+00 0.  1.
         11    1    1    2    0    0 -0.30242888315E+02 -0.38806873340E+02  0.69555418991E+01  0.49688884825E+02  0.00000000000E+00 0. -1.
<mgrwt>
<rscale>  0 0.14325396E+03</rscale>
<asrwt>0</asrwt>
<pdfrwt beam="2">  1        3 0.15192664E-01 0.15042946E+03</pdfrwt>
<pdfrwt beam="1">  1       -3 0.29615257E-01 0.15042946E+03</pdfrwt>
<totfact> 0.93596879E+02</totfact>
</mgrwt>
</event>
<event>
 6    1  0.7457796E-006  0.1319866E+03  0.7546771E-02  0.1241487E+00
          2   -1    0    0  501    0  0.00000000000E+00  0.00000000000E+00  0.41875587893E+03  0.41875587893E+03  0.00000000000E+00 0. -1.
         -2   -1    0    0    0  501 -0.00000000000E+00 -0.00000000000E+00 -0.43876100295E+02  0.43876100295E+02  0.00000000000E+00 0.  1.
          5    1    1    2  502    0 -0.45459602914E+02  0.26720677617E+02 -0.16739507099E+02  0.55523609459E+02  0.47000000000E+01 0.  1.
         -5    1    1    2    0  502  0.13373846554E+02  0.10288384756E+01  0.98964913622E+02  0.99980310104E+02  0.47000000000E+01 0.  1.
        -11    1    1    2    0    0  0.59338835587E+02 -0.88322784897E+01  0.18988670666E+03  0.19913831354E+03  0.00000000000E+00 0. -1.
         11    1    1    2    0    0 -0.27253079227E+02 -0.18917237603E+02  0.10276766545E+03  0.10798974612E+03  0.00000000000E+00 0.  1.
<mgrwt>
<rscale>  0 0.12098148E+03</rscale>
<asrwt>0</asrwt>
<pdfrwt beam="1">  1        2 0.64423979E-01 0.13198656E+03</pdfrwt>
<pdfrwt beam="2">  1       -2 0.67501696E-02 0.13198656E+03</pdfrwt>
<totfact> 0.88919711E+03</totfact>
</mgrwt>
</event>
<event>
 6    1  0.7457796E-006  0.2531319E+03  0.7546771E-02  0.1113711E+00
          2   -1    0    0  501    0  0.00000000000E+00  0.00000000000E+00  0.64333442684E+03  0.64333442684E+03  0.00000000000E+00 0. -1.
         -2   -1    0    0    0  501 -0.00000000000E+00 -0.00000000000E+00 -0.10353504432E+03  0.10353504432E+03  0.00000000000E+00 0.  1.
          5    1    1    2  502    0 -0.14740894414E+03  0.69027014660E+01  0.13990940937E+03  0.20340544961E+03  0.47000000000E+01 0. -1.
         -5    1    1    2    0  502 -0.56364964547E+02  0.76292949684E+02  0.23326020703E+02  0.97794767967E+02  0.47000000000E+01 0. -1.
        -11    1    1    2    0    0  0.89921674569E+02 -0.75366342461E+02  0.24404425221E+03  0.27078329005E+03  0.00000000000E+00 0. -1.
         11    1    1    2    0    0  0.11385223412E+03 -0.78293086891E+01  0.13251970024E+03  0.17488596354E+03  0.00000000000E+00 0.  1.
<mgrwt>
<rscale>  0 0.24935810E+03</rscale>
<asrwt>0</asrwt>
<pdfrwt beam="1">  1        2 0.98974524E-01 0.25313191E+03</pdfrwt>
<pdfrwt beam="2">  1       -2 0.15928469E-01 0.25313191E+03</pdfrwt>
<totfact> 0.14376767E+03</totfact>
</mgrwt>
</event>
<event>
 6    1  0.7457796E-006  0.1480808E+03  0.7546771E-02  0.1213071E+00
         -2   -1    0    0    0  501 -0.00000000000E+00  0.00000000000E+00  0.96537421688E+02  0.96537421688E+02  0.00000000000E+00 0.  1.
          2   -1    0    0  501    0  0.00000000000E+00 -0.00000000000E+00 -0.21204586266E+03  0.21204586266E+03  0.00000000000E+00 0. -1.
          5    1    1    2  502    0 -0.44625889698E+02 -0.23780526939E+02  0.12110938448E+02  0.52208699686E+02  0.47000000000E+01 0. -1.
         -5    1    1    2    0  502  0.68874196153E+01  0.93574962709E+02 -0.20199805565E+02  0.96092831886E+02  0.47000000000E+01 0. -1.
        -11    1    1    2    0    0  0.10874484992E+02  0.56714564810E+01 -0.71409766779E+02  0.72455328540E+02  0.00000000000E+00 0. -1.
         11    1    1    2    0    0  0.26863985091E+02 -0.75465892252E+02 -0.36009807077E+02  0.87826424236E+02  0.00000000000E+00 0.  1.
<mgrwt>
<rscale>  0 0.14019207E+03</rscale>
<asrwt>0</asrwt>
<pdfrwt beam="2">  1        2 0.32622440E-01 0.14808077E+03</pdfrwt>
<pdfrwt beam="1">  1       -2 0.14851911E-01 0.14808077E+03</pdfrwt>
<totfact> 0.53419108E+03</totfact>
</mgrwt>
</event>
<event>
 6    1  0.7457796E-006  0.2224660E+03  0.7546771E-02  0.1132058E+00
         -1   -1    0    0    0  501 -0.00000000000E+00  0.00000000000E+00  0.14829617687E+03  0.14829617687E+03  0.00000000000E+00 0.  1.
          1   -1    0    0  501    0  0.00000000000E+00 -0.00000000000E+00 -0.83432900803E+02  0.83432900803E+02  0.00000000000E+00 0. -1.
          5    1    1    2  502    0  0.24360809234E+02  0.19717392143E+02 -0.32400437547E+02  0.45322212354E+02  0.47000000000E+01 0.  1.
         -5    1    1    2    0  502 -0.94173550227E+01  0.29229616081E+01  0.97656143397E+02  0.98265164852E+02  0.47000000000E+01 0.  1.
        -11    1    1    2    0    0 -0.45816910174E+02 -0.11199713365E+02 -0.18383482824E+02  0.50621885367E+02  0.00000000000E+00 0.  1.
         11    1    1    2    0    0  0.30873455963E+02 -0.11440640386E+02  0.17991053040E+02  0.37519815099E+02  0.00000000000E+00 0. -1.
<mgrwt>
<rscale>  0 0.22246600E+03</rscale>
<asrwt>0</asrwt>
<pdfrwt beam="2">  1        1 0.12835831E-01 0.22246600E+03</pdfrwt>
<pdfrwt beam="1">  1       -1 0.22814796E-01 0.22246600E+03</pdfrwt>
<totfact> 0.72814394E+03</totfact>
</mgrwt>
</event>
<event>
 6    1  0.7457796E-006  0.1390506E+03  0.7546771E-02  0.1225626E+00
         -1   -1    0    0    0  501 -0.00000000000E+00  0.00000000000E+00  0.66545511285E+02  0.66545511285E+02  0.00000000000E+00 0.  1.
          1   -1    0    0  501    0  0.00000000000E+00 -0.00000000000E+00 -0.23962511769E+03  0.23962511769E+03  0.00000000000E+00 0. -1.
          5    1    1    2  502    0 -0.25075109615E+02 -0.15976897641E+02  0.12563015847E+02  0.32618119927E+02  0.47000000000E+01 0. -1.
         -5    1    1    2    0  502  0.81767771191E+02  0.38651359216E+02 -0.84836187039E+02  0.12409337052E+03  0.47000000000E+01 0. -1.
        -11    1    1    2    0    0 -0.57320292686E+02  0.12716562047E+02 -0.97623673036E+02  0.11391974562E+03  0.00000000000E+00 0. -1.
         11    1    1    2    0    0  0.62763110985E+00 -0.35391023622E+02 -0.31827621784E+01  0.35539392917E+02  0.00000000000E+00 0.  1.
<mgrwt>
<rscale>  0 0.13124061E+03</rscale>
<asrwt>0</asrwt>
<pdfrwt beam="2">  1        1 0.36865403E-01 0.13905064E+03</pdfrwt>
<pdfrwt beam="1">  1       -1 0.10237771E-01 0.13905064E+03</pdfrwt>
<totfact> 0.65300862E+03</totfact>
</mgrwt>
</event>
<event>
 6    1  0.7457796E-006  0.1354771E+03  0.7546771E-02  0.1231056E+00
         -1   -1    0    0    0  501 -0.00000000000E+00  0.00000000000E+00  0.81305959277E+02  0.81305959277E+02  0.00000000000E+00 0.  1.
          1   -1    0    0  501    0  0.00000000000E+00 -0.00000000000E+00 -0.18026591547E+03  0.18026591547E+03  0.00000000000E+00 0. -1.
          5    1    1    2  502    0 -0.73891519353E+02  0.11532983264E+02 -0.55616545765E+02  0.93318039510E+02  0.47000000000E+01 0. -1.
         -5    1    1    2    0  502  0.43488287323E+02  0.31332743769E+02 -0.18340127114E+01  0.53837027862E+02  0.47000000000E+01 0. -1.
        -11    1    1    2    0    0  0.16151548656E+02 -0.12903676403E+02  0.29509181509E+02  0.36030114932E+02  0.00000000000E+00 0.  1.
         11    1    1    2    0    0  0.14251683373E+02 -0.29962050630E+02 -0.71018579226E+02  0.78386692443E+02  0.00000000000E+00 0. -1.
<mgrwt>
<rscale>  0 0.12760297E+03</rscale>
<asrwt>0</asrwt>
<pdfrwt beam="2">  1        1 0.27733218E-01 0.13547711E+03</pdfrwt>
<pdfrwt beam="1">  1       -1 0.12508609E-01 0.13547711E+03</pdfrwt>
<totfact> 0.68220897E+03</totfact>
</mgrwt>
</event>
<event>
 6    1  0.7457796E-006  0.1524928E+03  0.7546771E-02  0.1206218E+00
          1   -1    0    0  501    0  0.00000000000E+00  0.00000000000E+00  0.28483841864E+03  0.28483841864E+03  0.00000000000E+00 0. -1.
         -1   -1    0    0    0  501 -0.00000000000E+00 -0.00000000000E+00 -0.71588544730E+02  0.71588544730E+02  0.00000000000E+00 0.  1.
          5    1    1    2  502    0  0.32998178832E+02 -0.21849368574E+02  0.10497597795E+03  0.11228677865E+03  0.47000000000E+01 0. -1.
         -5    1    1    2    0  502  0.20599490276E+02 -0.47113185275E+02 -0.27779196514E+02  0.58632456757E+02  0.47000000000E+01 0. -1.
        -11    1    1    2    0    0 -0.17163622820E+02  0.84381694800E+02  0.10019315249E+03  0.13211180178E+03  0.00000000000E+00 0.  1.
         11    1    1    2    0    0 -0.36434046288E+02 -0.15419140951E+02  0.35859939991E+02  0.53395926182E+02  0.00000000000E+00 0. -1.
<mgrwt>
<rscale>  0 0.14541884E+03</rscale>
<asrwt>0</asrwt>
<pdfrwt beam="1">  1        1 0.43821295E-01 0.15249276E+03</pdfrwt>
<pdfrwt beam="2">  1       -1 0.11013622E-01 0.15249276E+03</pdfrwt>
<totfact> 0.47385395E+03</totfact>
</mgrwt>
</event>
<event>
 6    1  0.7457796E-006  0.1250927E+03  0.7546771E-02  0.1251232E+00
          1   -1    0    0  501    0  0.00000000000E+00  0.00000000000E+00  0.36236611995E+03  0.36236611995E+03  0.00000000000E+00 0. -1.
         -1   -1    0    0    0  501 -0.00000000000E+00 -0.00000000000E+00 -0.33917512629E+02  0.33917512629E+02  0.00000000000E+00 0.  1.
          5    1    1    2  502    0  0.58580840254E+02  0.19212200794E+02  0.44628532748E+02  0.76253651974E+02  0.47000000000E+01 0. -1.
         -5    1    1    2    0  502 -0.54804052934E+02 -0.16208469926E+02  0.97239188672E+02  0.11288821253E+03  0.47000000000E+01 0. -1.
        -11    1    1    2    0    0 -0.45945360856E+02  0.33462583616E+01  0.79511263972E+02  0.91892408433E+02  0.00000000000E+00 0.  1.
         11    1    1    2    0    0  0.42168573536E+02 -0.63499892295E+01  0.10706962193E+03  0.11524935964E+03  0.00000000000E+00 0. -1.
<mgrwt>
<rscale>  0 0.11520017E+03</rscale>
<asrwt>0</asrwt>
<pdfrwt beam="1">  1        1 0.55748631E-01 0.12509274E+03</pdfrwt>
<pdfrwt beam="2">  1       -1 0.52180791E-02 0.12509274E+03</pdfrwt>
<totfact> 0.10686340E+04</totfact>
</mgrwt>
</event>
<event>
 6    1  0.7457796E-006  0.1256484E+03  0.7546771E-02  0.1249114E+00
         -1   -1    0    0    0  501 -0.00000000000E+00  0.00000000000E+00  0.33597241072E+02  0.33597241072E+02  0.00000000000E+00 0.  1.
          1   -1    0    0  501    0  0.00000000000E+00 -0.00000000000E+00 -0.35451493928E+03  0.35451493928E+03  0.00000000000E+00 0. -1.
          5    1    1    2  502    0 -0.26008269119E+02  0.31885618859E+02 -0.13344106232E+02  0.43511813611E+02  0.47000000000E+01 0. -1.
         -5    1    1    2    0  502  0.33564429635E+02 -0.43301681021E+02 -0.17065776352E+03  0.17929798874E+03  0.47000000000E+01 0. -1.
        -11    1    1    2    0    0  0.23429231250E+02  0.42207797760E+02 -0.61954369479E+02  0.78541523834E+02  0.00000000000E+00 0.  1.
         11    1    1    2    0    0 -0.30985391766E+02 -0.30791735597E+02 -0.74961458969E+02  0.86760854161E+02  0.00000000000E+00 0. -1.
<mgrwt>
<rscale>  0 0.11642517E+03</rscale>
<asrwt>0</asrwt>
<pdfrwt beam="2">  1        1 0.54540760E-01 0.12564840E+03</pdfrwt>
<pdfrwt beam="1">  1       -1 0.51688063E-02 0.12564840E+03</pdfrwt>
<totfact> 0.11141079E+04</totfact>
</mgrwt>
</event>
<event>
 6    1  0.7457796E-006  0.1255524E+03  0.7546771E-02  0.1249460E+00
          1   -1    0    0  501    0  0.00000000000E+00  0.00000000000E+00  0.10684050002E+03  0.10684050002E+03  0.00000000000E+00 0. -1.
         -1   -1    0    0    0  501 -0.00000000000E+00 -0.00000000000E+00 -0.12842838905E+03  0.12842838905E+03  0.00000000000E+00 0.  1.
          5    1    1    2  502    0 -0.23243350237E+02 -0.55333637509E+02 -0.18876087524E+02  0.63090898317E+02  0.47000000000E+01 0.  1.
         -5    1    1    2    0  502  0.14181927535E+02  0.62789338278E+02 -0.36306825589E+02  0.74053383815E+02  0.47000000000E+01 0.  1.
        -11    1    1    2    0    0  0.12667388416E+02 -0.41137518731E+02 -0.87230133133E+01  0.43918665028E+02  0.00000000000E+00 0.  1.
         11    1    1    2    0    0 -0.36059657141E+01  0.33681817962E+02  0.42318037387E+02  0.54205941909E+02  0.00000000000E+00 0. -1.
<mgrwt>
<rscale>  0 0.11622375E+03</rscale>
<asrwt>0</asrwt>
<pdfrwt beam="1">  1        1 0.16437000E-01 0.12555238E+03</pdfrwt>
<pdfrwt beam="2">  1       -1 0.19758214E-01 0.12555238E+03</pdfrwt>
<totfact> 0.64108468E+03</totfact>
</mgrwt>
</event>
<event>
 6    1  0.7457796E-006  0.1429297E+03  0.7546771E-02  0.1219852E+00
          2   -1    0    0  501    0  0.00000000000E+00  0.00000000000E+00  0.26595802226E+03  0.26595802226E+03  0.00000000000E+00 0. -1.
         -2   -1    0    0    0  501 -0.00000000000E+00 -0.00000000000E+00 -0.62389001641E+02  0.62389001641E+02  0.00000000000E+00 0.  1.
          5    1    1    2  502    0 -0.80200396082E+02 -0.23101758023E+02  0.21562756345E+02  0.86329816498E+02  0.47000000000E+01 0.  1.
         -5    1    1    2    0  502  0.10909357793E+02  0.21480461536E+02  0.94952340334E+02  0.98073754135E+02  0.47000000000E+01 0.  1.
        -11    1    1    2    0    0  0.95456519076E+01  0.34939068851E+02  0.60600197433E+02  0.70599163815E+02  0.00000000000E+00 0. -1.
         11    1    1    2    0    0  0.59745386382E+02 -0.33317772363E+02  0.26453726507E+02  0.73344289452E+02  0.00000000000E+00 0.  1.
<mgrwt>
<rscale>  0 0.13526077E+03</rscale>
<asrwt>0</asrwt>
<pdfrwt beam="1">  1        2 0.40916618E-01 0.14292973E+03</pdfrwt>
<pdfrwt beam="2">  1       -2 0.95983081E-02 0.14292973E+03</pdfrwt>
<totfact> 0.84066189E+03</totfact>
</mgrwt>
</event>
<event>
 6    1  0.7457796E-006  0.1403860E+03  0.7546771E-02  0.1224390E+00
          1   -1    0    0  501    0  0.00000000000E+00  0.00000000000E+00  0.32506628333E+03  0.32506628333E+03  0.00000000000E+00 0. -1.
         -1   -1    0    0    0  501 -0.00000000000E+00 -0.00000000000E+00 -0.83532450109E+02  0.83532450109E+02  0.00000000000E+00 0.  1.
          5    1    1    2  502    0 -0.78521256077E+02  0.26439556510E+02 -0.30790965441E+02  0.88514469761E+02  0.47000000000E+01 0.  1.
         -5    1    1    2    0  502  0.16192121874E+02 -0.40491733524E+02  0.27752641228E+02  0.51904377365E+02  0.47000000000E+01 0.  1.
        -11    1    1    2    0    0  0.84545937880E+02  0.20229381142E+02  0.19069536338E+03  0.20957567867E+03  0.00000000000E+00 0.  1.
         11    1    1    2    0    0 -0.22216803678E+02 -0.61772041274E+01  0.53876794049E+02  0.58604207643E+02  0.00000000000E+00 0. -1.
<mgrwt>
<rscale>  0 0.13208789E+03</rscale>
<asrwt>0</asrwt>
<pdfrwt beam="1">  1        1 0.50010197E-01 0.14038597E+03</pdfrwt>
<pdfrwt beam="2">  1       -1 0.12851146E-01 0.14038597E+03</pdfrwt>
<totfact> 0.31558152E+03</totfact>
</mgrwt>
</event>
<event>
 6    1  0.7457796E-006  0.1764269E+03  0.7546771E-02  0.1177097E+00
          1   -1    0    0  501    0  0.00000000000E+00  0.00000000000E+00  0.61348282298E+03  0.61348282298E+03  0.00000000000E+00 0. -1.
         -1   -1    0    0    0  501 -0.00000000000E+00 -0.00000000000E+00 -0.53009804233E+02  0.53009804233E+02  0.00000000000E+00 0.  1.
          5    1    1    2  502    0 -0.59202451302E+01  0.38491280695E+02 -0.15303120418E+02  0.42105860477E+02  0.47000000000E+01 0.  1.
         -5    1    1    2    0  502 -0.22541757608E+02  0.82715971946E+02  0.17917573293E+03  0.19868592331E+03  0.47000000000E+01 0.  1.
        -11    1    1    2    0    0 -0.23919677305E+02 -0.90074431945E+02  0.22181592624E+03  0.24059895965E+03  0.00000000000E+00 0.  1.
         11    1    1    2    0    0  0.52381680043E+02 -0.31132820697E+02  0.17478448000E+03  0.18510188378E+03  0.00000000000E+00 0. -1.
<mgrwt>
<rscale>  0 0.17072216E+03</rscale>
<asrwt>0</asrwt>
<pdfrwt beam="1">  1        1 0.94381968E-01 0.17642690E+03</pdfrwt>
<pdfrwt beam="2">  1       -1 0.81553549E-02 0.17642690E+03</pdfrwt>
<totfact> 0.28101977E+03</totfact>
</mgrwt>
</event>
<event>
 6    1  0.7457796E-006  0.1494078E+03  0.7546771E-02  0.1209880E+00
         -2   -1    0    0    0  501 -0.00000000000E+00  0.00000000000E+00  0.19632386727E+02  0.19632386727E+02  0.00000000000E+00 0.  1.
          2   -1    0    0  501    0  0.00000000000E+00 -0.00000000000E+00 -0.98010116952E+03  0.98010116952E+03  0.00000000000E+00 0. -1.
          5    1    1    2  502    0  0.37862030363E+01 -0.50488278895E+02 -0.98597052450E+02  0.11093633485E+03  0.47000000000E+01 0. -1.
         -5    1    1    2    0  502  0.73168259499E+02  0.22496581703E+02 -0.50986920970E+03  0.51560487914E+03  0.47000000000E+01 0. -1.
        -11    1    1    2    0    0 -0.26309681491E+02  0.35992944132E+02 -0.50512863688E+02  0.67373887860E+02  0.00000000000E+00 0.  1.
         11    1    1    2    0    0 -0.50644781044E+02 -0.80012469404E+01 -0.30148965695E+03  0.30581845439E+03  0.00000000000E+00 0. -1.
<mgrwt>
<rscale>  0 0.14259450E+03</rscale>
<asrwt>0</asrwt>
<pdfrwt beam="2">  1        2 0.15078480E+00 0.14940783E+03</pdfrwt>
<pdfrwt beam="1">  1       -2 0.30203670E-02 0.14940783E+03</pdfrwt>
<totfact> 0.10962009E+04</totfact>
</mgrwt>
</event>
<event>
 6    1  0.7457796E-006  0.1293083E+03  0.7546771E-02  0.1242021E+00
          2   -1    0    0  501    0  0.00000000000E+00  0.00000000000E+00  0.71471356824E+03  0.71471356824E+03  0.00000000000E+00 0.  1.
         -2   -1    0    0    0  501 -0.00000000000E+00 -0.00000000000E+00 -0.18811954694E+02  0.18811954694E+02  0.00000000000E+00 0. -1.
          5    1    1    2  502    0  0.35260290724E+02  0.43161414582E+02  0.24855286384E+03  0.25476815329E+03  0.47000000000E+01 0. -1.
         -5    1    1    2    0  502 -0.45186008969E+01 -0.55414958695E+02  0.73539940419E+02  0.92311690690E+02  0.47000000000E+01 0. -1.
        -11    1    1    2    0    0  0.18436546287E+02  0.29166184612E+02  0.68073405231E+02  0.76318811990E+02  0.00000000000E+00 0.  1.
         11    1    1    2    0    0 -0.49178236114E+02 -0.16912640499E+02  0.30573540406E+03  0.31012686696E+03  0.00000000000E+00 0. -1.
<mgrwt>
<rscale>  0 0.12065482E+03</rscale>
<asrwt>0</asrwt>
<pdfrwt beam="1">  1        2 0.10995591E+00 0.12930833E+03</pdfrwt>
<pdfrwt beam="2">  1       -2 0.28941474E-02 0.12930833E+03</pdfrwt>
<totfact> 0.17271356E+04</totfact>
</mgrwt>
</event>
<event>
 6    1  0.7457796E-006  0.2429190E+03  0.7546771E-02  0.1117863E+00
         -1   -1    0    0    0  501 -0.00000000000E+00  0.00000000000E+00  0.20736689029E+02  0.20736689029E+02  0.00000000000E+00 0.  1.
          1   -1    0    0  501    0  0.00000000000E+00 -0.00000000000E+00 -0.71141608664E+03  0.71141608664E+03  0.00000000000E+00 0. -1.
          5    1    1    2  502    0  0.21549945308E+01 -0.83078710639E+01  0.11065324553E+02  0.14771463384E+02  0.47000000000E+01 0.  1.
         -5    1    1    2    0  502  0.41393548989E+02  0.13205044568E+02 -0.29890916438E+03  0.30208703655E+03  0.47000000000E+01 0.  1.
        -11    1    1    2    0    0  0.26705959234E+02  0.10033321032E+01 -0.66900409520E+02  0.72040819872E+02  0.00000000000E+00 0. -1.
         11    1    1    2    0    0 -0.70254502754E+02 -0.59005056069E+01 -0.33593514826E+03  0.34325345586E+03  0.00000000000E+00 0.  1.
<mgrwt>
<rscale>  0 0.24291903E+03</rscale>
<asrwt>0</asrwt>
<pdfrwt beam="2">  1        1 0.10944863E+00 0.24291903E+03</pdfrwt>
<pdfrwt beam="1">  1       -1 0.31902597E-02 0.24291903E+03</pdfrwt>
<totfact> 0.93966929E+03</totfact>
</mgrwt>
</event>
<event>
 6    1  0.7457796E-006  0.1504827E+03  0.7546771E-02  0.1209698E+00
          2   -1    0    0  501    0  0.00000000000E+00  0.00000000000E+00  0.33519260516E+03  0.33519260516E+03  0.00000000000E+00 0. -1.
         -2   -1    0    0    0  501 -0.00000000000E+00 -0.00000000000E+00 -0.68134161672E+02  0.68134161672E+02  0.00000000000E+00 0.  1.
          5    1    1    2  502    0 -0.16661883805E+02 -0.96574021701E+02  0.73461619746E+02  0.12256777560E+03  0.47000000000E+01 0.  1.
         -5    1    1    2    0  502  0.32009028929E+02  0.14157290687E+02 -0.15664488981E+02  0.38632538457E+02  0.47000000000E+01 0.  1.
        -11    1    1    2    0    0  0.35512436708E+02  0.24786100931E+02  0.57222827527E+02  0.71763054217E+02  0.00000000000E+00 0.  1.
         11    1    1    2    0    0 -0.50859581833E+02  0.57630630084E+02  0.15203848520E+03  0.17036339856E+03  0.00000000000E+00 0. -1.
<mgrwt>
<rscale>  0 0.14273337E+03</rscale>
<asrwt>0</asrwt>
<pdfrwt beam="1">  1        2 0.51568092E-01 0.15048267E+03</pdfrwt>
<pdfrwt beam="2">  1       -2 0.10482179E-01 0.15048267E+03</pdfrwt>
<totfact> 0.57415752E+03</totfact>
</mgrwt>
</event>
<event>
 6    1  0.7457796E-006  0.1364669E+03  0.7546771E-02  0.1231290E+00
         -1   -1    0    0    0  501 -0.00000000000E+00  0.00000000000E+00  0.81315681136E+02  0.81315681136E+02  0.00000000000E+00 0.  1.
          1   -1    0    0  501    0  0.00000000000E+00 -0.00000000000E+00 -0.19556237324E+03  0.19556237324E+03  0.00000000000E+00 0. -1.
          5    1    1    2  502    0  0.20850564841E+02  0.42533140123E+02  0.96054686192E+01  0.48560983210E+02  0.47000000000E+01 0. -1.
         -5    1    1    2    0  502  0.17236090992E+02 -0.81891949183E+02 -0.32063896138E+02  0.89741615815E+02  0.47000000000E+01 0. -1.
        -11    1    1    2    0    0 -0.29265910744E+02 -0.19474947191E+02 -0.63767913763E+02  0.72815615945E+02  0.00000000000E+00 0. -1.
         11    1    1    2    0    0 -0.88207450884E+01  0.58833756250E+02 -0.28020350823E+02  0.65759839406E+02  0.00000000000E+00 0.  1.
<mgrwt>
<rscale>  0 0.12744953E+03</rscale>
<asrwt>0</asrwt>
<pdfrwt beam="2">  1        1 0.30086519E-01 0.13646695E+03</pdfrwt>
<pdfrwt beam="1">  1       -1 0.12510105E-01 0.13646695E+03</pdfrwt>
<totfact> 0.61656938E+03</totfact>
</mgrwt>
</event>
<event>
 6    1  0.7457796E-006  0.2603904E+03  0.7546771E-02  0.1106909E+00
         -1   -1    0    0    0  501 -0.00000000000E+00  0.00000000000E+00  0.51407309319E+03  0.51407309319E+03  0.00000000000E+00 0.  1.
          1   -1    0    0  501    0  0.00000000000E+00 -0.00000000000E+00 -0.32973507233E+02  0.32973507233E+02  0.00000000000E+00 0. -1.
          5    1    1    2  502    0  0.31904164847E+02  0.16986282731E+02  0.50765824917E+02  0.62495347948E+02  0.47000000000E+01 0. -1.
         -5    1    1    2    0  502 -0.10122630693E+03 -0.17802577309E+02  0.25763677969E+03  0.27742115496E+03  0.47000000000E+01 0. -1.
        -11    1    1    2    0    0  0.42861835504E+02 -0.34454223370E+02  0.14495531217E+03  0.15503636018E+03  0.00000000000E+00 0.  1.
         11    1    1    2    0    0  0.26460306579E+02  0.35270517948E+02  0.27741669187E+02  0.52093737338E+02  0.00000000000E+00 0. -1.
<mgrwt>
<rscale>  0 0.26039042E+03</rscale>
<asrwt>0</asrwt>
<pdfrwt beam="2">  1        1 0.50728477E-02 0.26039042E+03</pdfrwt>
<pdfrwt beam="1">  1       -1 0.79088162E-01 0.26039042E+03</pdfrwt>
<totfact> 0.27140892E+03</totfact>
</mgrwt>
</event>
<event>
 6    1  0.7457796E-006  0.1661472E+03  0.7546771E-02  0.1188639E+00
          2   -1    0    0  501    0  0.00000000000E+00  0.00000000000E+00  0.32247082868E+03  0.32247082868E+03  0.00000000000E+00 0. -1.
         -2   -1    0    0    0  501 -0.00000000000E+00 -0.00000000000E+00 -0.75505277935E+02  0.75505277935E+02  0.00000000000E+00 0.  1.
          5    1    1    2  502    0  0.52976646542E+02 -0.74875112425E+02  0.70333774700E+02  0.11567945973E+03  0.47000000000E+01 0.  1.
         -5    1    1    2    0  502 -0.64613185888E+02 -0.33953588784E+02  0.35401615544E+02  0.81259303252E+02  0.47000000000E+01 0.  1.
        -11    1    1    2    0    0  0.28447685683E+02  0.58591573312E+02  0.13209552841E+03  0.14728024955E+03  0.00000000000E+00 0. -1.
         11    1    1    2    0    0 -0.16811146337E+02  0.50237127897E+02  0.91346320945E+01  0.53757094080E+02  0.00000000000E+00 0.  1.
<mgrwt>
<rscale>  0 0.16005149E+03</rscale>
<asrwt>0</asrwt>
<pdfrwt beam="1">  1        2 0.49610896E-01 0.16614723E+03</pdfrwt>
<pdfrwt beam="2">  1       -2 0.11616197E-01 0.16614723E+03</pdfrwt>
<totfact> 0.51094368E+03</totfact>
</mgrwt>
</event>
<event>
 6    1  0.7457796E-006  0.1616265E+03  0.7546771E-02  0.1201308E+00
         -1   -1    0    0    0  501 -0.00000000000E+00  0.00000000000E+00  0.11330437742E+02  0.11330437742E+02  0.00000000000E+00 0.  1.
          1   -1    0    0  501    0  0.00000000000E+00 -0.00000000000E+00 -0.17377190784E+04  0.17377190784E+04  0.00000000000E+00 0. -1.
          5    1    1    2  502    0 -0.64338979909E+02  0.10525517105E+03 -0.10042881281E+04  0.10118472659E+04  0.47000000000E+01 0. -1.
         -5    1    1    2    0  502 -0.42779063761E+00 -0.25859446211E+02 -0.74942142080E+02  0.79418565982E+02  0.47000000000E+01 0. -1.
        -11    1    1    2    0    0  0.71319239316E+02 -0.49239499991E+02 -0.49456609114E+03  0.50210216168E+03  0.00000000000E+00 0. -1.
         11    1    1    2    0    0 -0.65524687700E+01 -0.30156224847E+02 -0.15259227931E+03  0.15568152251E+03  0.00000000000E+00 0.  1.
<mgrwt>
<rscale>  0 0.14932281E+03</rscale>
<asrwt>0</asrwt>
<pdfrwt beam="2">  1        1 0.26734139E+00 0.16162654E+03</pdfrwt>
<pdfrwt beam="1">  1       -1 0.17431443E-02 0.16162654E+03</pdfrwt>
<totfact> 0.41560448E+03</totfact>
</mgrwt>
</event>
<event>
 6    1  0.7457796E-006  0.1306699E+03  0.7546771E-02  0.1240504E+00
          1   -1    0    0  501    0  0.00000000000E+00  0.00000000000E+00  0.97948274654E+02  0.97948274654E+02  0.00000000000E+00 0. -1.
         -1   -1    0    0    0  501 -0.00000000000E+00 -0.00000000000E+00 -0.13443964779E+03  0.13443964779E+03  0.00000000000E+00 0.  1.
          5    1    1    2  502    0 -0.18041796736E+02 -0.24904073105E+02  0.42723497289E+02  0.52849848697E+02  0.47000000000E+01 0. -1.
         -5    1    1    2    0  502  0.56487485612E+02  0.73274850992E+01 -0.53461136652E+02  0.78260534120E+02  0.47000000000E+01 0.  1.
        -11    1    1    2    0    0 -0.27324058924E+02 -0.32461972084E+02  0.29412519219E+01  0.42532749623E+02  0.00000000000E+00 0. -1.
         11    1    1    2    0    0 -0.11121629952E+02  0.50038560089E+02 -0.28694985697E+02  0.58744790005E+02  0.00000000000E+00 0.  1.
<mgrwt>
<rscale>  0 0.12158531E+03</rscale>
<asrwt>0</asrwt>
<pdfrwt beam="1">  1        1 0.15068965E-01 0.13066995E+03</pdfrwt>
<pdfrwt beam="2">  1       -1 0.20683023E-01 0.13066995E+03</pdfrwt>
<totfact> 0.66822935E+03</totfact>
</mgrwt>
</event>
<event>
 6    1  0.7457796E-006  0.1593088E+03  0.7546771E-02  0.1196312E+00
          1   -1    0    0  501    0  0.00000000000E+00  0.00000000000E+00  0.14723597751E+03  0.14723597751E+03  0.00000000000E+00 0. -1.
         -1   -1    0    0    0  501 -0.00000000000E+00 -0.00000000000E+00 -0.15594980302E+03  0.15594980302E+03  0.00000000000E+00 0.  1.
          5    1    1    2  502    0  0.63807824280E+02 -0.11233250660E+02  0.42303357001E+02  0.77519599930E+02  0.47000000000E+01 0. -1.
         -5    1    1    2    0  502  0.32024627142E+02 -0.12651150522E+02 -0.78501518812E+02  0.85849908613E+02  0.47000000000E+01 0. -1.
        -11    1    1    2    0    0 -0.77859907194E+02 -0.26731522108E+02  0.81210662853E+01  0.82720560565E+02  0.00000000000E+00 0.  1.
         11    1    1    2    0    0 -0.17972544227E+02  0.50615923290E+02  0.19363270017E+02  0.57095711418E+02  0.00000000000E+00 0. -1.
<mgrwt>
<rscale>  0 0.15343693E+03</rscale>
<asrwt>0</asrwt>
<pdfrwt beam="1">  1        1 0.22651689E-01 0.15930879E+03</pdfrwt>
<pdfrwt beam="2">  1       -1 0.23992277E-01 0.15930879E+03</pdfrwt>
<totfact> 0.31529680E+03</totfact>
</mgrwt>
</event>
<event>
 6    1  0.7457796E-006  0.1250650E+03  0.7546771E-02  0.1260564E+00
          1   -1    0    0  501    0  0.00000000000E+00  0.00000000000E+00  0.11068955640E+03  0.11068955640E+03  0.00000000000E+00 0. -1.
         -1   -1    0    0    0  501 -0.00000000000E+00 -0.00000000000E+00 -0.11475046998E+03  0.11475046998E+03  0.00000000000E+00 0.  1.
          5    1    1    2  502    0 -0.10723315627E+02  0.46297914610E+02 -0.67694862914E+02  0.82844256652E+02  0.47000000000E+01 0.  1.
         -5    1    1    2    0  502  0.14091633233E+02 -0.48829719713E+02  0.14506892542E+02  0.53060866801E+02  0.47000000000E+01 0.  1.
        -11    1    1    2    0    0  0.15572496950E+02  0.34403220255E+02  0.25687331343E+02  0.45671908397E+02  0.00000000000E+00 0. -1.
         11    1    1    2    0    0 -0.18940814556E+02 -0.31871415152E+02  0.23439725445E+02  0.43862994525E+02  0.00000000000E+00 0.  1.
<mgrwt>
<rscale>  0 0.11000302E+03</rscale>
<asrwt>0</asrwt>
<pdfrwt beam="1">  1        1 0.17029163E-01 0.12506495E+03</pdfrwt>
<pdfrwt beam="2">  1       -1 0.17653918E-01 0.12506495E+03</pdfrwt>
<totfact> 0.73273090E+03</totfact>
</mgrwt>
</event>
<event>
 6    1  0.7457796E-006  0.1504050E+03  0.7546771E-02  0.1208980E+00
          2   -1    0    0  501    0  0.00000000000E+00  0.00000000000E+00  0.44533911335E+03  0.44533911335E+03  0.00000000000E+00 0. -1.
         -2   -1    0    0    0  501 -0.00000000000E+00 -0.00000000000E+00 -0.45816909974E+02  0.45816909974E+02  0.00000000000E+00 0.  1.
          5    1    1    2  502    0 -0.58654722552E+02  0.23609595103E+02  0.17048871312E+03  0.18189634620E+03  0.47000000000E+01 0. -1.
         -5    1    1    2    0  502 -0.19654574460E+02  0.57486414555E+01 -0.21322179400E+02  0.29934503673E+02  0.47000000000E+01 0. -1.
        -11    1    1    2    0    0 -0.39153073834E+01 -0.25326281339E+02  0.13615295844E+03  0.13854377738E+03  0.00000000000E+00 0. -1.
         11    1    1    2    0    0  0.82224604396E+02 -0.40319552194E+01  0.11420271120E+03  0.14078139606E+03  0.00000000000E+00 0.  1.
<mgrwt>
<rscale>  0 0.14328181E+03</rscale>
<asrwt>0</asrwt>
<pdfrwt beam="1">  1        2 0.68513707E-01 0.15040497E+03</pdfrwt>
<pdfrwt beam="2">  1       -2 0.70487557E-02 0.15040497E+03</pdfrwt>
<totfact> 0.78539713E+03</totfact>
</mgrwt>
</event>
<event>
 6    1  0.7457796E-006  0.3168624E+03  0.7546771E-02  0.1078487E+00
          2   -1    0    0  501    0  0.00000000000E+00  0.00000000000E+00  0.23111599723E+04  0.23111599723E+04  0.00000000000E+00 0. -1.
         -2   -1    0    0    0  501 -0.00000000000E+00 -0.00000000000E+00 -0.42820120183E+02  0.42820120183E+02  0.00000000000E+00 0.  1.
          5    1    1    2  502    0  0.51775702937E+02 -0.10315161102E+02  0.28142925231E+03  0.28637674490E+03  0.47000000000E+01 0. -1.
         -5    1    1    2    0  502  0.19748488263E+03  0.16080340266E+03  0.69726253248E+03  0.74233088469E+03  0.47000000000E+01 0. -1.
        -11    1    1    2    0    0 -0.26875726474E+02 -0.18462616732E+02  0.55948445227E+02  0.64756477772E+02  0.00000000000E+00 0.  1.
         11    1    1    2    0    0 -0.22238485909E+03 -0.13202562483E+03  0.12336996222E+04  0.12605159852E+04  0.00000000000E+00 0. -1.
<mgrwt>
<rscale>  0 0.31390901E+03</rscale>
<asrwt>0</asrwt>
<pdfrwt beam="1">  1        2 0.35556298E+00 0.31686240E+03</pdfrwt>
<pdfrwt beam="2">  1       -2 0.65877126E-02 0.31686240E+03</pdfrwt>
<totfact> 0.64575376E+02</totfact>
</mgrwt>
</event>
<event>
 6    1  0.7457796E-006  0.1513175E+03  0.7546771E-02  0.1207231E+00
         -2   -1    0    0    0  501 -0.00000000000E+00  0.00000000000E+00  0.67448807581E+02  0.67448807581E+02  0.00000000000E+00 0.  1.
          2   -1    0    0  501    0  0.00000000000E+00 -0.00000000000E+00 -0.38170386769E+03  0.38170386769E+03  0.00000000000E+00 0. -1.
          5    1    1    2  502    0 -0.33024016084E+02 -0.48201846982E+02  0.90212113021E+01  0.59308312606E+02  0.47000000000E+01 0. -1.
         -5    1    1    2    0  502 -0.51488913090E+02  0.59545941015E+02 -0.64433355334E+02  0.10183601790E+03  0.47000000000E+01 0. -1.
        -11    1    1    2    0    0 -0.52097970767E+01 -0.33388971369E+02 -0.64202039069E+02  0.72552513501E+02  0.00000000000E+00 0.  1.
         11    1    1    2    0    0  0.89722726250E+02  0.22044877336E+02 -0.19464087701E+03  0.21545583126E+03  0.00000000000E+00 0. -1.
<mgrwt>
<rscale>  0 0.14463024E+03</rscale>
<asrwt>0</asrwt>
<pdfrwt beam="2">  1        2 0.58723672E-01 0.15131751E+03</pdfrwt>
<pdfrwt beam="1">  1       -2 0.10376740E-01 0.15131751E+03</pdfrwt>
<totfact> 0.50802785E+03</totfact>
</mgrwt>
</event>
<event>
 6    1  0.7457796E-006  0.1296577E+03  0.7546771E-02  0.1241190E+00
          1   -1    0    0  501    0  0.00000000000E+00  0.00000000000E+00  0.28393121218E+03  0.28393121218E+03  0.00000000000E+00 0. -1.
         -1   -1    0    0    0  501 -0.00000000000E+00 -0.00000000000E+00 -0.48100867479E+02  0.48100867479E+02  0.00000000000E+00 0.  1.
          5    1    1    2  502    0  0.14607107355E+02 -0.25659341419E+02 -0.17235628395E+02  0.34509799673E+02  0.47000000000E+01 0. -1.
         -5    1    1    2    0  502  0.33880208931E+01  0.55047888513E+02  0.11583156740E+03  0.12837753200E+03  0.47000000000E+01 0. -1.
        -11    1    1    2    0    0 -0.45916708909E+02 -0.41733784830E+01  0.28782222605E+02  0.54352346620E+02  0.00000000000E+00 0.  1.
         11    1    1    2    0    0  0.27921580661E+02 -0.25215168612E+02  0.10845218309E+03  0.11479240137E+03  0.00000000000E+00 0. -1.
<mgrwt>
<rscale>  0 0.12116372E+03</rscale>
<asrwt>0</asrwt>
<pdfrwt beam="1">  1        1 0.43681724E-01 0.12965772E+03</pdfrwt>
<pdfrwt beam="2">  1       -1 0.74001336E-02 0.12965772E+03</pdfrwt>
<totfact> 0.86160316E+03</totfact>
</mgrwt>
</event>
<event>
 6    1  0.7457796E-006  0.4647763E+03  0.7546771E-02  0.1023405E+00
         -4   -1    0    0    0  501 -0.00000000000E+00  0.00000000000E+00  0.34115194698E+03  0.34115194698E+03  0.00000000000E+00 0. -1.
          4   -1    0    0  501    0  0.00000000000E+00 -0.00000000000E+00 -0.15829969739E+03  0.15829969739E+03  0.00000000000E+00 0.  1.
          5    1    1    2  502    0  0.39142450603E+02 -0.12428334761E+03  0.18970565786E+03  0.23019298112E+03  0.47000000000E+01 0.  1.
         -5    1    1    2    0  502  0.16740759423E+02  0.27953258236E+02  0.89517822310E+02  0.95379076234E+02  0.47000000000E+01 0.  1.
        -11    1    1    2    0    0  0.18337843682E+02  0.57004947102E+02 -0.30914377756E+02  0.67390943434E+02  0.00000000000E+00 0.  1.
         11    1    1    2    0    0 -0.74221053709E+02  0.39325142270E+02 -0.65456852826E+02  0.10648864357E+03  0.00000000000E+00 0. -1.
<mgrwt>
<rscale>  0 0.46477629E+03</rscale>
<asrwt>0</asrwt>
<pdfrwt beam="2">  1        4 0.24353800E-01 0.46477629E+03</pdfrwt>
<pdfrwt beam="1">  1       -4 0.52484915E-01 0.46477629E+03</pdfrwt>
<totfact> 0.10792608E+02</totfact>
</mgrwt>
</event>
<event>
 6    1  0.7457796E-006  0.1655621E+03  0.7546771E-02  0.1189744E+00
         -1   -1    0    0    0  501 -0.00000000000E+00  0.00000000000E+00  0.24340602203E+03  0.24340602203E+03  0.00000000000E+00 0.  1.
          1   -1    0    0  501    0  0.00000000000E+00 -0.00000000000E+00 -0.12940686526E+03  0.12940686526E+03  0.00000000000E+00 0. -1.
          5    1    1    2  502    0 -0.10717936765E+02  0.46246728023E+02 -0.10510660408E+02  0.48848725711E+02  0.47000000000E+01 0.  1.
         -5    1    1    2    0  502  0.23227775106E+02  0.61592252328E+02  0.16454975402E+03  0.17729028916E+03  0.47000000000E+01 0.  1.
        -11    1    1    2    0    0 -0.12495617591E+02 -0.78294885999E+02  0.18218853129E+02  0.81352051246E+02  0.00000000000E+00 0.  1.
         11    1    1    2    0    0 -0.14220749375E-01 -0.29544094352E+02 -0.58258789970E+02  0.65321821178E+02  0.00000000000E+00 0. -1.
<mgrwt>
<rscale>  0 0.15907601E+03</rscale>
<asrwt>0</asrwt>
<pdfrwt beam="2">  1        1 0.19908749E-01 0.16556211E+03</pdfrwt>
<pdfrwt beam="1">  1       -1 0.37447080E-01 0.16556211E+03</pdfrwt>
<totfact> 0.17547985E+03</totfact>
</mgrwt>
</event>
<event>
 6    1  0.7457796E-006  0.1460966E+03  0.7546771E-02  0.1215716E+00
          4   -1    0    0  501    0  0.00000000000E+00  0.00000000000E+00  0.14657943067E+03  0.14657943067E+03  0.00000000000E+00 0.  1.
         -4   -1    0    0    0  501 -0.00000000000E+00 -0.00000000000E+00 -0.12038902919E+03  0.12038902919E+03  0.00000000000E+00 0. -1.
          5    1    1    2  502    0 -0.36321967301E+02 -0.32583812115E+02 -0.56089344716E+02  0.74492245980E+02  0.47000000000E+01 0.  1.
         -5    1    1    2    0  502 -0.39186282895E+02  0.28502658529E+02  0.52566290591E+02  0.71646850711E+02  0.47000000000E+01 0.  1.
        -11    1    1    2    0    0  0.91616330398E+02  0.19111668933E+01  0.56751931067E+01  0.91811831325E+02  0.00000000000E+00 0. -1.
         11    1    1    2    0    0 -0.16108080201E+02  0.21699866922E+01  0.24038262500E+02  0.29017531839E+02  0.00000000000E+00 0.  1.
<mgrwt>
<rscale>  0 0.13824102E+03</rscale>
<asrwt>0</asrwt>
<pdfrwt beam="1">  1        4 0.22550682E-01 0.14609662E+03</pdfrwt>
<pdfrwt beam="2">  1       -4 0.18521389E-01 0.14609662E+03</pdfrwt>
<totfact> 0.78826833E+02</totfact>
</mgrwt>
</event>
<event>
 6    1  0.7457796E-006  0.2788183E+03  0.7546771E-02  0.1099267E+00
         -2   -1    0    0    0  501 -0.00000000000E+00  0.00000000000E+00  0.93513951480E+03  0.93513951480E+03  0.00000000000E+00 0.  1.
          2   -1    0    0  501    0  0.00000000000E+00 -0.00000000000E+00 -0.87411538180E+02  0.87411538180E+02  0.00000000000E+00 0. -1.
          5    1    1    2  502    0 -0.21633298214E+01  0.77433188192E+01 -0.20028447296E+01  0.95257739456E+01  0.47000000000E+01 0. -1.
         -5    1    1    2    0  502  0.56256897507E+02 -0.24361180252E+03  0.61534727501E+03  0.66421826812E+03  0.47000000000E+01 0.  1.
        -11    1    1    2    0    0 -0.55379062984E+02  0.70549954070E+02  0.10992963359E+03  0.14187551226E+03  0.00000000000E+00 0.  1.
         11    1    1    2    0    0  0.12854952989E+01  0.16531852963E+03  0.12445391275E+03  0.20693149866E+03  0.00000000000E+00 0. -1.
<mgrwt>
<rscale>  0 0.27354681E+03</rscale>
<asrwt>0</asrwt>
<pdfrwt beam="2">  1        2 0.13447930E-01 0.27881830E+03</pdfrwt>
<pdfrwt beam="1">  1       -2 0.14386761E+00 0.27881830E+03</pdfrwt>
<totfact> 0.15727548E+02</totfact>
</mgrwt>
</event>
<event>
 6    1  0.7457796E-006  0.1373304E+03  0.7546771E-02  0.1234638E+00
          1   -1    0    0  501    0  0.00000000000E+00  0.00000000000E+00  0.58973056404E+03  0.58973056404E+03  0.00000000000E+00 0. -1.
         -1   -1    0    0    0  501 -0.00000000000E+00 -0.00000000000E+00 -0.22903319225E+02  0.22903319225E+02  0.00000000000E+00 0.  1.
          5    1    1    2  502    0 -0.58209012677E+02 -0.31508847312E+02  0.30351006789E+03  0.31067917202E+03  0.47000000000E+01 0. -1.
         -5    1    1    2    0  502  0.38686696055E+02  0.14421399096E+02  0.33967006605E+02  0.53670147580E+02  0.47000000000E+01 0.  1.
        -11    1    1    2    0    0  0.36207036430E+02 -0.14303308259E+02  0.40725360438E+02  0.56339054811E+02  0.00000000000E+00 0.  1.
         11    1    1    2    0    0 -0.16684719808E+02  0.31390756475E+02  0.18862480988E+03  0.19194550885E+03  0.00000000000E+00 0. -1.
<mgrwt>
<rscale>  0 0.12527619E+03</rscale>
<asrwt>0</asrwt>
<pdfrwt beam="1">  1        1 0.90727768E-01 0.13733044E+03</pdfrwt>
<pdfrwt beam="2">  1       -1 0.35235880E-02 0.13733044E+03</pdfrwt>
<totfact> 0.10227090E+04</totfact>
</mgrwt>
</event>
<event>
 6    1  0.7457796E-006  0.1301263E+03  0.7546771E-02  0.1240942E+00
          1   -1    0    0  501    0  0.00000000000E+00  0.00000000000E+00  0.16543777270E+03  0.16543777270E+03  0.00000000000E+00 0. -1.
         -1   -1    0    0    0  501 -0.00000000000E+00 -0.00000000000E+00 -0.78873654700E+02  0.78873654700E+02  0.00000000000E+00 0.  1.
          5    1    1    2  502    0 -0.44995311751E+02 -0.53707868260E+02 -0.10966216815E+01  0.70231088356E+02  0.47000000000E+01 0.  1.
         -5    1    1    2    0  502  0.94766135177E+01  0.46877413818E+02  0.48457499869E+02  0.68246006649E+02  0.47000000000E+01 0.  1.
        -11    1    1    2    0    0  0.30861110635E+02 -0.18080327850E+02 -0.20323047989E+02  0.41137971321E+02  0.00000000000E+00 0.  1.
         11    1    1    2    0    0  0.46575875976E+01  0.24910782292E+02  0.59526287806E+02  0.64696361077E+02  0.00000000000E+00 0. -1.
<mgrwt>
<rscale>  0 0.12131611E+03</rscale>
<asrwt>0</asrwt>
<pdfrwt beam="1">  1        1 0.25451965E-01 0.13012630E+03</pdfrwt>
<pdfrwt beam="2">  1       -1 0.12134408E-01 0.13012630E+03</pdfrwt>
<totfact> 0.79368965E+03</totfact>
</mgrwt>
</event>
<event>
 6    1  0.7457796E-006  0.3708047E+03  0.7546771E-02  0.1054386E+00
          2   -1    0    0  501    0  0.00000000000E+00  0.00000000000E+00  0.85006124530E+03  0.85006124530E+03  0.00000000000E+00 0. -1.
         -2   -1    0    0    0  501 -0.00000000000E+00 -0.00000000000E+00 -0.40437123397E+02  0.40437123397E+02  0.00000000000E+00 0.  1.
          5    1    1    2  502    0  0.24410795122E+02 -0.69607827082E+01  0.48995375085E+02  0.55380287053E+02  0.47000000000E+01 0.  1.
         -5    1    1    2    0  502 -0.12133394671E+03  0.94104654713E+02  0.19867649372E+03  0.25114149760E+03  0.47000000000E+01 0.  1.
        -11    1    1    2    0    0  0.54262635674E+02  0.59524181848E+01  0.24002512180E+03  0.24615426872E+03  0.00000000000E+00 0. -1.
         11    1    1    2    0    0  0.42660515909E+02 -0.93096290190E+02  0.32192713130E+03  0.33782231532E+03  0.00000000000E+00 0.  1.
<mgrwt>
<rscale>  0 0.37080470E+03</rscale>
<asrwt>0</asrwt>
<pdfrwt beam="1">  1        2 0.13077864E+00 0.37080470E+03</pdfrwt>
<pdfrwt beam="2">  1       -2 0.62210965E-02 0.37080470E+03</pdfrwt>
<totfact> 0.46099754E+03</totfact>
</mgrwt>
</event>
<event>
 6    1  0.7457796E-006  0.1211465E+03  0.7546771E-02  0.1278373E+00
          4   -1    0    0  501    0  0.00000000000E+00  0.00000000000E+00  0.22210322424E+03  0.22210322424E+03  0.00000000000E+00 0. -1.
         -4   -1    0    0    0  501 -0.00000000000E+00 -0.00000000000E+00 -0.44981277539E+02  0.44981277539E+02  0.00000000000E+00 0.  1.
          5    1    1    2  502    0 -0.39645729492E+02 -0.22428231412E+01  0.70488690745E+02  0.81040481523E+02  0.47000000000E+01 0. -1.
         -5    1    1    2    0  502  0.51021433144E+02  0.61187834351E+01 -0.12762515015E+02  0.53156353716E+02  0.47000000000E+01 0.  1.
        -11    1    1    2    0    0 -0.22907057340E+02 -0.23761356796E+02  0.51145782237E+02  0.60870570832E+02  0.00000000000E+00 0. -1.
         11    1    1    2    0    0  0.11531353687E+02  0.19885396502E+02  0.68249988739E+02  0.72017095712E+02  0.00000000000E+00 0.  1.
<mgrwt>
<rscale>  0 0.10092027E+03</rscale>
<asrwt>0</asrwt>
<pdfrwt beam="1">  1        4 0.34169726E-01 0.12114652E+03</pdfrwt>
<pdfrwt beam="2">  1       -4 0.69201967E-02 0.12114652E+03</pdfrwt>
<totfact> 0.18634994E+03</totfact>
</mgrwt>
</event>
<event>
 6    1  0.7457796E-006  0.2448210E+03  0.7546771E-02  0.1116622E+00
         -2   -1    0    0    0  501 -0.00000000000E+00  0.00000000000E+00  0.13033833546E+03  0.13033833546E+03  0.00000000000E+00 0.  1.
          2   -1    0    0  501    0  0.00000000000E+00 -0.00000000000E+00 -0.11496491661E+03  0.11496491661E+03  0.00000000000E+00 0. -1.
          5    1    1    2  502    0  0.53491103072E+01  0.51630105744E+02  0.75889755609E+02  0.92063162050E+02  0.47000000000E+01 0.  1.
         -5    1    1    2    0  502  0.17903938968E+02 -0.67203241267E+01 -0.42510348398E+02  0.46850117479E+02  0.47000000000E+01 0.  1.
        -11    1    1    2    0    0  0.34491203483E+02 -0.28144141080E+02 -0.43409547531E+01  0.44727840134E+02  0.00000000000E+00 0.  1.
         11    1    1    2    0    0 -0.57744252759E+02 -0.16765640537E+02 -0.13665033616E+02  0.61662132407E+02  0.00000000000E+00 0. -1.
<mgrwt>
<rscale>  0 0.24482104E+03</rscale>
<asrwt>0</asrwt>
<pdfrwt beam="2">  1        2 0.17686910E-01 0.24482104E+03</pdfrwt>
<pdfrwt beam="1">  1       -2 0.20052052E-01 0.24482104E+03</pdfrwt>
<totfact> 0.66078107E+03</totfact>
</mgrwt>
</event>
<event>
 6    1  0.7457796E-006  0.2388476E+03  0.7546771E-02  0.1122024E+00
         -1   -1    0    0    0  501 -0.00000000000E+00  0.00000000000E+00  0.45083780874E+03  0.45083780874E+03  0.00000000000E+00 0.  1.
          1   -1    0    0  501    0  0.00000000000E+00 -0.00000000000E+00 -0.12459091165E+03  0.12459091165E+03  0.00000000000E+00 0. -1.
          5    1    1    2  502    0  0.15404304132E+03 -0.24192360923E+02  0.18658985556E+03  0.24321264997E+03  0.47000000000E+01 0. -1.
         -5    1    1    2    0  502  0.47717469238E+02  0.50979263455E+02  0.20538803862E+02  0.72936785212E+02  0.47000000000E+01 0. -1.
        -11    1    1    2    0    0 -0.11828075492E+03 -0.66670901419E+02  0.53897126257E+02  0.14608301167E+03  0.00000000000E+00 0. -1.
         11    1    1    2    0    0 -0.83479755637E+02  0.39883998887E+02  0.65221111419E+02  0.11319627354E+03  0.00000000000E+00 0.  1.
<mgrwt>
<rscale>  0 0.23668059E+03</rscale>
<asrwt>0</asrwt>
<pdfrwt beam="2">  1        1 0.19167833E-01 0.23884762E+03</pdfrwt>
<pdfrwt beam="1">  1       -1 0.69359662E-01 0.23884762E+03</pdfrwt>
<totfact> 0.59058880E+02</totfact>
</mgrwt>
</event>
<event>
 6    1  0.7457796E-006  0.1284430E+03  0.7546771E-02  0.1241947E+00
          1   -1    0    0  501    0  0.00000000000E+00  0.00000000000E+00  0.72946954614E+03  0.72946954614E+03  0.00000000000E+00 0. -1.
         -1   -1    0    0    0  501 -0.00000000000E+00 -0.00000000000E+00 -0.17926382668E+02  0.17926382668E+02  0.00000000000E+00 0.  1.
          5    1    1    2  502    0  0.77358143626E+01 -0.19847061809E+02  0.37330985289E+03  0.37394663383E+03  0.47000000000E+01 0.  1.
         -5    1    1    2    0  502  0.14325177965E+02  0.39510868991E+02  0.37661385220E+02  0.56628521337E+02  0.47000000000E+01 0.  1.
        -11    1    1    2    0    0  0.30699961734E+02  0.48617335315E+01  0.18321326896E+03  0.18583117614E+03  0.00000000000E+00 0. -1.
         11    1    1    2    0    0 -0.52760954061E+02 -0.24525540714E+02  0.11735865640E+03  0.13098959750E+03  0.00000000000E+00 0.  1.
<mgrwt>
<rscale>  0 0.12069961E+03</rscale>
<asrwt>0</asrwt>
<pdfrwt beam="1">  1        1 0.11222606E+00 0.12844301E+03</pdfrwt>
<pdfrwt beam="2">  1       -1 0.27579056E-02 0.12844301E+03</pdfrwt>
<totfact> 0.10805567E+04</totfact>
</mgrwt>
</event>
<event>
 6    1  0.7457796E-006  0.3043933E+03  0.7546771E-02  0.1083065E+00
         -1   -1    0    0    0  501 -0.00000000000E+00  0.00000000000E+00  0.21234283819E+03  0.21234283819E+03  0.00000000000E+00 0.  1.
          1   -1    0    0  501    0  0.00000000000E+00 -0.00000000000E+00 -0.10908685643E+03  0.10908685643E+03  0.00000000000E+00 0. -1.
          5    1    1    2  502    0  0.19251110114E+02 -0.68807539460E+01 -0.15424501111E+02  0.26037573812E+02  0.47000000000E+01 0. -1.
         -5    1    1    2    0  502 -0.65025792485E+02 -0.39208580959E+02  0.15291619604E+03  0.17079554889E+03  0.47000000000E+01 0. -1.
        -11    1    1    2    0    0 -0.16155654577E+02  0.54603583297E+02 -0.11608782393E+02  0.58114716830E+02  0.00000000000E+00 0.  1.
         11    1    1    2    0    0  0.61930336947E+02 -0.85142483913E+01 -0.22626930770E+02  0.66481855090E+02  0.00000000000E+00 0. -1.
<mgrwt>
<rscale>  0 0.30439325E+03</rscale>
<asrwt>0</asrwt>
<pdfrwt beam="2">  1        1 0.16782593E-01 0.30439325E+03</pdfrwt>
<pdfrwt beam="1">  1       -1 0.32668129E-01 0.30439325E+03</pdfrwt>
<totfact> 0.28319913E+03</totfact>
</mgrwt>
</event>
<event>
 6    1  0.7457796E-006  0.3371589E+03  0.7546771E-02  0.1068012E+00
          1   -1    0    0  501    0  0.00000000000E+00  0.00000000000E+00  0.71328262700E+03  0.71328262700E+03  0.00000000000E+00 0. -1.
         -1   -1    0    0    0  501 -0.00000000000E+00 -0.00000000000E+00 -0.39842588211E+02  0.39842588211E+02  0.00000000000E+00 0.  1.
          5    1    1    2  502    0  0.57601637858E+01 -0.37774748909E+02  0.40063438847E+02  0.55563299706E+02  0.47000000000E+01 0. -1.
         -5    1    1    2    0  502  0.98036906307E+02  0.65999691320E+02  0.13448852018E+03  0.17909898468E+03  0.47000000000E+01 0.  1.
        -11    1    1    2    0    0 -0.51008815626E+02 -0.48917121575E+02  0.38278968366E+03  0.38925920153E+03  0.00000000000E+00 0. -1.
         11    1    1    2    0    0 -0.52788254466E+02  0.20692179164E+02  0.11609839609E+03  0.12920372929E+03  0.00000000000E+00 0.  1.
<mgrwt>
<rscale>  0 0.33715887E+03</rscale>
<asrwt>0</asrwt>
<pdfrwt beam="1">  1        1 0.10973578E+00 0.33715887E+03</pdfrwt>
<pdfrwt beam="2">  1       -1 0.61296295E-02 0.33715887E+03</pdfrwt>
<totfact> 0.35555432E+03</totfact>
</mgrwt>
</event>
<event>
 6    1  0.7457796E-006  0.5125269E+03  0.7546771E-02  0.1010560E+00
          2   -1    0    0  501    0  0.00000000000E+00  0.00000000000E+00  0.11458082526E+03  0.11458082526E+03  0.00000000000E+00 0. -1.
         -2   -1    0    0    0  501 -0.00000000000E+00 -0.00000000000E+00 -0.57314089685E+03  0.57314089685E+03  0.00000000000E+00 0.  1.
          5    1    1    2  502    0  0.11593238123E+03 -0.80945558021E+02 -0.48773296098E+03  0.50783661901E+03  0.47000000000E+01 0.  1.
         -5    1    1    2    0  502 -0.14814870866E+02 -0.19865250398E+01 -0.40770546655E+01  0.16190708917E+02  0.47000000000E+01 0.  1.
        -11    1    1    2    0    0 -0.16923950643E+02  0.39348989125E+02 -0.27678555855E+02  0.50998681402E+02  0.00000000000E+00 0.  1.
         11    1    1    2    0    0 -0.84193559722E+02  0.43583093936E+02  0.60928499912E+02  0.11269571277E+03  0.00000000000E+00 0. -1.
<mgrwt>
<rscale>  0 0.51252690E+03</rscale>
<asrwt>0</asrwt>
<pdfrwt beam="1">  1        2 0.17627819E-01 0.51252690E+03</pdfrwt>
<pdfrwt beam="2">  1       -2 0.88175521E-01 0.51252690E+03</pdfrwt>
<totfact> 0.36958065E+02</totfact>
</mgrwt>
</event>
<event>
 6    1  0.7457796E-006  0.1703498E+03  0.7546771E-02  0.1183787E+00
          2   -1    0    0  501    0  0.00000000000E+00  0.00000000000E+00  0.24427999058E+03  0.24427999058E+03  0.00000000000E+00 0. -1.
         -2   -1    0    0    0  501 -0.00000000000E+00 -0.00000000000E+00 -0.10540470409E+03  0.10540470409E+03  0.00000000000E+00 0.  1.
          5    1    1    2  502    0 -0.44299808620E+02 -0.11417767482E+03  0.25237075841E+02  0.12513198819E+03  0.47000000000E+01 0. -1.
         -5    1    1    2    0  502 -0.34663478112E+02  0.29574906627E+02  0.26407996020E+02  0.52874417922E+02  0.47000000000E+01 0. -1.
        -11    1    1    2    0    0 -0.47601610498E+01  0.10088582231E+02  0.53473845270E+02  0.54625001169E+02  0.00000000000E+00 0. -1.
         11    1    1    2    0    0  0.83723447782E+02  0.74514185962E+02  0.33756369359E+02  0.11705328740E+03  0.00000000000E+00 0.  1.
<mgrwt>
<rscale>  0 0.16442706E+03</rscale>
<asrwt>0</asrwt>
<pdfrwt beam="1">  1        2 0.37581537E-01 0.17034984E+03</pdfrwt>
<pdfrwt beam="2">  1       -2 0.16216108E-01 0.17034984E+03</pdfrwt>
<totfact> 0.39999081E+03</totfact>
</mgrwt>
</event>
<event>
 6    1  0.7457796E-006  0.2046795E+03  0.7546771E-02  0.1149831E+00
          2   -1    0    0  501    0  0.00000000000E+00  0.00000000000E+00  0.46262500704E+03  0.46262500704E+03  0.00000000000E+00 0. -1.
         -2   -1    0    0    0  501 -0.00000000000E+00 -0.00000000000E+00 -0.95072036487E+02  0.95072036487E+02  0.00000000000E+00 0.  1.
          5    1    1    2  502    0 -0.72137537202E+02 -0.66276600188E+02 -0.31509497952E+01  0.98124566193E+02  0.47000000000E+01 0.  1.
         -5    1    1    2    0  502  0.95791249039E+01 -0.83238318423E+02  0.93416531414E+02  0.12557513938E+03  0.47000000000E+01 0.  1.
        -11    1    1    2    0    0  0.61134921575E+02  0.12588383031E+03  0.15248057749E+03  0.20696507890E+03  0.00000000000E+00 0.  1.
         11    1    1    2    0    0  0.14234907232E+01  0.23631088297E+02  0.12480681144E+03  0.12703225906E+03  0.00000000000E+00 0. -1.
<mgrwt>
<rscale>  0 0.19989114E+03</rscale>
<asrwt>0</asrwt>
<pdfrwt beam="1">  1        2 0.71173077E-01 0.20467946E+03</pdfrwt>
<pdfrwt beam="2">  1       -2 0.14626467E-01 0.20467946E+03</pdfrwt>
<totfact> 0.24012654E+03</totfact>
</mgrwt>
</event>
<event>
 6    1  0.7457796E-006  0.1815654E+03  0.7546771E-02  0.1171350E+00
         -2   -1    0    0    0  501 -0.00000000000E+00  0.00000000000E+00  0.42467183795E+02  0.42467183795E+02  0.00000000000E+00 0.  1.
          2   -1    0    0  501    0  0.00000000000E+00 -0.00000000000E+00 -0.69456943439E+03  0.69456943439E+03  0.00000000000E+00 0. -1.
          5    1    1    2  502    0 -0.13457870661E+02 -0.77018654479E+02 -0.29540329841E+03  0.30561116821E+03  0.47000000000E+01 0.  1.
         -5    1    1    2    0  502  0.33230270032E+02 -0.53142285967E+02 -0.36429658602E+02  0.72646840469E+02  0.47000000000E+01 0.  1.
        -11    1    1    2    0    0  0.34899463772E+02  0.28528837738E+02 -0.71148255325E+02  0.84225538823E+02  0.00000000000E+00 0. -1.
         11    1    1    2    0    0 -0.54671863144E+02  0.10163210271E+03 -0.24912103826E+03  0.27455307069E+03  0.00000000000E+00 0.  1.
<mgrwt>
<rscale>  0 0.17638359E+03</rscale>
<asrwt>0</asrwt>
<pdfrwt beam="2">  1        2 0.10685682E+00 0.18156544E+03</pdfrwt>
<pdfrwt beam="1">  1       -2 0.65334138E-02 0.18156544E+03</pdfrwt>
<totfact> 0.53877696E+03</totfact>
</mgrwt>
</event>
<event>
 6    1  0.7457796E-006  0.1388246E+03  0.7546771E-02  0.1226522E+00
         -2   -1    0    0    0  501 -0.00000000000E+00  0.00000000000E+00  0.41266222744E+02  0.41266222744E+02  0.00000000000E+00 0.  1.
          2   -1    0    0  501    0  0.00000000000E+00 -0.00000000000E+00 -0.39882482737E+03  0.39882482737E+03  0.00000000000E+00 0. -1.
          5    1    1    2  502    0 -0.25887266327E+02 -0.19690031668E+02 -0.13864943510E+03  0.14249071464E+03  0.47000000000E+01 0. -1.
         -5    1    1    2    0  502 -0.27144842424E+02  0.48631913347E+02 -0.31953256893E+01  0.55983976031E+02  0.47000000000E+01 0. -1.
        -11    1    1    2    0    0  0.21215817613E+02 -0.42913699875E+02 -0.39660115616E+02  0.62166078569E+02  0.00000000000E+00 0.  1.
         11    1    1    2    0    0  0.31816291139E+02  0.13971818197E+02 -0.17605372822E+03  0.17945028087E+03  0.00000000000E+00 0. -1.
<mgrwt>
<rscale>  0 0.13063101E+03</rscale>
<asrwt>0</asrwt>
<pdfrwt beam="2">  1        2 0.61357665E-01 0.13882459E+03</pdfrwt>
<pdfrwt beam="1">  1       -2 0.63486497E-02 0.13882459E+03</pdfrwt>
<totfact> 0.10322561E+04</totfact>
</mgrwt>
</event>
<event>
 6    1  0.7457796E-006  0.1427640E+03  0.7546771E-02  0.1220469E+00
          1   -1    0    0  501    0  0.00000000000E+00  0.00000000000E+00  0.84723011832E+02  0.84723011832E+02  0.00000000000E+00 0. -1.
         -1   -1    0    0    0  501 -0.00000000000E+00 -0.00000000000E+00 -0.34591600378E+03  0.34591600378E+03  0.00000000000E+00 0.  1.
          5    1    1    2  502    0  0.87732036620E+02  0.52000154192E+02 -0.24831839778E+03  0.26848657873E+03  0.47000000000E+01 0.  1.
         -5    1    1    2    0  502 -0.29174330588E+02 -0.15577041855E+02 -0.32853572439E+02  0.46853313866E+02  0.47000000000E+01 0.  1.
        -11    1    1    2    0    0 -0.62333893894E+01 -0.96160422363E+01  0.48584506058E+02  0.49917708686E+02  0.00000000000E+00 0. -1.
         11    1    1    2    0    0 -0.52324316642E+02 -0.26807070100E+02 -0.28605527795E+02  0.65381414331E+02  0.00000000000E+00 0.  1.
<mgrwt>
<rscale>  0 0.13482351E+03</rscale>
<asrwt>0</asrwt>
<pdfrwt beam="1">  1        1 0.13034310E-01 0.14276404E+03</pdfrwt>
<pdfrwt beam="2">  1       -1 0.53217846E-01 0.14276404E+03</pdfrwt>
<totfact> 0.16075203E+03</totfact>
</mgrwt>
</event>
<event>
 6    1  0.7457796E-006  0.3450374E+03  0.7546771E-02  0.1064671E+00
         -1   -1    0    0    0  501 -0.00000000000E+00  0.00000000000E+00  0.78997559317E+02  0.78997559317E+02  0.00000000000E+00 0.  1.
          1   -1    0    0  501    0  0.00000000000E+00 -0.00000000000E+00 -0.37675464452E+03  0.37675464452E+03  0.00000000000E+00 0. -1.
          5    1    1    2  502    0  0.28046884316E+02 -0.26990537095E+02 -0.78368126352E+02  0.87628591456E+02  0.47000000000E+01 0. -1.
         -5    1    1    2    0  502 -0.65168166584E+01 -0.45780219903E+02  0.42463727019E+02  0.62956775220E+02  0.47000000000E+01 0. -1.
        -11    1    1    2    0    0 -0.69208789446E+02  0.13836035995E+00 -0.12973381164E+03  0.14703991827E+03  0.00000000000E+00 0.  1.
         11    1    1    2    0    0  0.47678721787E+02  0.72632396637E+02 -0.13211887422E+03  0.15812691889E+03  0.00000000000E+00 0. -1.
<mgrwt>
<rscale>  0 0.34503737E+03</rscale>
<asrwt>0</asrwt>
<pdfrwt beam="2">  1        1 0.57962253E-01 0.34503737E+03</pdfrwt>
<pdfrwt beam="1">  1       -1 0.12153471E-01 0.34503737E+03</pdfrwt>
<totfact> 0.29471668E+03</totfact>
</mgrwt>
</event>
<event>
 6    1  0.7457796E-006  0.2304928E+03  0.7546771E-02  0.1129222E+00
         -3   -1    0    0    0  501 -0.00000000000E+00  0.00000000000E+00  0.85670980864E+02  0.85670980864E+02  0.00000000000E+00 0.  1.
          3   -1    0    0  501    0  0.00000000000E+00 -0.00000000000E+00 -0.69719819393E+03  0.69719819393E+03  0.00000000000E+00 0. -1.
          5    1    1    2  502    0  0.10756777256E+01  0.54935561794E+02  0.25450689792E+01  0.55205438213E+02  0.47000000000E+01 0.  1.
         -5    1    1    2    0  502 -0.12904795743E+03  0.90407815502E+02 -0.15546852551E+03  0.22140347975E+03  0.47000000000E+01 0.  1.
        -11    1    1    2    0    0  0.91927503458E+02 -0.35023713056E+02 -0.20930219538E+03  0.23126767037E+03  0.00000000000E+00 0.  1.
         11    1    1    2    0    0  0.36044776251E+02 -0.11031966424E+03 -0.24930156115E+03  0.27499258646E+03  0.00000000000E+00 0. -1.
<mgrwt>
<rscale>  0 0.22636876E+03</rscale>
<asrwt>0</asrwt>
<pdfrwt beam="2">  1        3 0.10726126E+00 0.23049275E+03</pdfrwt>
<pdfrwt beam="1">  1       -3 0.13180151E-01 0.23049275E+03</pdfrwt>
<totfact> 0.88333241E+01</totfact>
</mgrwt>
</event>
<event>
 6    1  0.7457796E-006  0.4042781E+03  0.7546771E-02  0.1042308E+00
         -2   -1    0    0    0  501 -0.00000000000E+00  0.00000000000E+00  0.10358517251E+03  0.10358517251E+03  0.00000000000E+00 0.  1.
          2   -1    0    0  501    0  0.00000000000E+00 -0.00000000000E+00 -0.39445989472E+03  0.39445989472E+03  0.00000000000E+00 0. -1.
          5    1    1    2  502    0 -0.62913365133E+01  0.24550612453E+02  0.19738455593E+01  0.25851490349E+02  0.47000000000E+01 0.  1.
         -5    1    1    2    0  502 -0.12321730835E+03 -0.12668925165E+03 -0.10049827863E+03  0.20335846569E+03  0.47000000000E+01 0.  1.
        -11    1    1    2    0    0  0.89533897473E+02  0.66162110489E+02 -0.61095597164E+02  0.12698982500E+03  0.00000000000E+00 0.  1.
         11    1    1    2    0    0  0.39974747394E+02  0.35976528706E+02 -0.13125469198E+03  0.14184528618E+03  0.00000000000E+00 0. -1.
<mgrwt>
<rscale>  0 0.40427810E+03</rscale>
<asrwt>0</asrwt>
<pdfrwt beam="2">  1        2 0.60686138E-01 0.40427810E+03</pdfrwt>
<pdfrwt beam="1">  1       -2 0.15936180E-01 0.40427810E+03</pdfrwt>
<totfact> 0.25236089E+03</totfact>
</mgrwt>
</event>
<event>
 6    1  0.7457796E-006  0.2282359E+03  0.7546771E-02  0.1127888E+00
         -4   -1    0    0    0  501 -0.00000000000E+00  0.00000000000E+00  0.11585863183E+03  0.11585863183E+03  0.00000000000E+00 0.  1.
          4   -1    0    0  501    0  0.00000000000E+00 -0.00000000000E+00 -0.11240340462E+03  0.11240340462E+03  0.00000000000E+00 0. -1.
          5    1    1    2  502    0  0.66418024674E+01  0.23971576352E+01  0.73780694501E+02  0.74266686918E+02  0.47000000000E+01 0.  1.
         -5    1    1    2    0  502 -0.14788505151E+02 -0.28243971683E+02 -0.46445319355E+02  0.56530341509E+02  0.47000000000E+01 0.  1.
        -11    1    1    2    0    0  0.32085294592E+02 -0.75011880895E+01 -0.41331887225E+02  0.52858857851E+02  0.00000000000E+00 0. -1.
         11    1    1    2    0    0 -0.23938591908E+02  0.33348002138E+02  0.17451739293E+02  0.44606150176E+02  0.00000000000E+00 0.  1.
<mgrwt>
<rscale>  0 0.22823588E+03</rscale>
<asrwt>0</asrwt>
<pdfrwt beam="2">  1        4 0.17292832E-01 0.22823588E+03</pdfrwt>
<pdfrwt beam="1">  1       -4 0.17824405E-01 0.22823588E+03</pdfrwt>
<totfact> 0.14840300E+03</totfact>
</mgrwt>
</event>
<event>
 6    1  0.7457796E-006  0.1339519E+03  0.7546771E-02  0.1231685E+00
         -3   -1    0    0    0  501 -0.00000000000E+00  0.00000000000E+00  0.47629214600E+03  0.47629214600E+03  0.00000000000E+00 0.  1.
          3   -1    0    0  501    0  0.00000000000E+00 -0.00000000000E+00 -0.45323193923E+02  0.45323193923E+02  0.00000000000E+00 0. -1.
          5    1    1    2  502    0 -0.86869583766E+01  0.71731165142E+02  0.11534149341E+03  0.13618580470E+03  0.47000000000E+01 0. -1.
         -5    1    1    2    0  502  0.29968411023E+02 -0.16131355768E+02  0.26165488155E+03  0.26390091576E+03  0.47000000000E+01 0.  1.
        -11    1    1    2    0    0 -0.32784387803E+02 -0.55637643095E+02  0.74133759335E+02  0.98316721293E+02  0.00000000000E+00 0. -1.
         11    1    1    2    0    0  0.11502935156E+02  0.37833721045E-01 -0.20161182218E+02  0.23211898177E+02  0.00000000000E+00 0.  1.
<mgrwt>
<rscale>  0 0.12719052E+03</rscale>
<asrwt>0</asrwt>
<pdfrwt beam="2">  1        3 0.69727994E-02 0.13395192E+03</pdfrwt>
<pdfrwt beam="1">  1       -3 0.73275711E-01 0.13395192E+03</pdfrwt>
<totfact> 0.55709438E+02</totfact>
</mgrwt>
</event>
<event>
 6    1  0.7457796E-006  0.1258045E+03  0.7546771E-02  0.1249959E+00
          1   -1    0    0  501    0  0.00000000000E+00  0.00000000000E+00  0.12278852601E+03  0.12278852601E+03  0.00000000000E+00 0. -1.
         -1   -1    0    0    0  501 -0.00000000000E+00 -0.00000000000E+00 -0.96773777694E+02  0.96773777694E+02  0.00000000000E+00 0.  1.
          5    1    1    2  502    0 -0.26100255030E+02 -0.54510036888E+02 -0.15028211790E+02  0.62454019757E+02  0.47000000000E+01 0. -1.
         -5    1    1    2    0  502  0.12670944299E+02  0.59388679826E+02  0.17513877163E+02  0.63375026739E+02  0.47000000000E+01 0. -1.
        -11    1    1    2    0    0  0.28663514724E+02 -0.34136145616E+02  0.37169307632E+02  0.58038185221E+02  0.00000000000E+00 0. -1.
         11    1    1    2    0    0 -0.15234203994E+02  0.29257502679E+02 -0.13640224693E+02  0.35695071985E+02  0.00000000000E+00 0.  1.
<mgrwt>
<rscale>  0 0.11593439E+03</rscale>
<asrwt>0</asrwt>
<pdfrwt beam="1">  1        1 0.18890543E-01 0.12580449E+03</pdfrwt>
<pdfrwt beam="2">  1       -1 0.14888273E-01 0.12580449E+03</pdfrwt>
<totfact> 0.83952383E+03</totfact>
</mgrwt>
</event>
<event>
 6    1  0.7457796E-006  0.2782782E+03  0.7546771E-02  0.1096633E+00
         -1   -1    0    0    0  501 -0.00000000000E+00  0.00000000000E+00  0.23858261272E+03  0.23858261272E+03  0.00000000000E+00 0.  1.
          1   -1    0    0  501    0  0.00000000000E+00 -0.00000000000E+00 -0.81144571896E+02  0.81144571896E+02  0.00000000000E+00 0. -1.
          5    1    1    2  502    0  0.10137354707E+02 -0.19937834698E+02  0.12796256415E+03  0.12998765725E+03  0.47000000000E+01 0. -1.
         -5    1    1    2    0  502 -0.48327504284E+02  0.57420267680E+02  0.37063123878E+02  0.83835553093E+02  0.47000000000E+01 0. -1.
        -11    1    1    2    0    0  0.59863625904E+02 -0.94863852369E+01 -0.26053218855E+02  0.65972838532E+02  0.00000000000E+00 0. -1.
         11    1    1    2    0    0 -0.21673476326E+02 -0.27996047745E+02  0.18465571651E+02  0.39931135744E+02  0.00000000000E+00 0.  1.
<mgrwt>
<rscale>  0 0.27827816E+03</rscale>
<asrwt>0</asrwt>
<pdfrwt beam="2">  1        1 0.12483780E-01 0.27827816E+03</pdfrwt>
<pdfrwt beam="1">  1       -1 0.36705017E-01 0.27827816E+03</pdfrwt>
<totfact> 0.34084267E+03</totfact>
</mgrwt>
</event>
<event>
 6    1  0.7457796E-006  0.3756159E+03  0.7546771E-02  0.1052566E+00
          2   -1    0    0  501    0  0.00000000000E+00  0.00000000000E+00  0.35294734470E+03  0.35294734470E+03  0.00000000000E+00 0. -1.
         -2   -1    0    0    0  501 -0.00000000000E+00 -0.00000000000E+00 -0.99935079827E+02  0.99935079827E+02  0.00000000000E+00 0.  1.
          5    1    1    2  502    0 -0.20907745403E+02  0.12788148510E+02 -0.10025201540E+01  0.24975299935E+02  0.47000000000E+01 0.  1.
         -5    1    1    2    0  502  0.11999072004E+03 -0.98098024399E+02  0.37923116441E+02  0.15962846879E+03  0.47000000000E+01 0.  1.
        -11    1    1    2    0    0 -0.16852897915E+02  0.73533458652E+02  0.92462841435E+02  0.11933384581E+03  0.00000000000E+00 0. -1.
         11    1    1    2    0    0 -0.82230076725E+02  0.11776417237E+02  0.12362882715E+03  0.14894480999E+03  0.00000000000E+00 0.  1.
<mgrwt>
<rscale>  0 0.37561587E+03</rscale>
<asrwt>0</asrwt>
<pdfrwt beam="1">  1        2 0.54299591E-01 0.37561587E+03</pdfrwt>
<pdfrwt beam="2">  1       -2 0.15374628E-01 0.37561587E+03</pdfrwt>
<totfact> 0.30240108E+03</totfact>
</mgrwt>
</event>
<event>
 6    1  0.7457796E-006  0.1355951E+03  0.7546771E-02  0.1234404E+00
         -4   -1    0    0    0  501 -0.00000000000E+00  0.00000000000E+00  0.27062030412E+03  0.27062030412E+03  0.00000000000E+00 0.  1.
          4   -1    0    0  501    0  0.00000000000E+00 -0.00000000000E+00 -0.54837274226E+02  0.54837274226E+02  0.00000000000E+00 0. -1.
          5    1    1    2  502    0 -0.12785496380E+01  0.43298169300E+02  0.10994425777E+03  0.11826324860E+03  0.47000000000E+01 0.  1.
         -5    1    1    2    0  502 -0.48080139770E+02 -0.61332985512E+02  0.56242470256E+02  0.96222348821E+02  0.47000000000E+01 0.  1.
        -11    1    1    2    0    0  0.73142278644E+02  0.94774372498E+01  0.40259307882E+02  0.84026344757E+02  0.00000000000E+00 0.  1.
         11    1    1    2    0    0 -0.23783589236E+02  0.85573789620E+01  0.93369939891E+01  0.26945636166E+02  0.00000000000E+00 0. -1.
<mgrwt>
<rscale>  0 0.12542673E+03</rscale>
<asrwt>0</asrwt>
<pdfrwt beam="2">  1        4 0.84365039E-02 0.13559514E+03</pdfrwt>
<pdfrwt beam="1">  1       -4 0.41633892E-01 0.13559514E+03</pdfrwt>
<totfact> 0.93766540E+02</totfact>
</mgrwt>
</event>
<event>
 6    1  0.7457796E-006  0.1290134E+03  0.7546771E-02  0.1242349E+00
         -3   -1    0    0    0  501 -0.00000000000E+00  0.00000000000E+00  0.98340492610E+03  0.98340492610E+03  0.00000000000E+00 0.  1.
          3   -1    0    0  501    0  0.00000000000E+00 -0.00000000000E+00 -0.33813208484E+02  0.33813208484E+02  0.00000000000E+00 0. -1.
          5    1    1    2  502    0  0.24037356463E+02  0.73897866534E+02  0.63706616756E+03  0.64180532954E+03  0.47000000000E+01 0.  1.
         -5    1    1    2    0  502 -0.54401236316E+01 -0.47973595689E+02  0.25942046150E+03  0.26391689350E+03  0.47000000000E+01 0.  1.
        -11    1    1    2    0    0  0.29899927502E+02 -0.25041248076E+02 -0.76227888486E+00  0.39008343196E+02  0.00000000000E+00 0. -1.
         11    1    1    2    0    0 -0.48497160334E+02 -0.88302276961E+00  0.53867367446E+02  0.72487568350E+02  0.00000000000E+00 0.  1.
<mgrwt>
<rscale>  0 0.12045459E+03</rscale>
<asrwt>0</asrwt>
<pdfrwt beam="2">  1        3 0.52020328E-02 0.12901345E+03</pdfrwt>
<pdfrwt beam="1">  1       -3 0.15129304E+00 0.12901345E+03</pdfrwt>
<totfact> 0.16721061E+02</totfact>
</mgrwt>
</event>
<event>
 6    1  0.7457796E-006  0.1293919E+03  0.7546771E-02  0.1242596E+00
         -1   -1    0    0    0  501 -0.00000000000E+00  0.00000000000E+00  0.36332346549E+02  0.36332346549E+02  0.00000000000E+00 0.  1.
          1   -1    0    0  501    0  0.00000000000E+00 -0.00000000000E+00 -0.39095163696E+03  0.39095163696E+03  0.00000000000E+00 0. -1.
          5    1    1    2  502    0  0.32372754043E+02  0.71453593026E+02 -0.10909090729E+03  0.13444897625E+03  0.47000000000E+01 0. -1.
         -5    1    1    2    0  502 -0.18333009012E+02 -0.41118894767E+02 -0.24248968220E+02  0.51351389329E+02  0.47000000000E+01 0. -1.
        -11    1    1    2    0    0 -0.25514313351E+02  0.21152528042E+02 -0.36407874564E+02  0.49233555210E+02  0.00000000000E+00 0.  1.
         11    1    1    2    0    0  0.11474568320E+02 -0.51487226301E+02 -0.18487154034E+03  0.19225006272E+03  0.00000000000E+00 0. -1.
<mgrwt>
<rscale>  0 0.12030405E+03</rscale>
<asrwt>0</asrwt>
<pdfrwt beam="2">  1        1 0.60146405E-01 0.12939186E+03</pdfrwt>
<pdfrwt beam="1">  1       -1 0.55895918E-02 0.12939186E+03</pdfrwt>
<totfact> 0.87992725E+03</totfact>
</mgrwt>
</event>
<event>
 6    1  0.7457796E-006  0.1249877E+03  0.7546771E-02  0.1249771E+00
         -2   -1    0    0    0  501 -0.00000000000E+00  0.00000000000E+00  0.39017677695E+03  0.39017677695E+03  0.00000000000E+00 0.  1.
          2   -1    0    0  501    0  0.00000000000E+00 -0.00000000000E+00 -0.30558223707E+02  0.30558223707E+02  0.00000000000E+00 0. -1.
          5    1    1    2  502    0  0.61282577726E+02 -0.33514620948E+01  0.13641994489E+03  0.14966388340E+03  0.47000000000E+01 0. -1.
         -5    1    1    2    0  502 -0.59935332123E+02 -0.95817649730E+01  0.84231739210E+02  0.10392848573E+03  0.47000000000E+01 0. -1.
        -11    1    1    2    0    0 -0.34014216756E+02  0.35019780931E+02  0.50265923005E+02  0.70071499296E+02  0.00000000000E+00 0. -1.
         11    1    1    2    0    0  0.32666971153E+02 -0.22086553863E+02  0.88700946133E+02  0.97071132222E+02  0.00000000000E+00 0.  1.
<mgrwt>
<rscale>  0 0.11604315E+03</rscale>
<asrwt>0</asrwt>
<pdfrwt beam="2">  1        2 0.47012655E-02 0.12498770E+03</pdfrwt>
<pdfrwt beam="1">  1       -2 0.60027193E-01 0.12498770E+03</pdfrwt>
<totfact> 0.42573125E+03</totfact>
</mgrwt>
</event>
<event>
 6    1  0.7457796E-006  0.1449699E+03  0.7546771E-02  0.1216665E+00
         -1   -1    0    0    0  501 -0.00000000000E+00  0.00000000000E+00  0.79375349824E+02  0.79375349824E+02  0.00000000000E+00 0.  1.
          1   -1    0    0  501    0  0.00000000000E+00 -0.00000000000E+00 -0.27333294722E+03  0.27333294722E+03  0.00000000000E+00 0. -1.
          5    1    1    2  502    0  0.43273553008E+01 -0.21045517180E+02  0.30045657819E+02  0.37235350825E+02  0.47000000000E+01 0.  1.
         -5    1    1    2    0  502 -0.13432258923E+02  0.93904704345E+02 -0.55344402592E+02  0.10992548374E+03  0.47000000000E+01 0.  1.
        -11    1    1    2    0    0  0.17529954294E+02 -0.57129016812E+02 -0.17628773123E+03  0.18614077480E+03  0.00000000000E+00 0. -1.
         11    1    1    2    0    0 -0.84250506717E+01 -0.15730170353E+02  0.76288786018E+01  0.19406687685E+02  0.00000000000E+00 0.  1.
<mgrwt>
<rscale>  0 0.13754946E+03</rscale>
<asrwt>0</asrwt>
<pdfrwt beam="2">  1        1 0.42051223E-01 0.14496994E+03</pdfrwt>
<pdfrwt beam="1">  1       -1 0.12211592E-01 0.14496994E+03</pdfrwt>
<totfact> 0.42409609E+03</totfact>
</mgrwt>
</event>
<event>
 6    1  0.7457796E-006  0.2134406E+03  0.7546771E-02  0.1141672E+00
          2   -1    0    0  501    0  0.00000000000E+00  0.00000000000E+00  0.10966103485E+04  0.10966103485E+04  0.00000000000E+00 0.  1.
         -2   -1    0    0    0  501 -0.00000000000E+00 -0.00000000000E+00 -0.38984094404E+02  0.38984094404E+02  0.00000000000E+00 0. -1.
          5    1    1    2  502    0 -0.99191351062E+02  0.40620841109E+02  0.41576423879E+03  0.42938440717E+03  0.47000000000E+01 0. -1.
         -5    1    1    2    0  502 -0.28589005175E+02  0.76016457804E+02  0.10075206403E+03  0.12949479326E+03  0.47000000000E+01 0. -1.
        -11    1    1    2    0    0  0.14041669840E+03 -0.86358418253E+02  0.47728279634E+03  0.50494900067E+03  0.00000000000E+00 0.  1.
         11    1    1    2    0    0 -0.12636342167E+02 -0.30278880660E+02  0.63827154937E+02  0.71766241818E+02  0.00000000000E+00 0. -1.
<mgrwt>
<rscale>  0 0.20986681E+03</rscale>
<asrwt>0</asrwt>
<pdfrwt beam="1">  1        2 0.16870926E+00 0.21344055E+03</pdfrwt>
<pdfrwt beam="2">  1       -2 0.59975538E-02 0.21344055E+03</pdfrwt>
<totfact> 0.33809849E+03</totfact>
</mgrwt>
</event>
<event>
 6    1  0.7457796E-006  0.1300192E+03  0.7546771E-02  0.1240850E+00
          2   -1    0    0  501    0  0.00000000000E+00  0.00000000000E+00  0.20975388580E+03  0.20975388580E+03  0.00000000000E+00 0. -1.
         -2   -1    0    0    0  501 -0.00000000000E+00 -0.00000000000E+00 -0.69795385375E+02  0.69795385375E+02  0.00000000000E+00 0.  1.
          5    1    1    2  502    0  0.29161001405E+02 -0.15137753072E+02  0.68459447237E+02  0.76080887791E+02  0.47000000000E+01 0. -1.
         -5    1    1    2    0  502 -0.42368736013E+02 -0.18107254889E+02 -0.35143373539E+02  0.58138878340E+02  0.47000000000E+01 0. -1.
        -11    1    1    2    0    0 -0.33357619197E+00  0.32624260169E+02  0.12115485917E+03  0.12547092701E+03  0.00000000000E+00 0. -1.
         11    1    1    2    0    0  0.13541310799E+02  0.62074779185E+00 -0.14512432444E+02  0.19858578031E+02  0.00000000000E+00 0.  1.
<mgrwt>
<rscale>  0 0.12137250E+03</rscale>
<asrwt>0</asrwt>
<pdfrwt beam="1">  1        2 0.32269828E-01 0.13001917E+03</pdfrwt>
<pdfrwt beam="2">  1       -2 0.10737752E-01 0.13001917E+03</pdfrwt>
<totfact> 0.90202152E+03</totfact>
</mgrwt>
</event>
<event>
 6    1  0.7457796E-006  0.1388223E+03  0.7546771E-02  0.1223671E+00
          1   -1    0    0  501    0  0.00000000000E+00  0.00000000000E+00  0.15480669261E+03  0.15480669261E+03  0.00000000000E+00 0. -1.
         -1   -1    0    0    0  501 -0.00000000000E+00 -0.00000000000E+00 -0.19337465271E+03  0.19337465271E+03  0.00000000000E+00 0.  1.
          5    1    1    2  502    0  0.15229178472E+02 -0.11653199893E+02  0.20899466429E+02  0.28750698108E+02  0.47000000000E+01 0. -1.
         -5    1    1    2    0  502  0.21774551288E+02 -0.46254161997E+02 -0.15892361343E+03  0.16701012991E+03  0.47000000000E+01 0.  1.
        -11    1    1    2    0    0 -0.28177963614E+01 -0.25342205910E+02  0.22668951139E+02  0.34118158251E+02  0.00000000000E+00 0.  1.
         11    1    1    2    0    0 -0.34185933399E+02  0.83249567799E+02  0.76787235766E+02  0.11830235905E+03  0.00000000000E+00 0. -1.
<mgrwt>
<rscale>  0 0.13258394E+03</rscale>
<asrwt>0</asrwt>
<pdfrwt beam="1">  1        1 0.23816414E-01 0.13882232E+03</pdfrwt>
<pdfrwt beam="2">  1       -1 0.29749947E-01 0.13882232E+03</pdfrwt>
<totfact> 0.20587190E+03</totfact>
</mgrwt>
</event>
<event>
 6    1  0.7457796E-006  0.2408887E+03  0.7546771E-02  0.1119202E+00
          1   -1    0    0  501    0  0.00000000000E+00  0.00000000000E+00  0.88159779373E+02  0.88159779373E+02  0.00000000000E+00 0. -1.
         -1   -1    0    0    0  501 -0.00000000000E+00 -0.00000000000E+00 -0.16455167517E+03  0.16455167517E+03  0.00000000000E+00 0.  1.
          5    1    1    2  502    0  0.97157709366E+01 -0.46589455383E+02  0.27176013343E+02  0.55005447539E+02  0.47000000000E+01 0. -1.
         -5    1    1    2    0  502  0.50587906788E+01  0.12641690346E+02 -0.94398995574E+02  0.95491696306E+02  0.47000000000E+01 0.  1.
        -11    1    1    2    0    0  0.13334715154E+02  0.28296734003E+02 -0.45944594755E+02  0.55582601331E+02  0.00000000000E+00 0.  1.
         11    1    1    2    0    0 -0.28109276770E+02  0.56510310336E+01  0.36775681185E+02  0.46631709371E+02  0.00000000000E+00 0. -1.
<mgrwt>
<rscale>  0 0.24088868E+03</rscale>
<asrwt>0</asrwt>
<pdfrwt beam="1">  1        1 0.13563043E-01 0.24088868E+03</pdfrwt>
<pdfrwt beam="2">  1       -1 0.25315642E-01 0.24088868E+03</pdfrwt>
<totfact> 0.57240944E+03</totfact>
</mgrwt>
</event>
<event>
 6    1  0.7457796E-006  0.1367106E+03  0.7546771E-02  0.1229792E+00
          3   -1    0    0  501    0  0.00000000000E+00  0.00000000000E+00  0.87935702288E+02  0.87935702288E+02  0.00000000000E+00 0. -1.
         -3   -1    0    0    0  501 -0.00000000000E+00 -0.00000000000E+00 -0.19020478419E+03  0.19020478419E+03  0.00000000000E+00 0.  1.
          5    1    1    2  502    0 -0.26156039222E+00 -0.47605630660E+02 -0.17786162598E+02  0.51037261529E+02  0.47000000000E+01 0.  1.
         -5    1    1    2    0  502 -0.51700709209E+02  0.66749615292E+02 -0.85969902141E+02  0.12058767992E+03  0.47000000000E+01 0.  1.
        -11    1    1    2    0    0 -0.15154344924E+02  0.92151843534E+01 -0.23541137220E+02  0.29474716867E+02  0.00000000000E+00 0.  1.
         11    1    1    2    0    0  0.67116614525E+02 -0.28359168986E+02  0.25028120055E+02  0.77040828165E+02  0.00000000000E+00 0. -1.
<mgrwt>
<rscale>  0 0.12843826E+03</rscale>
<asrwt>0</asrwt>
<pdfrwt beam="1">  1        3 0.13528570E-01 0.13671064E+03</pdfrwt>
<pdfrwt beam="2">  1       -3 0.29262274E-01 0.13671064E+03</pdfrwt>
<totfact> 0.11491388E+03</totfact>
</mgrwt>
</event>
<event>
 6    1  0.9470404E-006  0.1948381E+03  0.7546771E-02  0.1158599E+00
         -1   -1    0    0    0  501 -0.00000000000E+00  0.00000000000E+00  0.34792587047E+03  0.34792587047E+03  0.00000000000E+00 0.  1.
          1   -1    0    0  501    0  0.00000000000E+00 -0.00000000000E+00 -0.11288363758E+03  0.11288363758E+03  0.00000000000E+00 0. -1.
          5    1    1    2  502    0  0.83987805799E+02  0.28727217157E+02  0.75571061554E+02  0.11667167554E+03  0.47000000000E+01 0. -1.
         -5    1    1    2    0  502  0.52336382595E+02 -0.89990303416E+02  0.12908409756E+03  0.16589799847E+03  0.47000000000E+01 0. -1.
        -11    1    1    2    0    0 -0.80447320802E+02  0.69754178359E+02  0.51024318507E+02  0.11807157957E+03  0.00000000000E+00 0.  1.
         11    1    1    2    0    0 -0.55876867592E+02 -0.84910920999E+01 -0.20637244723E+02  0.60168254476E+02  0.00000000000E+00 0. -1.
<mgrwt>
<rscale>  0 0.18984772E+03</rscale>
<asrwt>0</asrwt>
<pdfrwt beam="2">  1        1 0.17366714E-01 0.19483810E+03</pdfrwt>
<pdfrwt beam="1">  1       -1 0.53527056E-01 0.19483810E+03</pdfrwt>
<totfact> 0.11038382E+03</totfact>
</mgrwt>
</event>
<event>
 6    1  0.7457796E-006  0.3185910E+03  0.7546771E-02  0.1123862E+00
         -2   -1    0    0    0  501 -0.00000000000E+00  0.00000000000E+00  0.33327060886E+03  0.33327060886E+03  0.00000000000E+00 0.  1.
          2   -1    0    0  501    0  0.00000000000E+00 -0.00000000000E+00 -0.17429913116E+03  0.17429913116E+03  0.00000000000E+00 0. -1.
          5    1    1    2  502    0 -0.60476244039E+02  0.14158391712E+03  0.33984383633E+02  0.15773525291E+03  0.47000000000E+01 0. -1.
         -5    1    1    2    0  502  0.41702970731E+02 -0.12388655364E+03  0.19420056918E+03  0.23414304818E+03  0.47000000000E+01 0.  1.
        -11    1    1    2    0    0  0.84820625365E+01 -0.53959171978E+02 -0.46098928935E+02  0.71474812867E+02  0.00000000000E+00 0.  1.
         11    1    1    2    0    0  0.10291210771E+02  0.36261808502E+02 -0.23114546175E+02  0.44216626057E+02  0.00000000000E+00 0. -1.
<mgrwt>
<rscale>  0 0.23399123E+03</rscale>
<asrwt>0</asrwt>
<pdfrwt beam="2">  1        2 0.26815251E-01 0.31859101E+03</pdfrwt>
<pdfrwt beam="1">  1       -2 0.51272401E-01 0.31859101E+03</pdfrwt>
<totfact> 0.72829773E+02</totfact>
</mgrwt>
</event>
<event>
 6    1  0.7457796E-006  0.1948058E+03  0.7546771E-02  0.1158603E+00
         -2   -1    0    0    0  501 -0.00000000000E+00  0.00000000000E+00  0.49422825421E+03  0.49422825421E+03  0.00000000000E+00 0.  1.
          2   -1    0    0  501    0  0.00000000000E+00 -0.00000000000E+00 -0.69495652877E+02  0.69495652877E+02  0.00000000000E+00 0. -1.
          5    1    1    2  502    0 -0.59332824492E+02 -0.36562676452E+02  0.66781782894E+02  0.96639070246E+02  0.47000000000E+01 0. -1.
         -5    1    1    2    0  502  0.50711761921E+02 -0.11260440742E+03  0.16451688503E+03  0.20576523231E+03  0.47000000000E+01 0. -1.
        -11    1    1    2    0    0  0.12532266994E+02  0.30922132480E+02  0.11408685318E+03  0.11886566393E+03  0.00000000000E+00 0.  1.
         11    1    1    2    0    0 -0.39112044228E+01  0.11824495139E+03  0.79347080217E+02  0.14245394059E+03  0.00000000000E+00 0. -1.
<mgrwt>
<rscale>  0 0.18984346E+03</rscale>
<asrwt>0</asrwt>
<pdfrwt beam="2">  1        2 0.10691639E-01 0.19480577E+03</pdfrwt>
<pdfrwt beam="1">  1       -2 0.76035114E-01 0.19480577E+03</pdfrwt>
<totfact> 0.92990505E+02</totfact>
</mgrwt>
</event>
<event>
 6    1  0.7457796E-006  0.3468939E+03  0.7546771E-02  0.1063897E+00
         -1   -1    0    0    0  501 -0.00000000000E+00  0.00000000000E+00  0.18025826492E+04  0.18025826492E+04  0.00000000000E+00 0.  1.
          1   -1    0    0  501    0  0.00000000000E+00 -0.00000000000E+00 -0.16689304138E+02  0.16689304138E+02  0.00000000000E+00 0. -1.
          5    1    1    2  502    0  0.81540545546E+01 -0.23601860452E+02  0.69973134602E+03  0.70019253283E+03  0.47000000000E+01 0. -1.
         -5    1    1    2    0  502 -0.11038753346E+03  0.12820896060E+02  0.68620331457E+03  0.69515959452E+03  0.47000000000E+01 0. -1.
        -11    1    1    2    0    0  0.52049250073E+02 -0.40801462332E+02  0.23080428546E+03  0.24009269450E+03  0.00000000000E+00 0.  1.
         11    1    1    2    0    0  0.50184228836E+02  0.51582426723E+02  0.16915439896E+03  0.18382713145E+03  0.00000000000E+00 0. -1.
<mgrwt>
<rscale>  0 0.34689393E+03</rscale>
<asrwt>0</asrwt>
<pdfrwt beam="2">  1        1 0.25675867E-02 0.34689393E+03</pdfrwt>
<pdfrwt beam="1">  1       -1 0.27732025E+00 0.34689393E+03</pdfrwt>
<totfact> 0.22613069E+02</totfact>
</mgrwt>
</event>
<event>
 6    1  0.7457796E-006  0.1480637E+03  0.7546771E-02  0.1209703E+00
          2   -1    0    0  501    0  0.00000000000E+00  0.00000000000E+00  0.69158256424E+02  0.69158256424E+02  0.00000000000E+00 0. -1.
         -2   -1    0    0    0  501 -0.00000000000E+00 -0.00000000000E+00 -0.12049522680E+04  0.12049522680E+04  0.00000000000E+00 0.  1.
          5    1    1    2  502    0 -0.23119355493E+02 -0.32749997250E+02 -0.24164771713E+03  0.24499546141E+03  0.47000000000E+01 0. -1.
         -5    1    1    2    0  502  0.10371180013E+03  0.21399734873E+02 -0.89500527287E+03  0.90126056976E+03  0.47000000000E+01 0.  1.
        -11    1    1    2    0    0 -0.66310639645E+02 -0.14449854860E+01  0.44713860657E+02  0.79990738514E+02  0.00000000000E+00 0. -1.
         11    1    1    2    0    0 -0.14281804995E+02  0.12795247862E+02 -0.43854882222E+02  0.47863754726E+02  0.00000000000E+00 0.  1.
<mgrwt>
<rscale>  0 0.14272928E+03</rscale>
<asrwt>0</asrwt>
<pdfrwt beam="1">  1        2 0.10639732E-01 0.14806373E+03</pdfrwt>
<pdfrwt beam="2">  1       -2 0.18537727E+00 0.14806373E+03</pdfrwt>
<totfact> 0.10715965E+02</totfact>
</mgrwt>
</event>
<event>
 6    1  0.7457796E-006  0.1357492E+03  0.7546771E-02  0.1225590E+00
         -1   -1    0    0    0  501 -0.00000000000E+00  0.00000000000E+00  0.28689223631E+02  0.28689223631E+02  0.00000000000E+00 0.  1.
          1   -1    0    0  501    0  0.00000000000E+00 -0.00000000000E+00 -0.59579012154E+03  0.59579012154E+03  0.00000000000E+00 0. -1.
          5    1    1    2  502    0  0.12647739741E+02  0.38601150417E+02 -0.40895241524E+02  0.57831867628E+02  0.47000000000E+01 0. -1.
         -5    1    1    2    0  502 -0.86344088660E+02 -0.23427580956E+02 -0.18881710301E+03  0.20899316157E+03  0.47000000000E+01 0.  1.
        -11    1    1    2    0    0 -0.14172958228E+02  0.93710229099E+01 -0.15199343671E+02  0.22797124015E+02  0.00000000000E+00 0.  1.
         11    1    1    2    0    0  0.87869307146E+02 -0.24544592371E+02 -0.32218920971E+03  0.33485719195E+03  0.00000000000E+00 0. -1.
<mgrwt>
<rscale>  0 0.13126522E+03</rscale>
<asrwt>0</asrwt>
<pdfrwt beam="2">  1        1 0.91660013E-01 0.13574916E+03</pdfrwt>
<pdfrwt beam="1">  1       -1 0.44137270E-02 0.13574916E+03</pdfrwt>
<totfact> 0.72414755E+03</totfact>
</mgrwt>
</event>
<event>
 6    1  0.7457796E-006  0.3633526E+03  0.7546771E-02  0.1057264E+00
          1   -1    0    0  501    0  0.00000000000E+00  0.00000000000E+00  0.56332954019E+02  0.56332954019E+02  0.00000000000E+00 0. -1.
         -1   -1    0    0    0  501 -0.00000000000E+00 -0.00000000000E+00 -0.58591413549E+03  0.58591413549E+03  0.00000000000E+00 0.  1.
          5    1    1    2  502    0 -0.10273182546E+03  0.37051108691E+02 -0.46125070216E+03  0.47402627866E+03  0.47000000000E+01 0. -1.
         -5    1    1    2    0  502  0.11043080382E+02 -0.23471000185E+02 -0.24298767673E+02  0.35851883974E+02  0.47000000000E+01 0. -1.
        -11    1    1    2    0    0  0.35877938270E+02  0.33089147889E+02 -0.31293991083E+01  0.48907170244E+02  0.00000000000E+00 0. -1.
         11    1    1    2    0    0  0.55810806811E+02 -0.46669256394E+02 -0.40902312525E+02  0.83461756626E+02  0.00000000000E+00 0.  1.
<mgrwt>
<rscale>  0 0.36335258E+03</rscale>
<asrwt>0</asrwt>
<pdfrwt beam="1">  1        1 0.86666087E-02 0.36335258E+03</pdfrwt>
<pdfrwt beam="2">  1       -1 0.90140632E-01 0.36335258E+03</pdfrwt>
<totfact> 0.98993293E+02</totfact>
</mgrwt>
</event>
<event>
 6    1  0.7457796E-006  0.1383436E+03  0.7546771E-02  0.1227064E+00
         -2   -1    0    0    0  501 -0.00000000000E+00  0.00000000000E+00  0.92700320030E+02  0.92700320030E+02  0.00000000000E+00 0.  1.
          2   -1    0    0  501    0  0.00000000000E+00 -0.00000000000E+00 -0.16501174483E+03  0.16501174483E+03  0.00000000000E+00 0. -1.
          5    1    1    2  502    0 -0.70267719812E+01 -0.54296046510E+01 -0.73133196707E+02  0.73820123217E+02  0.47000000000E+01 0. -1.
         -5    1    1    2    0  502  0.24139959759E+02 -0.51321574858E+02  0.38603654211E+02  0.68767534648E+02  0.47000000000E+01 0. -1.
        -11    1    1    2    0    0  0.22704686458E+01 -0.23472869014E+02 -0.19478444878E+02  0.30586605279E+02  0.00000000000E+00 0. -1.
         11    1    1    2    0    0 -0.19383656423E+02  0.80224048523E+02 -0.18303437429E+02  0.84537801719E+02  0.00000000000E+00 0.  1.
<mgrwt>
<rscale>  0 0.13026410E+03</rscale>
<asrwt>0</asrwt>
<pdfrwt beam="2">  1        2 0.25386422E-01 0.13834360E+03</pdfrwt>
<pdfrwt beam="1">  1       -2 0.14261588E-01 0.13834360E+03</pdfrwt>
<totfact> 0.74669179E+03</totfact>
</mgrwt>
</event>
<event>
 6    1  0.7457796E-006  0.1659304E+03  0.7546771E-02  0.1190084E+00
         -3   -1    0    0    0  501 -0.00000000000E+00  0.00000000000E+00  0.10148533481E+03  0.10148533481E+03  0.00000000000E+00 0.  1.
          3   -1    0    0  501    0  0.00000000000E+00 -0.00000000000E+00 -0.23512545317E+03  0.23512545317E+03  0.00000000000E+00 0. -1.
          5    1    1    2  502    0  0.14447564555E+02 -0.52943233367E+02  0.34016697615E+02  0.64737499160E+02  0.47000000000E+01 0. -1.
         -5    1    1    2    0  502  0.69598366281E+02 -0.16653446533E+02 -0.80013796806E+02  0.10745030270E+03  0.47000000000E+01 0. -1.
        -11    1    1    2    0    0 -0.99393856523E+02  0.47868588134E+02 -0.58158564447E+02  0.12471150333E+03  0.00000000000E+00 0.  1.
         11    1    1    2    0    0  0.15347925686E+02  0.21728091765E+02 -0.29484454727E+02  0.39711482788E+02  0.00000000000E+00 0. -1.
<mgrwt>
<rscale>  0 0.15877781E+03</rscale>
<asrwt>0</asrwt>
<pdfrwt beam="2">  1        3 0.36173147E-01 0.16593043E+03</pdfrwt>
<pdfrwt beam="1">  1       -3 0.15613128E-01 0.16593043E+03</pdfrwt>
<totfact> 0.62226089E+02</totfact>
</mgrwt>
</event>
<event>
 6    1  0.7457796E-006  0.1274831E+03  0.7546771E-02  0.1245786E+00
          2   -1    0    0  501    0  0.00000000000E+00  0.00000000000E+00  0.41511555344E+02  0.41511555344E+02  0.00000000000E+00 0. -1.
         -2   -1    0    0    0  501 -0.00000000000E+00 -0.00000000000E+00 -0.33702619724E+03  0.33702619724E+03  0.00000000000E+00 0.  1.
          5    1    1    2  502    0  0.17161486590E+02  0.29202596244E+02 -0.49081988249E+01  0.34546905289E+02  0.47000000000E+01 0.  1.
         -5    1    1    2    0  502  0.60154461500E+01 -0.37376757832E+02 -0.22616542729E+03  0.22936019297E+03  0.47000000000E+01 0.  1.
        -11    1    1    2    0    0 -0.27165159634E+01  0.43453966202E+02 -0.68696091265E+01  0.44077411077E+02  0.00000000000E+00 0. -1.
         11    1    1    2    0    0 -0.20460416777E+02 -0.35279804614E+02 -0.57571406651E+02  0.70553243243E+02  0.00000000000E+00 0.  1.
<mgrwt>
<rscale>  0 0.11838441E+03</rscale>
<asrwt>0</asrwt>
<pdfrwt beam="1">  1        2 0.63863930E-02 0.12748308E+03</pdfrwt>
<pdfrwt beam="2">  1       -2 0.51850186E-01 0.12748308E+03</pdfrwt>
<totfact> 0.38561043E+03</totfact>
</mgrwt>
</event>
<event>
 6    1  0.7457796E-006  0.1436102E+03  0.7546771E-02  0.1219483E+00
         -2   -1    0    0    0  501 -0.00000000000E+00  0.00000000000E+00  0.32492406235E+02  0.32492406235E+02  0.00000000000E+00 0.  1.
          2   -1    0    0  501    0  0.00000000000E+00 -0.00000000000E+00 -0.54758514005E+03  0.54758514005E+03  0.00000000000E+00 0. -1.
          5    1    1    2  502    0 -0.75286711915E+02  0.21798525679E+02 -0.19850374446E+03  0.21346918109E+03  0.47000000000E+01 0.  1.
         -5    1    1    2    0  502  0.65553646514E+01 -0.38403169971E+02 -0.11405943104E+02  0.40865166189E+02  0.47000000000E+01 0.  1.
        -11    1    1    2    0    0  0.18270482922E+02 -0.61167527952E+01 -0.42062604045E+01  0.19720999913E+02  0.00000000000E+00 0.  1.
         11    1    1    2    0    0  0.50460864341E+02  0.22721397088E+02 -0.30097678585E+03  0.30602219909E+03  0.00000000000E+00 0. -1.
<mgrwt>
<rscale>  0 0.13552348E+03</rscale>
<asrwt>0</asrwt>
<pdfrwt beam="2">  1        2 0.84243870E-01 0.14361018E+03</pdfrwt>
<pdfrwt beam="1">  1       -2 0.49988316E-02 0.14361018E+03</pdfrwt>
<totfact> 0.10512636E+04</totfact>
</mgrwt>
</event>
<event>
 6    1  0.7457796E-006  0.1378623E+03  0.7546771E-02  0.1227711E+00
         -1   -1    0    0    0  501 -0.00000000000E+00  0.00000000000E+00  0.54390211970E+03  0.54390211970E+03  0.00000000000E+00 0.  1.
          1   -1    0    0  501    0  0.00000000000E+00 -0.00000000000E+00 -0.32153930352E+02  0.32153930352E+02  0.00000000000E+00 0. -1.
          5    1    1    2  502    0 -0.44655557411E+02 -0.42097454458E+02  0.12188374136E+03  0.13654321985E+03  0.47000000000E+01 0. -1.
         -5    1    1    2    0  502  0.69374914351E+02 -0.10539068340E+02  0.26484727409E+03  0.27402576393E+03  0.47000000000E+01 0. -1.
        -11    1    1    2    0    0  0.12466627170E+02 -0.19961103596E+02  0.12898680015E+02  0.26837257608E+02  0.00000000000E+00 0.  1.
         11    1    1    2    0    0 -0.37185984109E+02  0.72597626394E+02  0.11211849388E+03  0.13864980866E+03  0.00000000000E+00 0. -1.
<mgrwt>
<rscale>  0 0.12982840E+03</rscale>
<asrwt>0</asrwt>
<pdfrwt beam="2">  1        1 0.49467589E-02 0.13786229E+03</pdfrwt>
<pdfrwt beam="1">  1       -1 0.83677242E-01 0.13786229E+03</pdfrwt>
<totfact> 0.24289014E+03</totfact>
</mgrwt>
</event>
<event>
 6    1  0.7457796E-006  0.1724781E+03  0.7546771E-02  0.1181672E+00
          1   -1    0    0  501    0  0.00000000000E+00  0.00000000000E+00  0.39008062782E+03  0.39008062782E+03  0.00000000000E+00 0. -1.
         -1   -1    0    0    0  501 -0.00000000000E+00 -0.00000000000E+00 -0.78450293001E+02  0.78450293001E+02  0.00000000000E+00 0.  1.
          5    1    1    2  502    0 -0.47165890529E+02  0.55614458117E+02 -0.19164229665E+01  0.73098234302E+02  0.47000000000E+01 0. -1.
         -5    1    1    2    0  502 -0.71408746101E+02 -0.47629549429E+02  0.75531128372E+02  0.11443261926E+03  0.47000000000E+01 0. -1.
        -11    1    1    2    0    0  0.10768133329E+03  0.68197905322E+01  0.23937596184E+03  0.26256928645E+03  0.00000000000E+00 0. -1.
         11    1    1    2    0    0  0.10893303339E+02 -0.14804699220E+02 -0.13603324265E+01  0.18430780801E+02  0.00000000000E+00 0.  1.
<mgrwt>
<rscale>  0 0.16638415E+03</rscale>
<asrwt>0</asrwt>
<pdfrwt beam="1">  1        1 0.60012403E-01 0.17247810E+03</pdfrwt>
<pdfrwt beam="2">  1       -1 0.12069276E-01 0.17247810E+03</pdfrwt>
<totfact> 0.27901345E+03</totfact>
</mgrwt>
</event>
<event>
 6    1  0.7457796E-006  0.1462054E+03  0.7546771E-02  0.1213156E+00
         -2   -1    0    0    0  501 -0.00000000000E+00  0.00000000000E+00  0.63937125854E+02  0.63937125854E+02  0.00000000000E+00 0.  1.
          2   -1    0    0  501    0  0.00000000000E+00 -0.00000000000E+00 -0.39854860012E+03  0.39854860012E+03  0.00000000000E+00 0. -1.
          5    1    1    2  502    0 -0.32887305283E+02  0.26097804186E+01 -0.27669230847E+02  0.43313532969E+02  0.47000000000E+01 0. -1.
         -5    1    1    2    0  502  0.99402462748E+02  0.45454836326E+02 -0.26169667739E+02  0.11248970289E+03  0.47000000000E+01 0.  1.
        -11    1    1    2    0    0 -0.87250270529E+02 -0.47254884477E+02 -0.25479802723E+03  0.27343677239E+03  0.00000000000E+00 0. -1.
         11    1    1    2    0    0  0.20735113064E+02 -0.80973226828E+00 -0.25974548446E+02  0.33245717726E+02  0.00000000000E+00 0.  1.
<mgrwt>
<rscale>  0 0.14012888E+03</rscale>
<asrwt>0</asrwt>
<pdfrwt beam="2">  1        2 0.61315168E-01 0.14620541E+03</pdfrwt>
<pdfrwt beam="1">  1       -2 0.98364811E-02 0.14620541E+03</pdfrwt>
<totfact> 0.52675768E+03</totfact>
</mgrwt>
</event>
<event>
 6    1  0.7457796E-006  0.3003318E+03  0.7546771E-02  0.1085075E+00
          2   -1    0    0  501    0  0.00000000000E+00  0.00000000000E+00  0.66252629648E+03  0.66252629648E+03  0.00000000000E+00 0. -1.
         -2   -1    0    0    0  501 -0.00000000000E+00 -0.00000000000E+00 -0.34036087737E+02  0.34036087737E+02  0.00000000000E+00 0.  1.
          5    1    1    2  502    0 -0.27926716579E+02 -0.25151990524E+02  0.10200144724E+03  0.10880675239E+03  0.47000000000E+01 0.  1.
         -5    1    1    2    0  502  0.93425040091E+02 -0.12453600541E+02  0.74158777684E+02  0.12002060069E+03  0.47000000000E+01 0.  1.
        -11    1    1    2    0    0 -0.10567114428E+02  0.50456150965E+02  0.11931195360E+03  0.12997241765E+03  0.00000000000E+00 0.  1.
         11    1    1    2    0    0 -0.54931209084E+02 -0.12850559899E+02  0.33301803022E+03  0.33776261349E+03  0.00000000000E+00 0. -1.
<mgrwt>
<rscale>  0 0.30033184E+03</rscale>
<asrwt>0</asrwt>
<pdfrwt beam="1">  1        2 0.10192711E+00 0.30033184E+03</pdfrwt>
<pdfrwt beam="2">  1       -2 0.52363217E-02 0.30033184E+03</pdfrwt>
<totfact> 0.81790192E+03</totfact>
</mgrwt>
</event>
<event>
 6    1  0.7457796E-006  0.3635496E+03  0.7546771E-02  0.1057187E+00
          2   -1    0    0  501    0  0.00000000000E+00  0.00000000000E+00  0.36760785732E+03  0.36760785732E+03  0.00000000000E+00 0. -1.
         -2   -1    0    0    0  501 -0.00000000000E+00 -0.00000000000E+00 -0.89884016984E+02  0.89884016984E+02  0.00000000000E+00 0.  1.
          5    1    1    2  502    0  0.16089667906E+02 -0.31360126414E+02 -0.25296835935E+01  0.35648621868E+02  0.47000000000E+01 0. -1.
         -5    1    1    2    0  502 -0.48247710031E+02  0.80941731134E+02 -0.24319413874E+02  0.97431664532E+02  0.47000000000E+01 0.  1.
        -11    1    1    2    0    0 -0.21327863400E+02 -0.41685543893E+02  0.73888286916E+02  0.87475946810E+02  0.00000000000E+00 0.  1.
         11    1    1    2    0    0  0.53485905525E+02 -0.78960608273E+01  0.23068465089E+03  0.23693564110E+03  0.00000000000E+00 0. -1.
<mgrwt>
<rscale>  0 0.36354956E+03</rscale>
<asrwt>0</asrwt>
<pdfrwt beam="1">  1        2 0.56555054E-01 0.36354956E+03</pdfrwt>
<pdfrwt beam="2">  1       -2 0.13828311E-01 0.36354956E+03</pdfrwt>
<totfact> 0.34467938E+03</totfact>
</mgrwt>
</event>
<event>
 6    1  0.7457796E-006  0.1519198E+03  0.7546771E-02  0.1206847E+00
          1   -1    0    0  501    0  0.00000000000E+00  0.00000000000E+00  0.17149591385E+03  0.17149591385E+03  0.00000000000E+00 0. -1.
         -1   -1    0    0    0  501 -0.00000000000E+00 -0.00000000000E+00 -0.11642085249E+03  0.11642085249E+03  0.00000000000E+00 0.  1.
          5    1    1    2  502    0  0.25409594265E+02 -0.24859578855E+02  0.10785670771E+02  0.37444182933E+02  0.47000000000E+01 0.  1.
         -5    1    1    2    0  502 -0.25756381606E+02  0.11125173918E+03 -0.72043198949E+01  0.11451782782E+03  0.47000000000E+01 0.  1.
        -11    1    1    2    0    0  0.16404094466E+02 -0.10003880141E+03  0.29692523717E+02  0.10563381119E+03  0.00000000000E+00 0.  1.
         11    1    1    2    0    0 -0.16057307126E+02  0.13646641084E+02  0.21801186768E+02  0.30320944403E+02  0.00000000000E+00 0. -1.
<mgrwt>
<rscale>  0 0.14492826E+03</rscale>
<asrwt>0</asrwt>
<pdfrwt beam="1">  1        1 0.26383987E-01 0.15191980E+03</pdfrwt>
<pdfrwt beam="2">  1       -1 0.17910900E-01 0.15191980E+03</pdfrwt>
<totfact> 0.41626930E+03</totfact>
</mgrwt>
</event>
<event>
 6    1  0.7457796E-006  0.1717843E+03  0.7546771E-02  0.1182217E+00
         -2   -1    0    0    0  501 -0.00000000000E+00  0.00000000000E+00  0.52990265961E+02  0.52990265961E+02  0.00000000000E+00 0.  1.
          2   -1    0    0  501    0  0.00000000000E+00 -0.00000000000E+00 -0.49956823924E+03  0.49956823924E+03  0.00000000000E+00 0. -1.
          5    1    1    2  502    0 -0.45064566451E+02 -0.82594381229E+02 -0.18261840415E+03  0.20548532428E+03  0.47000000000E+01 0.  1.
         -5    1    1    2    0  502  0.38637532216E+02 -0.35065525880E+02 -0.11326851648E+02  0.53598857910E+02  0.47000000000E+01 0.  1.
        -11    1    1    2    0    0 -0.41300060286E+02  0.42670013807E+02 -0.11873979384E+03  0.13276130347E+03  0.00000000000E+00 0.  1.
         11    1    1    2    0    0  0.47727094522E+02  0.74989893302E+02 -0.13389292363E+03  0.16071301953E+03  0.00000000000E+00 0. -1.
<mgrwt>
<rscale>  0 0.16587663E+03</rscale>
<asrwt>0</asrwt>
<pdfrwt beam="2">  1        2 0.76856654E-01 0.17178432E+03</pdfrwt>
<pdfrwt beam="1">  1       -2 0.81523484E-02 0.17178432E+03</pdfrwt>
<totfact> 0.55721404E+03</totfact>
</mgrwt>
</event>
<event>
 6    1  0.7457796E-006  0.1836864E+03  0.7546771E-02  0.1169299E+00
          2   -1    0    0  501    0  0.00000000000E+00  0.00000000000E+00  0.85367143626E+02  0.85367143626E+02  0.00000000000E+00 0. -1.
         -2   -1    0    0    0  501 -0.00000000000E+00 -0.00000000000E+00 -0.35911199649E+03  0.35911199649E+03  0.00000000000E+00 0.  1.
          5    1    1    2  502    0 -0.50496501585E+02 -0.11899752456E+03 -0.51679508171E+02  0.13929525867E+03  0.47000000000E+01 0.  1.
         -5    1    1    2    0  502  0.40766178528E+02 -0.15250666943E+02 -0.64823602789E+02  0.78221823250E+02  0.47000000000E+01 0.  1.
        -11    1    1    2    0    0 -0.27493788008E+02  0.11347473023E+02 -0.56110568267E+02  0.63506451596E+02  0.00000000000E+00 0.  1.
         11    1    1    2    0    0  0.37224111066E+02  0.12290071848E+03 -0.10113117364E+03  0.16345560660E+03  0.00000000000E+00 0. -1.
<mgrwt>
<rscale>  0 0.17846290E+03</rscale>
<asrwt>0</asrwt>
<pdfrwt beam="1">  1        2 0.13133407E-01 0.18368643E+03</pdfrwt>
<pdfrwt beam="2">  1       -2 0.55247999E-01 0.18368643E+03</pdfrwt>
<totfact> 0.14141910E+03</totfact>
</mgrwt>
</event>
<event>
 6    1  0.7457796E-006  0.1563925E+03  0.7546771E-02  0.1202006E+00
         -2   -1    0    0    0  501 -0.00000000000E+00  0.00000000000E+00  0.10543208770E+03  0.10543208770E+03  0.00000000000E+00 0.  1.
          2   -1    0    0  501    0  0.00000000000E+00 -0.00000000000E+00 -0.27179801162E+03  0.27179801162E+03  0.00000000000E+00 0. -1.
          5    1    1    2  502    0 -0.26082708734E+02  0.18895955314E+02 -0.47501921599E+02  0.57583742304E+02  0.47000000000E+01 0.  1.
         -5    1    1    2    0  502 -0.65598546966E+02 -0.43501380106E+02  0.60424731137E+02  0.99341721186E+02  0.47000000000E+01 0.  1.
        -11    1    1    2    0    0 -0.93509243203E+01 -0.15724196397E+02 -0.17305392596E+02  0.25182667667E+02  0.00000000000E+00 0.  1.
         11    1    1    2    0    0  0.10103218002E+03  0.40329621189E+02 -0.16198334086E+03  0.19512196817E+03  0.00000000000E+00 0. -1.
<mgrwt>
<rscale>  0 0.14875898E+03</rscale>
<asrwt>0</asrwt>
<pdfrwt beam="2">  1        2 0.41815079E-01 0.15639246E+03</pdfrwt>
<pdfrwt beam="1">  1       -2 0.16220321E-01 0.15639246E+03</pdfrwt>
<totfact> 0.35521264E+03</totfact>
</mgrwt>
</event>
<event>
 6    1  0.7457796E-006  0.1381466E+03  0.7546771E-02  0.1227397E+00
         -1   -1    0    0    0  501 -0.00000000000E+00  0.00000000000E+00  0.74690201203E+02  0.74690201203E+02  0.00000000000E+00 0.  1.
          1   -1    0    0  501    0  0.00000000000E+00 -0.00000000000E+00 -0.20824634274E+03  0.20824634274E+03  0.00000000000E+00 0. -1.
          5    1    1    2  502    0  0.47497497221E+02  0.32988574458E+02 -0.57359136642E+02  0.81586879113E+02  0.47000000000E+01 0. -1.
         -5    1    1    2    0  502 -0.61796812720E+02  0.24039778898E+02  0.37900849133E+01  0.66582368353E+02  0.47000000000E+01 0. -1.
        -11    1    1    2    0    0  0.59464911398E+01 -0.44983370737E+02  0.75612432962E+01  0.46000399998E+02  0.00000000000E+00 0.  1.
         11    1    1    2    0    0  0.83528243597E+01 -0.12044982619E+02 -0.87548333109E+02  0.88766896483E+02  0.00000000000E+00 0. -1.
<mgrwt>
<rscale>  0 0.13003967E+03</rscale>
<asrwt>0</asrwt>
<pdfrwt beam="2">  1        1 0.32037899E-01 0.13814660E+03</pdfrwt>
<pdfrwt beam="1">  1       -1 0.11490800E-01 0.13814660E+03</pdfrwt>
<totfact> 0.65068489E+03</totfact>
</mgrwt>
</event>
<event>
 6    1  0.7457796E-006  0.2540900E+03  0.7546771E-02  0.1113042E+00
         -1   -1    0    0    0  501 -0.00000000000E+00  0.00000000000E+00  0.74672861913E+03  0.74672861913E+03  0.00000000000E+00 0.  1.
          1   -1    0    0  501    0  0.00000000000E+00 -0.00000000000E+00 -0.97927456903E+02  0.97927456903E+02  0.00000000000E+00 0. -1.
          5    1    1    2  502    0  0.47358152218E+01  0.31677852597E+02  0.12630908962E+02  0.34749736002E+02  0.47000000000E+01 0. -1.
         -5    1    1    2    0  502 -0.11993462141E+03  0.15713153763E+03  0.49184735728E+03  0.53010427879E+03  0.47000000000E+01 0. -1.
        -11    1    1    2    0    0 -0.94164023856E+01 -0.15168014556E+02 -0.56250812371E+01  0.18718409077E+02  0.00000000000E+00 0. -1.
         11    1    1    2    0    0  0.12461520858E+03 -0.17364137567E+03  0.14994797722E+03  0.26108365216E+03  0.00000000000E+00 0.  1.
<mgrwt>
<rscale>  0 0.25041567E+03</rscale>
<asrwt>0</asrwt>
<pdfrwt beam="2">  1        1 0.15065763E-01 0.25409002E+03</pdfrwt>
<pdfrwt beam="1">  1       -1 0.11488132E+00 0.25409002E+03</pdfrwt>
<totfact> 0.27269926E+02</totfact>
</mgrwt>
</event>
<event>
 6    1  0.7457796E-006  0.2547281E+03  0.7546771E-02  0.1110353E+00
          1   -1    0    0  501    0  0.00000000000E+00  0.00000000000E+00  0.35709482374E+02  0.35709482374E+02  0.00000000000E+00 0. -1.
         -1   -1    0    0    0  501 -0.00000000000E+00 -0.00000000000E+00 -0.45426592237E+03  0.45426592237E+03  0.00000000000E+00 0.  1.
          5    1    1    2  502    0 -0.17289826912E+02 -0.67200407393E+02 -0.31247137967E+02  0.76245042459E+02  0.47000000000E+01 0. -1.
         -5    1    1    2    0  502  0.17634089823E+02  0.59365428995E+01 -0.15550414080E+03  0.15668385836E+03  0.47000000000E+01 0. -1.
        -11    1    1    2    0    0  0.40874003444E+02  0.11985617043E+02 -0.59668561678E+02  0.73312184704E+02  0.00000000000E+00 0.  1.
         11    1    1    2    0    0 -0.41218266355E+02  0.49278247451E+02 -0.17213659956E+03  0.18373431922E+03  0.00000000000E+00 0. -1.
<mgrwt>
<rscale>  0 0.25472810E+03</rscale>
<asrwt>0</asrwt>
<pdfrwt beam="1">  1        1 0.54937673E-02 0.25472810E+03</pdfrwt>
<pdfrwt beam="2">  1       -1 0.69887056E-01 0.25472810E+03</pdfrwt>
<totfact> 0.31225150E+03</totfact>
</mgrwt>
</event>
<event>
 6    1  0.7457796E-006  0.2383375E+03  0.7546771E-02  0.1123399E+00
          2   -1    0    0  501    0  0.00000000000E+00  0.00000000000E+00  0.59992814929E+03  0.59992814929E+03  0.00000000000E+00 0. -1.
         -2   -1    0    0    0  501 -0.00000000000E+00 -0.00000000000E+00 -0.90012042191E+02  0.90012042191E+02  0.00000000000E+00 0.  1.
          5    1    1    2  502    0  0.41398916128E+02  0.61052434250E+02  0.17063003976E+03  0.18595152716E+03  0.47000000000E+01 0.  1.
         -5    1    1    2    0  502  0.10511654811E+03  0.79354824677E+02  0.56879553718E+02  0.14354111089E+03  0.47000000000E+01 0.  1.
        -11    1    1    2    0    0 -0.96762156738E+01 -0.30577412628E+02  0.53683262303E+01  0.32518090954E+02  0.00000000000E+00 0.  1.
         11    1    1    2    0    0 -0.13683924856E+03 -0.10982984630E+03  0.27703818740E+03  0.32792946248E+03  0.00000000000E+00 0. -1.
<mgrwt>
<rscale>  0 0.23466524E+03</rscale>
<asrwt>0</asrwt>
<pdfrwt beam="1">  1        2 0.92296636E-01 0.23833754E+03</pdfrwt>
<pdfrwt beam="2">  1       -2 0.13848007E-01 0.23833754E+03</pdfrwt>
<totfact> 0.19656644E+03</totfact>
</mgrwt>
</event>
<event>
 6    1  0.7457796E-006  0.1335220E+03  0.7546771E-02  0.1234866E+00
          2   -1    0    0  501    0  0.00000000000E+00  0.00000000000E+00  0.62367734402E+03  0.62367734402E+03  0.00000000000E+00 0.  1.
         -2   -1    0    0    0  501 -0.00000000000E+00 -0.00000000000E+00 -0.22451725373E+02  0.22451725373E+02  0.00000000000E+00 0. -1.
          5    1    1    2  502    0 -0.50511757084E+02 -0.19493714132E+02  0.13538292122E+03  0.14588374773E+03  0.47000000000E+01 0. -1.
         -5    1    1    2    0  502  0.76580784422E+02 -0.19512467405E+02  0.19240074397E+03  0.20805165034E+03  0.47000000000E+01 0. -1.
        -11    1    1    2    0    0 -0.44110163618E+02 -0.72146772345E-01  0.60082530658E+02  0.74536046513E+02  0.00000000000E+00 0. -1.
         11    1    1    2    0    0  0.18041136279E+02  0.39078328310E+02  0.21335942280E+03  0.21765762481E+03  0.00000000000E+00 0.  1.
<mgrwt>
<rscale>  0 0.12513014E+03</rscale>
<asrwt>0</asrwt>
<pdfrwt beam="1">  1        2 0.95950347E-01 0.13352204E+03</pdfrwt>
<pdfrwt beam="2">  1       -2 0.34541121E-02 0.13352204E+03</pdfrwt>
<totfact> 0.15652807E+04</totfact>
</mgrwt>
</event>
<event>
 6    1  0.7457796E-006  0.1350807E+03  0.7546771E-02  0.1232275E+00
          1   -1    0    0  501    0  0.00000000000E+00  0.00000000000E+00  0.90568392940E+03  0.90568392940E+03  0.00000000000E+00 0. -1.
         -1   -1    0    0    0  501 -0.00000000000E+00 -0.00000000000E+00 -0.16058644802E+02  0.16058644802E+02  0.00000000000E+00 0.  1.
          5    1    1    2  502    0 -0.13507166578E+02  0.42397800950E+02  0.47150472159E+02  0.65002108421E+02  0.47000000000E+01 0. -1.
         -5    1    1    2    0  502  0.38013824038E+02  0.25442023337E+01  0.40714236535E+03  0.40894806449E+03  0.47000000000E+01 0. -1.
        -11    1    1    2    0    0 -0.66388362501E+01  0.25903462297E+02  0.64373759800E+02  0.69706846554E+02  0.00000000000E+00 0.  1.
         11    1    1    2    0    0 -0.17867821210E+02 -0.70845465581E+02  0.37095868728E+03  0.37808555473E+03  0.00000000000E+00 0. -1.
<mgrwt>
<rscale>  0 0.12680524E+03</rscale>
<asrwt>0</asrwt>
<pdfrwt beam="1">  1        1 0.13933595E+00 0.13508066E+03</pdfrwt>
<pdfrwt beam="2">  1       -1 0.24705615E-02 0.13508066E+03</pdfrwt>
<totfact> 0.91555539E+03</totfact>
</mgrwt>
</event>
<event>
 6    1  0.7457796E-006  0.1272588E+03  0.7546771E-02  0.1239210E+00
          1   -1    0    0  501    0  0.00000000000E+00  0.00000000000E+00  0.71847915429E+02  0.71847915429E+02  0.00000000000E+00 0. -1.
         -1   -1    0    0    0  501 -0.00000000000E+00 -0.00000000000E+00 -0.24736750797E+03  0.24736750797E+03  0.00000000000E+00 0.  1.
          5    1    1    2  502    0  0.54499457731E+02  0.22977502488E+02 -0.59458518459E+02  0.83997392405E+02  0.47000000000E+01 0.  1.
         -5    1    1    2    0  502 -0.65387269108E+02 -0.17249256891E+01 -0.10762331886E+03  0.12602912001E+03  0.47000000000E+01 0.  1.
        -11    1    1    2    0    0  0.41598150158E+02  0.24681970383E+02  0.12732524184E+02  0.50017226340E+02  0.00000000000E+00 0. -1.
         11    1    1    2    0    0 -0.30710338782E+02 -0.45934547182E+02 -0.21170279411E+02  0.59171684641E+02  0.00000000000E+00 0.  1.
<mgrwt>
<rscale>  0 0.12238700E+03</rscale>
<asrwt>0</asrwt>
<pdfrwt beam="1">  1        1 0.11053525E-01 0.12725877E+03</pdfrwt>
<pdfrwt beam="2">  1       -1 0.38056540E-01 0.12725877E+03</pdfrwt>
<totfact> 0.36180410E+03</totfact>
</mgrwt>
</event>
<event>
 6    1  0.7457796E-006  0.2374818E+03  0.7546771E-02  0.1124231E+00
         -1   -1    0    0    0  501 -0.00000000000E+00  0.00000000000E+00  0.68495073564E+02  0.68495073564E+02  0.00000000000E+00 0.  1.
          1   -1    0    0  501    0  0.00000000000E+00 -0.00000000000E+00 -0.81574150030E+03  0.81574150030E+03  0.00000000000E+00 0. -1.
          5    1    1    2  502    0 -0.28878203274E+02 -0.15957954920E+03 -0.26336631310E+03  0.30932747699E+03  0.47000000000E+01 0. -1.
         -5    1    1    2    0  502  0.36191694543E+02 -0.42213662675E+02 -0.17501406650E+02  0.58482658157E+02  0.47000000000E+01 0. -1.
        -11    1    1    2    0    0 -0.46186239407E+02  0.11606183249E+03 -0.22511896767E+03  0.25745303898E+03  0.00000000000E+00 0. -1.
         11    1    1    2    0    0  0.38872748138E+02  0.85731379383E+02 -0.24125973932E+03  0.25897339974E+03  0.00000000000E+00 0.  1.
<mgrwt>
<rscale>  0 0.23345558E+03</rscale>
<asrwt>0</asrwt>
<pdfrwt beam="2">  1        1 0.12549869E+00 0.23748183E+03</pdfrwt>
<pdfrwt beam="1">  1       -1 0.10537704E-01 0.23748183E+03</pdfrwt>
<totfact> 0.12564105E+03</totfact>
</mgrwt>
</event>
<event>
 6    1  0.7457796E-006  0.2913786E+03  0.7546771E-02  0.1089632E+00
         -4   -1    0    0    0  501 -0.00000000000E+00  0.00000000000E+00  0.20288132482E+03  0.20288132482E+03  0.00000000000E+00 0.  1.
          4   -1    0    0  501    0  0.00000000000E+00 -0.00000000000E+00 -0.10461966555E+03  0.10461966555E+03  0.00000000000E+00 0. -1.
          5    1    1    2  502    0 -0.60425221668E+01  0.22253172727E+01  0.10401205501E+03  0.10431712084E+03  0.47000000000E+01 0.  1.
         -5    1    1    2    0  502  0.54744099744E+02 -0.60720894760E+02  0.12686593082E+02  0.82867262301E+02  0.47000000000E+01 0.  1.
        -11    1    1    2    0    0  0.92216015654E+01  0.19925988474E+02  0.28795824213E+02  0.36211634100E+02  0.00000000000E+00 0.  1.
         11    1    1    2    0    0 -0.57923179143E+02  0.38569589013E+02 -0.47232813039E+02  0.84104973136E+02  0.00000000000E+00 0. -1.
<mgrwt>
<rscale>  0 0.29137863E+03</rscale>
<asrwt>0</asrwt>
<pdfrwt beam="2">  1        4 0.16095333E-01 0.29137863E+03</pdfrwt>
<pdfrwt beam="1">  1       -4 0.31212511E-01 0.29137863E+03</pdfrwt>
<totfact> 0.61975950E+02</totfact>
</mgrwt>
</event>
<event>
 6    1  0.7457796E-006  0.1342208E+03  0.7546771E-02  0.1225328E+00
          2   -1    0    0  501    0  0.00000000000E+00  0.00000000000E+00  0.13780803854E+03  0.13780803854E+03  0.00000000000E+00 0. -1.
         -2   -1    0    0    0  501 -0.00000000000E+00 -0.00000000000E+00 -0.12157403916E+03  0.12157403916E+03  0.00000000000E+00 0.  1.
          5    1    1    2  502    0  0.43131593011E+02 -0.52046965111E+02  0.58368321507E+02  0.89432498838E+02  0.47000000000E+01 0.  1.
         -5    1    1    2    0  502 -0.26257378443E+02  0.61679953120E+01 -0.37468670817E+02  0.46405661095E+02  0.47000000000E+01 0.  1.
        -11    1    1    2    0    0  0.32441496445E+02 -0.11456817903E+02  0.24766086753E+02  0.42391843803E+02  0.00000000000E+00 0. -1.
         11    1    1    2    0    0 -0.49315711013E+02  0.57335787701E+02 -0.29431738062E+02  0.81152073969E+02  0.00000000000E+00 0.  1.
<mgrwt>
<rscale>  0 0.13144456E+03</rscale>
<asrwt>0</asrwt>
<pdfrwt beam="1">  1        2 0.21201237E-01 0.13422075E+03</pdfrwt>
<pdfrwt beam="2">  1       -2 0.18703698E-01 0.13422075E+03</pdfrwt>
<totfact> 0.58201520E+03</totfact>
</mgrwt>
</event>
<event>
 6    1  0.7457796E-006  0.3186056E+03  0.7546771E-02  0.1076293E+00
         -1   -1    0    0    0  501 -0.00000000000E+00  0.00000000000E+00  0.47384421186E+02  0.47384421186E+02  0.00000000000E+00 0. -1.
          1   -1    0    0  501    0  0.00000000000E+00 -0.00000000000E+00 -0.53556372626E+03  0.53556372626E+03  0.00000000000E+00 0.  1.
          5    1    1    2  502    0 -0.11740772871E+03 -0.53263968488E+02 -0.11424609750E+03  0.17232494275E+03  0.47000000000E+01 0.  1.
         -5    1    1    2    0  502  0.31061941032E+02 -0.88398377793E+01 -0.51198887883E+02  0.60715756053E+02  0.47000000000E+01 0.  1.
        -11    1    1    2    0    0  0.37939010687E+02  0.21949220361E+02 -0.24973113456E+03  0.25354837088E+03  0.00000000000E+00 0.  1.
         11    1    1    2    0    0  0.48406776993E+02  0.40154585906E+02 -0.73003185140E+02  0.96359077770E+02  0.00000000000E+00 0. -1.
<mgrwt>
<rscale>  0 0.31860557E+03</rscale>
<asrwt>0</asrwt>
<pdfrwt beam="2">  1        1 0.82394416E-01 0.31860557E+03</pdfrwt>
<pdfrwt beam="1">  1       -1 0.72899113E-02 0.31860557E+03</pdfrwt>
<totfact> 0.40899693E+03</totfact>
</mgrwt>
</event>
<event>
 6    1  0.7457796E-006  0.1436713E+03  0.7546771E-02  0.1218608E+00
         -1   -1    0    0    0  501 -0.00000000000E+00  0.00000000000E+00  0.58961254941E+02  0.58961254941E+02  0.00000000000E+00 0.  1.
          1   -1    0    0  501    0  0.00000000000E+00 -0.00000000000E+00 -0.28568925438E+03  0.28568925438E+03  0.00000000000E+00 0. -1.
          5    1    1    2  502    0 -0.21221196912E+02 -0.37015631946E+02  0.78304981904E+01  0.43633735901E+02  0.47000000000E+01 0. -1.
         -5    1    1    2    0  502  0.54494308122E+02 -0.25546735141E+02 -0.13641408795E+03  0.14917492647E+03  0.47000000000E+01 0. -1.
        -11    1    1    2    0    0 -0.38713657104E+01  0.43879829861E+02  0.36991979674E+01  0.44205327809E+02  0.00000000000E+00 0.  1.
         11    1    1    2    0    0 -0.29401745499E+02  0.18682537227E+02 -0.10184360764E+03  0.10763651915E+03  0.00000000000E+00 0. -1.
<mgrwt>
<rscale>  0 0.13614798E+03</rscale>
<asrwt>0</asrwt>
<pdfrwt beam="2">  1        1 0.43952192E-01 0.14367129E+03</pdfrwt>
<pdfrwt beam="1">  1       -1 0.90709624E-02 0.14367129E+03</pdfrwt>
<totfact> 0.63305273E+03</totfact>
</mgrwt>
</event>
<event>
 6    1  0.7457796E-006  0.1713999E+03  0.7546771E-02  0.1183151E+00
          1   -1    0    0  501    0  0.00000000000E+00  0.00000000000E+00  0.13672892372E+03  0.13672892372E+03  0.00000000000E+00 0. -1.
         -1   -1    0    0    0  501 -0.00000000000E+00 -0.00000000000E+00 -0.23267155319E+03  0.23267155319E+03  0.00000000000E+00 0.  1.
          5    1    1    2  502    0  0.17176822744E+01 -0.37611608935E+02 -0.67375682122E+02  0.77325003075E+02  0.47000000000E+01 0.  1.
         -5    1    1    2    0  502 -0.11887634980E+03  0.32606333054E+02 -0.66341011559E+02  0.14006419711E+03  0.47000000000E+01 0.  1.
        -11    1    1    2    0    0  0.82361692403E+02 -0.25653712895E+02 -0.82693444807E+01  0.86659929719E+02  0.00000000000E+00 0.  1.
         11    1    1    2    0    0  0.34796975127E+02  0.30658988777E+02  0.46043408693E+02  0.65351347001E+02  0.00000000000E+00 0. -1.
<mgrwt>
<rscale>  0 0.16501241E+03</rscale>
<asrwt>0</asrwt>
<pdfrwt beam="1">  1        1 0.21035219E-01 0.17139985E+03</pdfrwt>
<pdfrwt beam="2">  1       -1 0.35795624E-01 0.17139985E+03</pdfrwt>
<totfact> 0.17708897E+03</totfact>
</mgrwt>
</event>
<event>
 6    1  0.7457796E-006  0.1491294E+03  0.7546771E-02  0.1211542E+00
         -1   -1    0    0    0  501 -0.00000000000E+00  0.00000000000E+00  0.46345679696E+03  0.46345679696E+03  0.00000000000E+00 0.  1.
          1   -1    0    0  501    0  0.00000000000E+00 -0.00000000000E+00 -0.53262615237E+02  0.53262615237E+02  0.00000000000E+00 0. -1.
          5    1    1    2  502    0 -0.14525022071E+02  0.34970354964E+02  0.21142030105E+03  0.21483606701E+03  0.47000000000E+01 0. -1.
         -5    1    1    2    0  502 -0.59313770250E+02 -0.69138179269E+02  0.14216920832E+03  0.16891531893E+03  0.47000000000E+01 0. -1.
        -11    1    1    2    0    0  0.88077981972E+02  0.28522721685E+02  0.67151790060E+02  0.11437062328E+03  0.00000000000E+00 0.  1.
         11    1    1    2    0    0 -0.14239189651E+02  0.56451026205E+01 -0.10547117712E+02  0.18597402978E+02  0.00000000000E+00 0. -1.
<mgrwt>
<rscale>  0 0.14133675E+03</rscale>
<asrwt>0</asrwt>
<pdfrwt beam="2">  1        1 0.81942488E-02 0.14912942E+03</pdfrwt>
<pdfrwt beam="1">  1       -1 0.71301043E-01 0.14912942E+03</pdfrwt>
<totfact> 0.17009770E+03</totfact>
</mgrwt>
</event>
<event>
 6    1  0.7457796E-006  0.1603977E+03  0.7546771E-02  0.1195927E+00
          2   -1    0    0  501    0  0.00000000000E+00  0.00000000000E+00  0.75201954222E+03  0.75201954222E+03  0.00000000000E+00 0. -1.
         -2   -1    0    0    0  501 -0.00000000000E+00 -0.00000000000E+00 -0.30263064521E+02  0.30263064521E+02  0.00000000000E+00 0.  1.
          5    1    1    2  502    0 -0.37709343988E+02  0.11596331017E+03  0.26875769582E+03  0.29516482343E+03  0.47000000000E+01 0. -1.
         -5    1    1    2    0  502  0.31299607485E+02 -0.15659535581E+02  0.44870587374E+02  0.57099440405E+02  0.47000000000E+01 0. -1.
        -11    1    1    2    0    0 -0.11560475799E+02  0.11016948434E+02  0.18688068457E+02  0.24581734197E+02  0.00000000000E+00 0. -1.
         11    1    1    2    0    0  0.17970212302E+02 -0.11132072302E+03  0.38944012605E+03  0.40543660871E+03  0.00000000000E+00 0.  1.
<mgrwt>
<rscale>  0 0.15376044E+03</rscale>
<asrwt>0</asrwt>
<pdfrwt beam="1">  1        2 0.11569530E+00 0.16039767E+03</pdfrwt>
<pdfrwt beam="2">  1       -2 0.46558567E-02 0.16039767E+03</pdfrwt>
<totfact> 0.81366920E+03</totfact>
</mgrwt>
</event>
<event>
 6    1  0.7457796E-006  0.1361434E+03  0.7546771E-02  0.1232802E+00
         -2   -1    0    0    0  501 -0.00000000000E+00  0.00000000000E+00  0.12301832828E+03  0.12301832828E+03  0.00000000000E+00 0.  1.
          2   -1    0    0  501    0  0.00000000000E+00 -0.00000000000E+00 -0.15351745564E+03  0.15351745564E+03  0.00000000000E+00 0. -1.
          5    1    1    2  502    0 -0.38613291907E+02 -0.53401571822E+02  0.13657802194E+02  0.67463617941E+02  0.47000000000E+01 0. -1.
         -5    1    1    2    0  502 -0.13691862551E+02  0.66667376378E+02  0.38455430795E+02  0.78312938464E+02  0.47000000000E+01 0. -1.
        -11    1    1    2    0    0 -0.12110906064E+02  0.14776020874E+02 -0.49565098376E+02  0.53119712119E+02  0.00000000000E+00 0. -1.
         11    1    1    2    0    0  0.64416060521E+02 -0.28041825431E+02 -0.33047261971E+02  0.77639515392E+02  0.00000000000E+00 0.  1.
<mgrwt>
<rscale>  0 0.12646211E+03</rscale>
<asrwt>0</asrwt>
<pdfrwt beam="2">  1        2 0.23618070E-01 0.13614336E+03</pdfrwt>
<pdfrwt beam="1">  1       -2 0.18925897E-01 0.13614336E+03</pdfrwt>
<totfact> 0.50628021E+03</totfact>
</mgrwt>
</event>
<event>
 6    1  0.7457796E-006  0.1368530E+03  0.7546771E-02  0.1242137E+00
          3   -1    0    0  501    0  0.00000000000E+00  0.00000000000E+00  0.10816973106E+03  0.10816973106E+03  0.00000000000E+00 0. -1.
         -3   -1    0    0    0  501 -0.00000000000E+00 -0.00000000000E+00 -0.11228639889E+03  0.11228639889E+03  0.00000000000E+00 0.  1.
          5    1    1    2  502    0  0.21138861950E+01  0.42547207175E+02  0.40484234044E+01  0.43048961489E+02  0.47000000000E+01 0. -1.
         -5    1    1    2    0  502 -0.36010202968E+02 -0.86652103034E+02  0.39334582075E+01  0.94036608677E+02  0.47000000000E+01 0. -1.
        -11    1    1    2    0    0 -0.11405070753E+02  0.10056145637E+02  0.14281933765E+02  0.20860856550E+02  0.00000000000E+00 0. -1.
         11    1    1    2    0    0  0.45301387526E+02  0.34048750222E+02 -0.26380483214E+02  0.62509703231E+02  0.00000000000E+00 0.  1.
<mgrwt>
<rscale>  0 0.12058366E+03</rscale>
<asrwt>0</asrwt>
<pdfrwt beam="1">  1        3 0.16641497E-01 0.13685300E+03</pdfrwt>
<pdfrwt beam="2">  1       -3 0.17274831E-01 0.13685300E+03</pdfrwt>
<totfact> 0.20670606E+03</totfact>
</mgrwt>
</event>
<event>
 6    1  0.7457796E-006  0.2555236E+03  0.7546771E-02  0.1112136E+00
         -1   -1    0    0    0  501 -0.00000000000E+00  0.00000000000E+00  0.21333720212E+03  0.21333720212E+03  0.00000000000E+00 0.  1.
          1   -1    0    0  501    0  0.00000000000E+00 -0.00000000000E+00 -0.29048864675E+03  0.29048864675E+03  0.00000000000E+00 0. -1.
          5    1    1    2  502    0 -0.18259808149E+03  0.49870516611E+02  0.26159084601E+02  0.19114265745E+03  0.47000000000E+01 0.  1.
         -5    1    1    2    0  502 -0.22506152882E+02  0.37333899440E+02 -0.48461227160E+02  0.65352333569E+02  0.47000000000E+01 0.  1.
        -11    1    1    2    0    0  0.13926325581E+03 -0.14479240305E+02 -0.12802859824E+02  0.14059806556E+03  0.00000000000E+00 0.  1.
         11    1    1    2    0    0  0.65840978555E+02 -0.72725175747E+02 -0.42046442244E+02  0.10673279229E+03  0.00000000000E+00 0. -1.
<mgrwt>
<rscale>  0 0.25185763E+03</rscale>
<asrwt>0</asrwt>
<pdfrwt beam="2">  1        1 0.44690561E-01 0.25552357E+03</pdfrwt>
<pdfrwt beam="1">  1       -1 0.32821108E-01 0.25552357E+03</pdfrwt>
<totfact> 0.80042162E+02</totfact>
</mgrwt>
</event>
<event>
 6    1  0.7457796E-006  0.1270999E+03  0.7546771E-02  0.1247288E+00
          2   -1    0    0  501    0  0.00000000000E+00  0.00000000000E+00  0.96390416270E+02  0.96390416270E+02  0.00000000000E+00 0. -1.
         -2   -1    0    0    0  501 -0.00000000000E+00 -0.00000000000E+00 -0.13422571893E+03  0.13422571893E+03  0.00000000000E+00 0.  1.
          5    1    1    2  502    0 -0.23790682039E+02 -0.27009584187E+01 -0.87036577152E+02  0.90392187110E+02  0.47000000000E+01 0. -1.
         -5    1    1    2    0  502  0.20653258025E+02 -0.20079716261E+02  0.36197372168E+02  0.46498299152E+02  0.47000000000E+01 0. -1.
        -11    1    1    2    0    0  0.19928953333E+02  0.23817152689E+02  0.46688526244E+02  0.56073509129E+02  0.00000000000E+00 0. -1.
         11    1    1    2    0    0 -0.16791529320E+02 -0.10364780089E+01 -0.33684623925E+02  0.37652139813E+02  0.00000000000E+00 0.  1.
<mgrwt>
<rscale>  0 0.11749470E+03</rscale>
<asrwt>0</asrwt>
<pdfrwt beam="1">  1        2 0.14829295E-01 0.12709988E+03</pdfrwt>
<pdfrwt beam="2">  1       -2 0.20650111E-01 0.12709988E+03</pdfrwt>
<totfact> 0.73890434E+03</totfact>
</mgrwt>
</event>
<event>
 6    1  0.7457796E-006  0.1902902E+03  0.7546771E-02  0.1164630E+00
         -2   -1    0    0    0  501 -0.00000000000E+00  0.00000000000E+00  0.10483015402E+03  0.10483015402E+03  0.00000000000E+00 0.  1.
          2   -1    0    0  501    0  0.00000000000E+00 -0.00000000000E+00 -0.30054958283E+03  0.30054958283E+03  0.00000000000E+00 0. -1.
          5    1    1    2  502    0  0.20273606223E+02 -0.96880111771E+02 -0.11064054930E+03  0.14852675286E+03  0.47000000000E+01 0. -1.
         -5    1    1    2    0  502  0.57364663451E+02 -0.15300225482E+02  0.19225949863E+02  0.62582175264E+02  0.47000000000E+01 0.  1.
        -11    1    1    2    0    0 -0.98465155787E+02  0.94329696193E+02 -0.84164896795E+02  0.16024109442E+03  0.00000000000E+00 0.  1.
         11    1    1    2    0    0  0.20826886113E+02  0.17850641060E+02 -0.20139932572E+02  0.34029714301E+02  0.00000000000E+00 0. -1.
<mgrwt>
<rscale>  0 0.18331747E+03</rscale>
<asrwt>0</asrwt>
<pdfrwt beam="2">  1        2 0.46238398E-01 0.19029017E+03</pdfrwt>
<pdfrwt beam="1">  1       -2 0.16127716E-01 0.19029017E+03</pdfrwt>
<totfact> 0.32488018E+03</totfact>
</mgrwt>
</event>
<event>
 6    1  0.7457796E-006  0.2116043E+03  0.7546771E-02  0.1143773E+00
          2   -1    0    0  501    0  0.00000000000E+00  0.00000000000E+00  0.63248196408E+02  0.63248196408E+02  0.00000000000E+00 0.  1.
         -2   -1    0    0    0  501 -0.00000000000E+00 -0.00000000000E+00 -0.67196056646E+03  0.67196056646E+03  0.00000000000E+00 0. -1.
          5    1    1    2  502    0  0.81368616275E+00 -0.38997181327E+02 -0.10823749965E+02  0.40751512855E+02  0.47000000000E+01 0. -1.
         -5    1    1    2    0  502 -0.82378874267E+02 -0.11100511639E+03 -0.36849393843E+03  0.39359660498E+03  0.47000000000E+01 0. -1.
        -11    1    1    2    0    0  0.93723831466E+02  0.79066779123E+02 -0.14045097265E+03  0.18644620636E+03  0.00000000000E+00 0.  1.
         11    1    1    2    0    0 -0.12158643362E+02  0.70935518595E+02 -0.88943709003E+02  0.11441443868E+03  0.00000000000E+00 0. -1.
<mgrwt>
<rscale>  0 0.20723657E+03</rscale>
<asrwt>0</asrwt>
<pdfrwt beam="1">  1        2 0.97304914E-02 0.21160430E+03</pdfrwt>
<pdfrwt beam="2">  1       -2 0.10337855E+00 0.21160430E+03</pdfrwt>
<totfact> 0.52371640E+02</totfact>
</mgrwt>
</event>
<event>
 6    1  0.7457796E-006  0.2393949E+03  0.7546771E-02  0.1123065E+00
         -1   -1    0    0    0  501 -0.00000000000E+00  0.00000000000E+00  0.15697488183E+03  0.15697488183E+03  0.00000000000E+00 0.  1.
          1   -1    0    0  501    0  0.00000000000E+00 -0.00000000000E+00 -0.34041532333E+03  0.34041532333E+03  0.00000000000E+00 0. -1.
          5    1    1    2  502    0  0.19688175259E+03  0.63142215164E+02 -0.55267581984E+02  0.21406998728E+03  0.47000000000E+01 0. -1.
         -5    1    1    2    0  502  0.30110517875E+01 -0.21566836895E+02 -0.35588762755E+02  0.41986246807E+02  0.47000000000E+01 0. -1.
        -11    1    1    2    0    0 -0.14584855939E+03 -0.68365804653E+02 -0.79430334593E+02  0.17959639076E+03  0.00000000000E+00 0. -1.
         11    1    1    2    0    0 -0.54044244989E+02  0.26790426385E+02 -0.13153762171E+02  0.61737580302E+02  0.00000000000E+00 0.  1.
<mgrwt>
<rscale>  0 0.23515176E+03</rscale>
<asrwt>0</asrwt>
<pdfrwt beam="2">  1        1 0.52371588E-01 0.23939490E+03</pdfrwt>
<pdfrwt beam="1">  1       -1 0.24149982E-01 0.23939490E+03</pdfrwt>
<totfact> 0.11001239E+03</totfact>
</mgrwt>
</event>
<event>
 6    1  0.7457796E-006  0.3625269E+03  0.7546771E-02  0.1058793E+00
         -2   -1    0    0    0  501 -0.00000000000E+00  0.00000000000E+00  0.98059688730E+03  0.98059688730E+03  0.00000000000E+00 0.  1.
          2   -1    0    0  501    0  0.00000000000E+00 -0.00000000000E+00 -0.13214898282E+03  0.13214898282E+03  0.00000000000E+00 0. -1.
          5    1    1    2  502    0 -0.17332006958E+03 -0.95460275454E+02  0.29296264383E+03  0.35355581085E+03  0.47000000000E+01 0. -1.
         -5    1    1    2    0  502 -0.59113721665E+02 -0.15309090965E+03  0.21552921822E+03  0.27093577212E+03  0.47000000000E+01 0. -1.
        -11    1    1    2    0    0  0.23003894302E+03  0.22122669567E+03  0.28983618665E+03  0.43111968324E+03  0.00000000000E+00 0. -1.
         11    1    1    2    0    0  0.23948482187E+01  0.27324489434E+02  0.50119855781E+02  0.57134603913E+02  0.00000000000E+00 0.  1.
<mgrwt>
<rscale>  0 0.35947176E+03</rscale>
<asrwt>0</asrwt>
<pdfrwt beam="2">  1        2 0.20330613E-01 0.36252691E+03</pdfrwt>
<pdfrwt beam="1">  1       -2 0.15086106E+00 0.36252691E+03</pdfrwt>
<totfact> 0.84893617E+01</totfact>
</mgrwt>
</event>
<event>
 6    1  0.7457796E-006  0.1719389E+03  0.7546771E-02  0.1181852E+00
          2   -1    0    0  501    0  0.00000000000E+00  0.00000000000E+00  0.46394491890E+03  0.46394491890E+03  0.00000000000E+00 0. -1.
         -2   -1    0    0    0  501 -0.00000000000E+00 -0.00000000000E+00 -0.58898531207E+02  0.58898531207E+02  0.00000000000E+00 0.  1.
          5    1    1    2  502    0  0.50020635163E+01 -0.83517352824E+02  0.14149866007E+03  0.16445099472E+03  0.47000000000E+01 0. -1.
         -5    1    1    2    0  502 -0.63529431593E+02 -0.19015175975E+02  0.15234157253E+02  0.68203629984E+02  0.47000000000E+01 0. -1.
        -11    1    1    2    0    0  0.51990254241E+02  0.25208441674E+02  0.17161874342E+03  0.18108408312E+03  0.00000000000E+00 0. -1.
         11    1    1    2    0    0  0.65371138356E+01  0.77324087124E+02  0.76694826946E+02  0.10910474228E+03  0.00000000000E+00 0.  1.
<mgrwt>
<rscale>  0 0.16621638E+03</rscale>
<asrwt>0</asrwt>
<pdfrwt beam="1">  1        2 0.71376139E-01 0.17193894E+03</pdfrwt>
<pdfrwt beam="2">  1       -2 0.90613128E-02 0.17193894E+03</pdfrwt>
<totfact> 0.51256494E+03</totfact>
</mgrwt>
</event>
<event>
 6    1  0.7457796E-006  0.1469764E+03  0.7546771E-02  0.1213526E+00
          2   -1    0    0  501    0  0.00000000000E+00  0.00000000000E+00  0.25655069501E+03  0.25655069501E+03  0.00000000000E+00 0. -1.
         -2   -1    0    0    0  501 -0.00000000000E+00 -0.00000000000E+00 -0.69712367087E+02  0.69712367087E+02  0.00000000000E+00 0.  1.
          5    1    1    2  502    0 -0.33445911525E+02  0.54546030368E+02  0.23827739291E+02  0.68437925059E+02  0.47000000000E+01 0. -1.
         -5    1    1    2    0  502  0.77314107596E+02  0.91175782241E+01  0.78461067741E+02  0.11062924847E+03  0.47000000000E+01 0. -1.
        -11    1    1    2    0    0 -0.62151908382E+02 -0.68681063171E+02  0.44240830847E+02  0.10265086102E+03  0.00000000000E+00 0. -1.
         11    1    1    2    0    0  0.18283712311E+02  0.50174545787E+01  0.40308690048E+02  0.44545027553E+02  0.00000000000E+00 0.  1.
<mgrwt>
<rscale>  0 0.13985372E+03</rscale>
<asrwt>0</asrwt>
<pdfrwt beam="1">  1        2 0.39469337E-01 0.14697637E+03</pdfrwt>
<pdfrwt beam="2">  1       -2 0.10724980E-01 0.14697637E+03</pdfrwt>
<totfact> 0.73475188E+03</totfact>
</mgrwt>
</event>
<event>
 6    1  0.7457796E-006  0.5830380E+03  0.7546771E-02  0.9941235E-01
          1   -1    0    0  501    0  0.00000000000E+00  0.00000000000E+00  0.13246597857E+04  0.13246597857E+04  0.00000000000E+00 0. -1.
         -1   -1    0    0    0  501 -0.00000000000E+00 -0.00000000000E+00 -0.64154839094E+02  0.64154839094E+02  0.00000000000E+00 0.  1.
          5    1    1    2  502    0  0.46286185217E+02  0.21612470935E+02  0.13861441316E+03  0.14780242006E+03  0.47000000000E+01 0. -1.
         -5    1    1    2    0  502 -0.91072644945E+02  0.14792746667E+03  0.13952957129E+03  0.22286173587E+03  0.47000000000E+01 0.  1.
        -11    1    1    2    0    0 -0.34783243308E+02  0.29739131229E+02  0.98442727567E+02  0.10855993990E+03  0.00000000000E+00 0.  1.
         11    1    1    2    0    0  0.79569703036E+02 -0.19927906883E+03  0.88391823461E+03  0.90959052897E+03  0.00000000000E+00 0. -1.
<mgrwt>
<rscale>  0 0.58303803E+03</rscale>
<asrwt>0</asrwt>
<pdfrwt beam="1">  1        1 0.20379379E+00 0.58303803E+03</pdfrwt>
<pdfrwt beam="2">  1       -1 0.98699763E-02 0.58303803E+03</pdfrwt>
<totfact> 0.57214811E+02</totfact>
</mgrwt>
</event>
<event>
 6    1  0.7457796E-006  0.1499916E+03  0.7546771E-02  0.1208777E+00
          2   -1    0    0  501    0  0.00000000000E+00  0.00000000000E+00  0.10881169178E+04  0.10881169178E+04  0.00000000000E+00 0.  1.
         -2   -1    0    0    0  501 -0.00000000000E+00 -0.00000000000E+00 -0.17430625518E+02  0.17430625518E+02  0.00000000000E+00 0. -1.
          5    1    1    2  502    0 -0.43946978613E+02 -0.97253630594E+02  0.33206777684E+03  0.34882761360E+03  0.47000000000E+01 0.  1.
         -5    1    1    2    0  502 -0.71586433947E+01  0.31968562647E+02  0.25322431542E+03  0.25537791426E+03  0.47000000000E+01 0.  1.
        -11    1    1    2    0    0 -0.25711642151E+02  0.19115762786E+02  0.80380307223E+02  0.86530310979E+02  0.00000000000E+00 0.  1.
         11    1    1    2    0    0  0.76817264158E+02  0.46169305161E+02  0.40501389281E+03  0.41481170449E+03  0.00000000000E+00 0. -1.
<mgrwt>
<rscale>  0 0.14343761E+03</rscale>
<asrwt>0</asrwt>
<pdfrwt beam="1">  1        2 0.16740255E+00 0.14999162E+03</pdfrwt>
<pdfrwt beam="2">  1       -2 0.26816355E-02 0.14999162E+03</pdfrwt>
<totfact> 0.11275340E+04</totfact>
</mgrwt>
</event>
<event>
 6    1  0.7457796E-006  0.1424300E+03  0.7546771E-02  0.1224320E+00
         -1   -1    0    0    0  501 -0.00000000000E+00  0.00000000000E+00  0.11064560081E+03  0.11064560081E+03  0.00000000000E+00 0.  1.
          1   -1    0    0  501    0  0.00000000000E+00 -0.00000000000E+00 -0.14349745258E+03  0.14349745258E+03  0.00000000000E+00 0. -1.
          5    1    1    2  502    0  0.28223748340E+02 -0.22422827494E+02  0.12611712318E+02  0.38477375830E+02  0.47000000000E+01 0. -1.
         -5    1    1    2    0  502 -0.90669935313E+02  0.49938931693E+02 -0.88986378837E+01  0.10400100877E+03  0.47000000000E+01 0. -1.
        -11    1    1    2    0    0 -0.94160740969E+01  0.12491310429E+02 -0.23728538239E+02  0.28420746201E+02  0.00000000000E+00 0. -1.
         11    1    1    2    0    0  0.71862261070E+02 -0.40007414628E+02 -0.12836387966E+02  0.83243922585E+02  0.00000000000E+00 0.  1.
<mgrwt>
<rscale>  0 0.13213649E+03</rscale>
<asrwt>0</asrwt>
<pdfrwt beam="2">  1        1 0.22076531E-01 0.14242999E+03</pdfrwt>
<pdfrwt beam="1">  1       -1 0.17022400E-01 0.14242999E+03</pdfrwt>
<totfact> 0.56287805E+03</totfact>
</mgrwt>
</event>
<event>
 6    1  0.7457796E-006  0.1331464E+03  0.7546771E-02  0.1235558E+00
          1   -1    0    0  501    0  0.00000000000E+00  0.00000000000E+00  0.46504439604E+03  0.46504439604E+03  0.00000000000E+00 0. -1.
         -1   -1    0    0    0  501 -0.00000000000E+00 -0.00000000000E+00 -0.32512021027E+02  0.32512021027E+02  0.00000000000E+00 0.  1.
          5    1    1    2  502    0  0.81689806360E+01 -0.39968525621E+02  0.10842445930E+03  0.11594036682E+03  0.47000000000E+01 0. -1.
         -5    1    1    2    0  502  0.19635946209E+02  0.76429444165E+02  0.62801161908E+02  0.10096091450E+03  0.47000000000E+01 0. -1.
        -11    1    1    2    0    0  0.17078176983E+02 -0.17811687618E+02  0.13501555004E+02  0.28128496803E+02  0.00000000000E+00 0.  1.
         11    1    1    2    0    0 -0.44883103828E+02 -0.18649230926E+02  0.24780519881E+03  0.25252663895E+03  0.00000000000E+00 0. -1.
<mgrwt>
<rscale>  0 0.12468771E+03</rscale>
<asrwt>0</asrwt>
<pdfrwt beam="1">  1        1 0.71545287E-01 0.13314636E+03</pdfrwt>
<pdfrwt beam="2">  1       -1 0.50018497E-02 0.13314636E+03</pdfrwt>
<totfact> 0.83382492E+03</totfact>
</mgrwt>
</event>
<event>
 6    1  0.7457796E-006  0.1275519E+03  0.7546771E-02  0.1246202E+00
         -1   -1    0    0    0  501 -0.00000000000E+00  0.00000000000E+00  0.34797539597E+03  0.34797539597E+03  0.00000000000E+00 0.  1.
          1   -1    0    0  501    0  0.00000000000E+00 -0.00000000000E+00 -0.46441323767E+02  0.46441323767E+02  0.00000000000E+00 0. -1.
          5    1    1    2  502    0  0.19987751117E+02  0.46976991005E+02  0.24401128877E+03  0.24933902007E+03  0.47000000000E+01 0.  1.
         -5    1    1    2    0  502  0.37944403680E+01 -0.38694412469E+02  0.20235603960E+02  0.44082025835E+02  0.47000000000E+01 0.  1.
        -11    1    1    2    0    0 -0.40312513704E+02 -0.35985346216E+02  0.41938398325E+02  0.68402289125E+02  0.00000000000E+00 0.  1.
         11    1    1    2    0    0  0.16530322219E+02  0.27702767680E+02 -0.46512188599E+01  0.32593384707E+02  0.00000000000E+00 0. -1.
<mgrwt>
<rscale>  0 0.11813700E+03</rscale>
<asrwt>0</asrwt>
<pdfrwt beam="2">  1        1 0.71448193E-02 0.12755191E+03</pdfrwt>
<pdfrwt beam="1">  1       -1 0.53534675E-01 0.12755191E+03</pdfrwt>
<totfact> 0.35132680E+03</totfact>
</mgrwt>
</event>
<event>
 6    1  0.7457796E-006  0.1547972E+03  0.7546771E-02  0.1203284E+00
         -2   -1    0    0    0  501 -0.00000000000E+00  0.00000000000E+00  0.26020538656E+03  0.26020538656E+03  0.00000000000E+00 0. -1.
          2   -1    0    0  501    0  0.00000000000E+00 -0.00000000000E+00 -0.13774702667E+03  0.13774702667E+03  0.00000000000E+00 0.  1.
          5    1    1    2  502    0  0.11231421927E+03 -0.44581629894E+02  0.17258284968E+03  0.21073427718E+03  0.47000000000E+01 0. -1.
         -5    1    1    2    0  502 -0.24853223612E+02  0.18354669408E+02  0.23578437446E+02  0.39148554576E+02  0.47000000000E+01 0. -1.
        -11    1    1    2    0    0 -0.94013188692E+02  0.39186852470E+02 -0.82514829139E+02  0.13108312661E+03  0.00000000000E+00 0.  1.
         11    1    1    2    0    0  0.65521930372E+01 -0.12959891985E+02  0.88119019066E+01  0.16986454871E+02  0.00000000000E+00 0. -1.
<mgrwt>
<rscale>  0 0.14773490E+03</rscale>
<asrwt>0</asrwt>
<pdfrwt beam="2">  1        2 0.21191850E-01 0.15479722E+03</pdfrwt>
<pdfrwt beam="1">  1       -2 0.40031598E-01 0.15479722E+03</pdfrwt>
<totfact> 0.15160131E+03</totfact>
</mgrwt>
</event>
<event>
 6    1  0.7457796E-006  0.1409564E+03  0.7546771E-02  0.1222741E+00
          2   -1    0    0  501    0  0.00000000000E+00  0.00000000000E+00  0.10333237509E+04  0.10333237509E+04  0.00000000000E+00 0. -1.
         -2   -1    0    0    0  501 -0.00000000000E+00 -0.00000000000E+00 -0.15737201572E+02  0.15737201572E+02  0.00000000000E+00 0.  1.
          5    1    1    2  502    0 -0.27618319184E+02  0.95885211473E+02  0.36543644516E+03  0.37884380790E+03  0.47000000000E+01 0. -1.
         -5    1    1    2    0  502  0.26743425089E+02 -0.30743823066E+02  0.14170292104E+03  0.14752017243E+03  0.47000000000E+01 0. -1.
        -11    1    1    2    0    0  0.40985577628E+02 -0.55286919139E+02  0.36810709694E+03  0.37448537464E+03  0.00000000000E+00 0.  1.
         11    1    1    2    0    0 -0.40110683533E+02 -0.98544692686E+01  0.14234008620E+03  0.14821159751E+03  0.00000000000E+00 0. -1.
<mgrwt>
<rscale>  0 0.13322930E+03</rscale>
<asrwt>0</asrwt>
<pdfrwt beam="1">  1        2 0.15897283E+00 0.14095639E+03</pdfrwt>
<pdfrwt beam="2">  1       -2 0.24211087E-02 0.14095639E+03</pdfrwt>
<totfact> 0.14045134E+04</totfact>
</mgrwt>
</event>
<event>
 6    1  0.7457796E-006  0.1557164E+03  0.7546771E-02  0.1201870E+00
          3   -1    0    0  501    0  0.00000000000E+00  0.00000000000E+00  0.41690219617E+02  0.41690219617E+02  0.00000000000E+00 0. -1.
         -3   -1    0    0    0  501 -0.00000000000E+00 -0.00000000000E+00 -0.61368987135E+03  0.61368987135E+03  0.00000000000E+00 0.  1.
          5    1    1    2  502    0  0.46161962980E+02 -0.91282604977E+01 -0.10827064516E+03  0.11814768119E+03  0.47000000000E+01 0. -1.
         -5    1    1    2    0  502 -0.33707093517E+02  0.10113323035E+03 -0.34496624006E+03  0.36109264076E+03  0.47000000000E+01 0. -1.
        -11    1    1    2    0    0 -0.28229225061E+02 -0.11200789421E+02  0.14870795413E+01  0.30406549241E+02  0.00000000000E+00 0. -1.
         11    1    1    2    0    0  0.15774355598E+02 -0.80804180432E+02 -0.12024984606E+03  0.14573321978E+03  0.00000000000E+00 0.  1.
<mgrwt>
<rscale>  0 0.14886853E+03</rscale>
<asrwt>0</asrwt>
<pdfrwt beam="1">  1        3 0.64138808E-02 0.15571645E+03</pdfrwt>
<pdfrwt beam="2">  1       -3 0.94413814E-01 0.15571645E+03</pdfrwt>
<totfact> 0.37348005E+02</totfact>
</mgrwt>
</event>
<event>
 6    1  0.7457796E-006  0.1289397E+03  0.7546771E-02  0.1243200E+00
          1   -1    0    0  501    0  0.00000000000E+00  0.00000000000E+00  0.27857767739E+03  0.27857767739E+03  0.00000000000E+00 0. -1.
         -1   -1    0    0    0  501 -0.00000000000E+00 -0.00000000000E+00 -0.46866497317E+02  0.46866497317E+02  0.00000000000E+00 0.  1.
          5    1    1    2  502    0 -0.30612282394E+02 -0.42894457935E+02  0.43384115379E+02  0.68420156549E+02  0.47000000000E+01 0. -1.
         -5    1    1    2    0  502  0.62247716520E+02  0.43406549548E+02  0.62432054743E+02  0.98380680091E+02  0.47000000000E+01 0. -1.
        -11    1    1    2    0    0 -0.43348199261E+02  0.33128065026E+02  0.46734689324E+02  0.71837777372E+02  0.00000000000E+00 0.  1.
         11    1    1    2    0    0  0.11712765135E+02 -0.33640156639E+02  0.79160320629E+02  0.86805560696E+02  0.00000000000E+00 0. -1.
<mgrwt>
<rscale>  0 0.11993787E+03</rscale>
<asrwt>0</asrwt>
<pdfrwt beam="1">  1        1 0.42858103E-01 0.12893974E+03</pdfrwt>
<pdfrwt beam="2">  1       -1 0.72102305E-02 0.12893974E+03</pdfrwt>
<totfact> 0.91677993E+03</totfact>
</mgrwt>
</event>
<event>
 6    1  0.7457796E-006  0.1499806E+03  0.7546771E-02  0.1209760E+00
         -2   -1    0    0    0  501 -0.00000000000E+00  0.00000000000E+00  0.15986688455E+03  0.15986688455E+03  0.00000000000E+00 0. -1.
          2   -1    0    0  501    0  0.00000000000E+00 -0.00000000000E+00 -0.12827227442E+03  0.12827227442E+03  0.00000000000E+00 0.  1.
          5    1    1    2  502    0  0.30501575660E+02  0.82706100583E+01  0.36345379084E+02  0.48392413551E+02  0.47000000000E+01 0.  1.
         -5    1    1    2    0  502 -0.10930378897E+03  0.17408876025E+02  0.24485119632E+02  0.11345482948E+03  0.47000000000E+01 0.  1.
        -11    1    1    2    0    0  0.94393826857E+02 -0.18849407401E+01 -0.22265038442E+02  0.97002471552E+02  0.00000000000E+00 0.  1.
         11    1    1    2    0    0 -0.15591613545E+02 -0.23794545343E+02 -0.69708501416E+01  0.29289444391E+02  0.00000000000E+00 0. -1.
<mgrwt>
<rscale>  0 0.14268560E+03</rscale>
<asrwt>0</asrwt>
<pdfrwt beam="2">  1        2 0.19734196E-01 0.14998060E+03</pdfrwt>
<pdfrwt beam="1">  1       -2 0.24594905E-01 0.14998060E+03</pdfrwt>
<totfact> 0.39779979E+03</totfact>
</mgrwt>
</event>
<event>
 6    1  0.7457796E-006  0.1487196E+03  0.7546771E-02  0.1211934E+00
          2   -1    0    0  501    0  0.00000000000E+00  0.00000000000E+00  0.73341754685E+03  0.73341754685E+03  0.00000000000E+00 0. -1.
         -2   -1    0    0    0  501 -0.00000000000E+00 -0.00000000000E+00 -0.25046542811E+02  0.25046542811E+02  0.00000000000E+00 0.  1.
          5    1    1    2  502    0 -0.52625697965E+02  0.85266165237E+02  0.26857515603E+03  0.28669580998E+03  0.47000000000E+01 0.  1.
         -5    1    1    2    0  502  0.45051252379E+02 -0.50415351400E+01  0.76238787423E+02  0.88822717393E+02  0.47000000000E+01 0.  1.
        -11    1    1    2    0    0  0.47172756384E+02 -0.44270725530E+02  0.16271762853E+03  0.17510623267E+03  0.00000000000E+00 0.  1.
         11    1    1    2    0    0 -0.39598310797E+02 -0.35953904567E+02  0.20083943205E+03  0.20783932962E+03  0.00000000000E+00 0. -1.
<mgrwt>
<rscale>  0 0.14104186E+03</rscale>
<asrwt>0</asrwt>
<pdfrwt beam="1">  1        2 0.11283345E+00 0.14871956E+03</pdfrwt>
<pdfrwt beam="2">  1       -2 0.38533148E-02 0.14871956E+03</pdfrwt>
<totfact> 0.11081006E+04</totfact>
</mgrwt>
</event>
<event>
 6    1  0.7457796E-006  0.1358163E+03  0.7546771E-02  0.1224792E+00
         -1   -1    0    0    0  501 -0.00000000000E+00  0.00000000000E+00  0.22989337348E+03  0.22989337348E+03  0.00000000000E+00 0.  1.
          1   -1    0    0  501    0  0.00000000000E+00 -0.00000000000E+00 -0.11154246696E+03  0.11154246696E+03  0.00000000000E+00 0. -1.
          5    1    1    2  502    0  0.52273883162E+02  0.18697552575E+02  0.80169660655E+02  0.97629000930E+02  0.47000000000E+01 0. -1.
         -5    1    1    2    0  502 -0.11055307764E+02 -0.78236315905E+02  0.83518174158E+02  0.11506744271E+03  0.47000000000E+01 0.  1.
        -11    1    1    2    0    0 -0.47568038772E+02  0.35333122630E+02 -0.71280683456E+02  0.92693493307E+02  0.00000000000E+00 0. -1.
         11    1    1    2    0    0  0.63494633733E+01  0.24205640700E+02  0.25943755168E+02  0.36045903499E+02  0.00000000000E+00 0.  1.
<mgrwt>
<rscale>  0 0.13181164E+03</rscale>
<asrwt>0</asrwt>
<pdfrwt beam="2">  1        1 0.17160380E-01 0.13581631E+03</pdfrwt>
<pdfrwt beam="1">  1       -1 0.35368211E-01 0.13581631E+03</pdfrwt>
<totfact> 0.23256733E+03</totfact>
</mgrwt>
</event>
<event>
 6    1  0.7457796E-006  0.1726027E+03  0.7546771E-02  0.1180942E+00
         -1   -1    0    0    0  501 -0.00000000000E+00  0.00000000000E+00  0.34107460380E+02  0.34107460380E+02  0.00000000000E+00 0.  1.
          1   -1    0    0  501    0  0.00000000000E+00 -0.00000000000E+00 -0.80262254580E+03  0.80262254580E+03  0.00000000000E+00 0. -1.
          5    1    1    2  502    0 -0.15553200128E+02  0.11250046510E+03 -0.21811235293E+03  0.24595394932E+03  0.47000000000E+01 0.  1.
         -5    1    1    2    0  502  0.27997084413E+02  0.58715585354E+01 -0.27440559763E+03  0.27593266197E+03  0.47000000000E+01 0.  1.
        -11    1    1    2    0    0 -0.27406521069E+01 -0.10113482450E+03 -0.27714037280E+03  0.29502974449E+03  0.00000000000E+00 0. -1.
         11    1    1    2    0    0 -0.97032321785E+01 -0.17237199145E+02  0.11432379369E+01  0.19813650397E+02  0.00000000000E+00 0.  1.
<mgrwt>
<rscale>  0 0.16706604E+03</rscale>
<asrwt>0</asrwt>
<pdfrwt beam="2">  1        1 0.12348039E+00 0.17260273E+03</pdfrwt>
<pdfrwt beam="1">  1       -1 0.52473015E-02 0.17260273E+03</pdfrwt>
<totfact> 0.36961157E+03</totfact>
</mgrwt>
</event>
<event>
 6    1  0.7457796E-006  0.1268091E+03  0.7546771E-02  0.1257734E+00
         -4   -1    0    0    0  501 -0.00000000000E+00  0.00000000000E+00  0.26018408444E+02  0.26018408444E+02  0.00000000000E+00 0.  1.
          4   -1    0    0  501    0  0.00000000000E+00 -0.00000000000E+00 -0.39736450858E+03  0.39736450858E+03  0.00000000000E+00 0. -1.
          5    1    1    2  502    0 -0.21972768846E+02  0.48403749841E+02 -0.29042501699E+02  0.60755925426E+02  0.47000000000E+01 0. -1.
         -5    1    1    2    0  502  0.11353178609E+02 -0.29907463848E+02 -0.18682672160E+03  0.18960396874E+03  0.47000000000E+01 0. -1.
        -11    1    1    2    0    0  0.19598158614E+02 -0.40795485237E+02 -0.63641411819E+02  0.78093461538E+02  0.00000000000E+00 0.  1.
         11    1    1    2    0    0 -0.89785683769E+01  0.22299199244E+02 -0.91835465020E+02  0.94929561320E+02  0.00000000000E+00 0. -1.
<mgrwt>
<rscale>  0 0.11154562E+03</rscale>
<asrwt>0</asrwt>
<pdfrwt beam="2">  1        4 0.61132995E-01 0.12680913E+03</pdfrwt>
<pdfrwt beam="1">  1       -4 0.40028325E-02 0.12680913E+03</pdfrwt>
<totfact> 0.14148924E+03</totfact>
</mgrwt>
</event>
<event>
 6    1  0.7457796E-006  0.1421344E+03  0.7546771E-02  0.1219967E+00
          1   -1    0    0  501    0  0.00000000000E+00  0.00000000000E+00  0.36941857267E+02  0.36941857267E+02  0.00000000000E+00 0. -1.
         -1   -1    0    0    0  501 -0.00000000000E+00 -0.00000000000E+00 -0.53185584207E+03  0.53185584207E+03  0.00000000000E+00 0.  1.
          5    1    1    2  502    0 -0.91327644750E+02  0.48031597958E+02 -0.27319802719E+03  0.29207366393E+03  0.47000000000E+01 0.  1.
         -5    1    1    2    0  502  0.26785137888E+02 -0.27721390010E+02 -0.10505294137E+03  0.11200057842E+03  0.47000000000E+01 0.  1.
        -11    1    1    2    0    0  0.44420279734E+02 -0.18303016936E+02 -0.13126483139E+03  0.13978060538E+03  0.00000000000E+00 0.  1.
         11    1    1    2    0    0  0.20122227128E+02 -0.20071910115E+01  0.14601815155E+02  0.24942851604E+02  0.00000000000E+00 0. -1.
<mgrwt>
<rscale>  0 0.13517951E+03</rscale>
<asrwt>0</asrwt>
<pdfrwt beam="1">  1        1 0.56833630E-02 0.14213444E+03</pdfrwt>
<pdfrwt beam="2">  1       -1 0.81823971E-01 0.14213444E+03</pdfrwt>
<totfact> 0.21079742E+03</totfact>
</mgrwt>
</event>
<event>
 6    1  0.7457796E-006  0.2860848E+03  0.7546771E-02  0.1092411E+00
         -1   -1    0    0    0  501 -0.00000000000E+00  0.00000000000E+00  0.89012659257E+03  0.89012659257E+03  0.00000000000E+00 0.  1.
          1   -1    0    0  501    0  0.00000000000E+00 -0.00000000000E+00 -0.22986767798E+02  0.22986767798E+02  0.00000000000E+00 0. -1.
          5    1    1    2  502    0 -0.42139092889E+01 -0.20829343969E+02  0.46080536149E+01  0.22247309046E+02  0.47000000000E+01 0. -1.
         -5    1    1    2    0  502  0.76273739577E+02 -0.38530697254E+02  0.45890269125E+03  0.46681481127E+03  0.47000000000E+01 0. -1.
        -11    1    1    2    0    0 -0.61596609494E+02  0.11123793947E+01  0.28374297679E+03  0.29035401938E+03  0.00000000000E+00 0.  1.
         11    1    1    2    0    0 -0.10463220794E+02  0.58247661829E+02  0.11988610312E+03  0.13369722068E+03  0.00000000000E+00 0. -1.
<mgrwt>
<rscale>  0 0.28608484E+03</rscale>
<asrwt>0</asrwt>
<pdfrwt beam="2">  1        1 0.35364265E-02 0.28608484E+03</pdfrwt>
<pdfrwt beam="1">  1       -1 0.13694253E+00 0.28608484E+03</pdfrwt>
<totfact> 0.12933463E+03</totfact>
</mgrwt>
</event>
<event>
 6    1  0.7457796E-006  0.1437789E+03  0.7546771E-02  0.1225440E+00
          3   -1    0    0  501    0  0.00000000000E+00  0.00000000000E+00  0.56452259403E+03  0.56452259403E+03  0.00000000000E+00 0. -1.
         -3   -1    0    0    0  501 -0.00000000000E+00 -0.00000000000E+00 -0.31328540265E+02  0.31328540265E+02  0.00000000000E+00 0.  1.
          5    1    1    2  502    0 -0.14844745224E+02 -0.10147536090E+03  0.14230433445E+03  0.17547144763E+03  0.47000000000E+01 0. -1.
         -5    1    1    2    0  502 -0.15775293949E+02  0.37363235860E+02  0.47332584701E+02  0.62508678338E+02  0.47000000000E+01 0. -1.
        -11    1    1    2    0    0  0.14678758132E+02 -0.11062570575E+02  0.31308631455E+02  0.36305327593E+02  0.00000000000E+00 0.  1.
         11    1    1    2    0    0  0.15941281041E+02  0.75174695613E+02  0.31224850316E+03  0.32156568074E+03  0.00000000000E+00 0. -1.
<mgrwt>
<rscale>  0 0.13136781E+03</rscale>
<asrwt>0</asrwt>
<pdfrwt beam="1">  1        3 0.86849622E-01 0.14377892E+03</pdfrwt>
<pdfrwt beam="2">  1       -3 0.48197758E-02 0.14377892E+03</pdfrwt>
<totfact> 0.70272754E+02</totfact>
</mgrwt>
</event>
<event>
 6    1  0.7457796E-006  0.1399718E+03  0.7546771E-02  0.1225662E+00
         -1   -1    0    0    0  501 -0.00000000000E+00  0.00000000000E+00  0.11243672452E+03  0.11243672452E+03  0.00000000000E+00 0.  1.
          1   -1    0    0  501    0  0.00000000000E+00 -0.00000000000E+00 -0.14821534916E+03  0.14821534916E+03  0.00000000000E+00 0. -1.
          5    1    1    2  502    0  0.95782235057E+02 -0.11709899178E+02  0.26066912784E+02  0.10006464028E+03  0.47000000000E+01 0.  1.
         -5    1    1    2    0  502 -0.37380775553E+02 -0.11846603974E+02 -0.10238364209E+02  0.40799246419E+02  0.47000000000E+01 0.  1.
        -11    1    1    2    0    0  0.14519156666E+02  0.22732567351E+02  0.50475456398E+01  0.27441815641E+02  0.00000000000E+00 0.  1.
         11    1    1    2    0    0 -0.72920616170E+02  0.82393580047E+00 -0.56654718846E+02  0.92346371344E+02  0.00000000000E+00 0. -1.
<mgrwt>
<rscale>  0 0.13121640E+03</rscale>
<asrwt>0</asrwt>
<pdfrwt beam="2">  1        1 0.22802362E-01 0.13997175E+03</pdfrwt>
<pdfrwt beam="1">  1       -1 0.17297958E-01 0.13997175E+03</pdfrwt>
<totfact> 0.52617293E+03</totfact>
</mgrwt>
</event>
<event>
 6    1  0.7457796E-006  0.1334541E+03  0.7546771E-02  0.1236118E+00
         -2   -1    0    0    0  501 -0.00000000000E+00  0.00000000000E+00  0.19658212785E+02  0.19658212785E+02  0.00000000000E+00 0.  1.
          2   -1    0    0  501    0  0.00000000000E+00 -0.00000000000E+00 -0.72324441150E+03  0.72324441150E+03  0.00000000000E+00 0. -1.
          5    1    1    2  502    0  0.40283179574E+02  0.30314528002E+02 -0.62688944844E+02  0.80583490680E+02  0.47000000000E+01 0.  1.
         -5    1    1    2    0  502 -0.19676680265E+02  0.11653841077E+02 -0.40776350546E+03  0.40843132855E+03  0.47000000000E+01 0.  1.
        -11    1    1    2    0    0  0.10976014609E+02 -0.49866964635E+02 -0.65132127822E+02  0.82760987991E+02  0.00000000000E+00 0.  1.
         11    1    1    2    0    0 -0.31582513918E+02  0.78985955559E+01 -0.16800162059E+03  0.17112681706E+03  0.00000000000E+00 0. -1.
<mgrwt>
<rscale>  0 0.12433123E+03</rscale>
<asrwt>0</asrwt>
<pdfrwt beam="2">  1        2 0.11126836E+00 0.13345406E+03</pdfrwt>
<pdfrwt beam="1">  1       -2 0.30243408E-02 0.13345406E+03</pdfrwt>
<totfact> 0.16001935E+04</totfact>
</mgrwt>
</event>
<event>
 6    1  0.7457796E-006  0.1293815E+03  0.7546771E-02  0.1248367E+00
          1   -1    0    0  501    0  0.00000000000E+00  0.00000000000E+00  0.23240144512E+03  0.23240144512E+03  0.00000000000E+00 0. -1.
         -1   -1    0    0    0  501 -0.00000000000E+00 -0.00000000000E+00 -0.50770001788E+02  0.50770001788E+02  0.00000000000E+00 0.  1.
          5    1    1    2  502    0 -0.39153495075E+02 -0.51671068567E+02  0.76689256872E+02  0.10052973502E+03  0.47000000000E+01 0. -1.
         -5    1    1    2    0  502  0.51698782530E+02  0.20735143626E+02  0.14474595893E+02  0.57743521044E+02  0.47000000000E+01 0. -1.
        -11    1    1    2    0    0  0.22149971730E+02 -0.14998052278E+02  0.17534763094E+02  0.31984851673E+02  0.00000000000E+00 0. -1.
         11    1    1    2    0    0 -0.34695259184E+02  0.45933977219E+02  0.72932827473E+02  0.92913339173E+02  0.00000000000E+00 0.  1.
<mgrwt>
<rscale>  0 0.11686093E+03</rscale>
<asrwt>0</asrwt>
<pdfrwt beam="1">  1        1 0.35754068E-01 0.12938151E+03</pdfrwt>
<pdfrwt beam="2">  1       -1 0.78107696E-02 0.12938151E+03</pdfrwt>
<totfact> 0.10170614E+04</totfact>
</mgrwt>
</event>
<event>
 6    1  0.7457796E-006  0.1299979E+03  0.7546771E-02  0.1241578E+00
          3   -1    0    0  501    0  0.00000000000E+00  0.00000000000E+00  0.15429067142E+03  0.15429067142E+03  0.00000000000E+00 0. -1.
         -3   -1    0    0    0  501 -0.00000000000E+00 -0.00000000000E+00 -0.85104023124E+02  0.85104023124E+02  0.00000000000E+00 0.  1.
          5    1    1    2  502    0 -0.54505074629E+01  0.27480991741E+02 -0.35032698297E+02  0.45103136129E+02  0.47000000000E+01 0. -1.
         -5    1    1    2    0  502  0.17525612137E+02 -0.61076873062E+02  0.59500035339E+02  0.87177266011E+02  0.47000000000E+01 0. -1.
        -11    1    1    2    0    0 -0.59212068114E+01 -0.26058324281E+02  0.38439641655E+02  0.46815627786E+02  0.00000000000E+00 0. -1.
         11    1    1    2    0    0 -0.61538978627E+01  0.59654205602E+02  0.62796696022E+01  0.60298664622E+02  0.00000000000E+00 0.  1.
<mgrwt>
<rscale>  0 0.12092524E+03</rscale>
<asrwt>0</asrwt>
<pdfrwt beam="1">  1        3 0.23737026E-01 0.12999790E+03</pdfrwt>
<pdfrwt beam="2">  1       -3 0.13092927E-01 0.12999790E+03</pdfrwt>
<totfact> 0.17620990E+03</totfact>
</mgrwt>
</event>
<event>
 6    1  0.7457796E-006  0.1305062E+03  0.7546771E-02  0.1240262E+00
         -3   -1    0    0    0  501 -0.00000000000E+00  0.00000000000E+00  0.62569323532E+02  0.62569323532E+02  0.00000000000E+00 0.  1.
          3   -1    0    0  501    0  0.00000000000E+00 -0.00000000000E+00 -0.21440040700E+03  0.21440040700E+03  0.00000000000E+00 0. -1.
          5    1    1    2  502    0 -0.68168940503E+02  0.22114313715E+02 -0.81611908510E+02  0.10871357289E+03  0.47000000000E+01 0. -1.
         -5    1    1    2    0  502  0.33775234493E+02 -0.71717746487E+01  0.14848659525E+02  0.37878404222E+02  0.47000000000E+01 0. -1.
        -11    1    1    2    0    0  0.66002113211E+02 -0.11502036378E+02 -0.56820091927E+02  0.87847018365E+02  0.00000000000E+00 0.  1.
         11    1    1    2    0    0 -0.31608407201E+02 -0.34405026880E+01 -0.28247742553E+02  0.42530735050E+02  0.00000000000E+00 0. -1.
<mgrwt>
<rscale>  0 0.12173481E+03</rscale>
<asrwt>0</asrwt>
<pdfrwt beam="2">  1        3 0.32984678E-01 0.13050623E+03</pdfrwt>
<pdfrwt beam="1">  1       -3 0.96260497E-02 0.13050623E+03</pdfrwt>
<totfact> 0.16117546E+03</totfact>
</mgrwt>
</event>
<event>
 6    1  0.7457796E-006  0.3033631E+03  0.7546771E-02  0.1083571E+00
          2   -1    0    0  501    0  0.00000000000E+00  0.00000000000E+00  0.11662094224E+04  0.11662094224E+04  0.00000000000E+00 0. -1.
         -2   -1    0    0    0  501 -0.00000000000E+00 -0.00000000000E+00 -0.19728266840E+02  0.19728266840E+02  0.00000000000E+00 0.  1.
          5    1    1    2  502    0 -0.29409196919E+02  0.26288475085E+01  0.65842889567E+02  0.72313123354E+02  0.47000000000E+01 0.  1.
         -5    1    1    2    0  502  0.12751277465E+03  0.65273891891E+01  0.40945216741E+03  0.42892339865E+03  0.47000000000E+01 0.  1.
        -11    1    1    2    0    0 -0.42282236897E+02  0.41762884893E+02  0.27017404008E+03  0.27663321934E+03  0.00000000000E+00 0.  1.
         11    1    1    2    0    0 -0.55821340834E+02 -0.50919121590E+02  0.40101205851E+03  0.40806794791E+03  0.00000000000E+00 0. -1.
<mgrwt>
<rscale>  0 0.30336309E+03</rscale>
<asrwt>0</asrwt>
<pdfrwt beam="1">  1        2 0.17941678E+00 0.30336309E+03</pdfrwt>
<pdfrwt beam="2">  1       -2 0.30351189E-02 0.30336309E+03</pdfrwt>
<totfact> 0.87116681E+03</totfact>
</mgrwt>
</event>
<event>
 6    1  0.7457796E-006  0.1284649E+03  0.7546771E-02  0.1243717E+00
          2   -1    0    0  501    0  0.00000000000E+00  0.00000000000E+00  0.39228803564E+03  0.39228803564E+03  0.00000000000E+00 0. -1.
         -2   -1    0    0    0  501 -0.00000000000E+00 -0.00000000000E+00 -0.32282425579E+02  0.32282425579E+02  0.00000000000E+00 0.  1.
          5    1    1    2  502    0  0.35365291247E+02  0.61441516782E+02  0.18199826007E+03  0.19537456456E+03  0.47000000000E+01 0. -1.
         -5    1    1    2    0  502 -0.21483896077E+02 -0.35273362336E+02  0.25788318433E+02  0.48917228547E+02  0.47000000000E+01 0. -1.
        -11    1    1    2    0    0 -0.37848524302E+02  0.21239152296E+02  0.65071871393E+02  0.78217394669E+02  0.00000000000E+00 0.  1.
         11    1    1    2    0    0  0.23967129133E+02 -0.47407306743E+02  0.87147160164E+02  0.10206127344E+03  0.00000000000E+00 0. -1.
<mgrwt>
<rscale>  0 0.11962503E+03</rscale>
<asrwt>0</asrwt>
<pdfrwt beam="1">  1        2 0.60352002E-01 0.12846485E+03</pdfrwt>
<pdfrwt beam="2">  1       -2 0.49665273E-02 0.12846485E+03</pdfrwt>
<totfact> 0.15130387E+04</totfact>
</mgrwt>
</event>
<event>
 6    1  0.7457796E-006  0.1497990E+03  0.7546771E-02  0.1209395E+00
         -2   -1    0    0    0  501 -0.00000000000E+00  0.00000000000E+00  0.55620425548E+02  0.55620425548E+02  0.00000000000E+00 0. -1.
          2   -1    0    0  501    0  0.00000000000E+00 -0.00000000000E+00 -0.36696473862E+03  0.36696473862E+03  0.00000000000E+00 0.  1.
          5    1    1    2  502    0  0.41656839483E+02  0.71739321712E+02 -0.30047920216E+02  0.88356041473E+02  0.47000000000E+01 0. -1.
         -5    1    1    2    0  502  0.35680202621E+02 -0.42883709789E+02 -0.79462686375E+02  0.97203384459E+02  0.47000000000E+01 0. -1.
        -11    1    1    2    0    0 -0.97412116185E+02 -0.33575975019E+02 -0.15868353249E+03  0.18920076628E+03  0.00000000000E+00 0. -1.
         11    1    1    2    0    0  0.20075074080E+02  0.47203630966E+01 -0.43150173993E+02  0.47824971957E+02  0.00000000000E+00 0.  1.
<mgrwt>
<rscale>  0 0.14296437E+03</rscale>
<asrwt>0</asrwt>
<pdfrwt beam="2">  1        2 0.56456116E-01 0.14979896E+03</pdfrwt>
<pdfrwt beam="1">  1       -2 0.85569882E-02 0.14979896E+03</pdfrwt>
<totfact> 0.71645074E+03</totfact>
</mgrwt>
</event>
<event>
 6    1  0.7457796E-006  0.2123557E+03  0.7546771E-02  0.1149568E+00
         -1   -1    0    0    0  501 -0.00000000000E+00  0.00000000000E+00  0.52555012434E+02  0.52555012434E+02  0.00000000000E+00 0.  1.
          1   -1    0    0  501    0  0.00000000000E+00 -0.00000000000E+00 -0.71720633391E+03  0.71720633391E+03  0.00000000000E+00 0. -1.
          5    1    1    2  502    0  0.28330909908E+02 -0.47601314299E+02 -0.14578060893E+03  0.15602115728E+03  0.47000000000E+01 0. -1.
         -5    1    1    2    0  502 -0.13761818374E+03 -0.41024640852E+02 -0.14586545992E+03  0.20474522717E+03  0.47000000000E+01 0.  1.
        -11    1    1    2    0    0  0.92906276290E+02  0.10775881132E+03 -0.32512033230E+03  0.35488979707E+03  0.00000000000E+00 0.  1.
         11    1    1    2    0    0  0.16380997537E+02 -0.19132856169E+02 -0.47884920326E+02  0.54105164820E+02  0.00000000000E+00 0. -1.
<mgrwt>
<rscale>  0 0.20020326E+03</rscale>
<asrwt>0</asrwt>
<pdfrwt beam="2">  1        1 0.11033944E+00 0.21235573E+03</pdfrwt>
<pdfrwt beam="1">  1       -1 0.80853865E-02 0.21235573E+03</pdfrwt>
<totfact> 0.22902115E+03</totfact>
</mgrwt>
</event>
<event>
 6    1  0.7457796E-006  0.1418796E+03  0.7546771E-02  0.1219785E+00
          2   -1    0    0  501    0  0.00000000000E+00  0.00000000000E+00  0.81926053168E+02  0.81926053168E+02  0.00000000000E+00 0. -1.
         -2   -1    0    0    0  501 -0.00000000000E+00 -0.00000000000E+00 -0.22896741394E+03  0.22896741394E+03  0.00000000000E+00 0.  1.
          5    1    1    2  502    0  0.42865794319E+02 -0.18917440995E+02 -0.18034754845E+02  0.50425075892E+02  0.47000000000E+01 0.  1.
         -5    1    1    2    0  502 -0.24986477156E+02  0.83613415850E+02 -0.11171366818E+03  0.14183638817E+03  0.47000000000E+01 0.  1.
        -11    1    1    2    0    0 -0.17516540892E+02 -0.74749193760E+02  0.20548303918E+02  0.79476436549E+02  0.00000000000E+00 0. -1.
         11    1    1    2    0    0 -0.36277627079E+00  0.10053218905E+02 -0.37841241667E+02  0.39155566500E+02  0.00000000000E+00 0.  1.
<mgrwt>
<rscale>  0 0.13530830E+03</rscale>
<asrwt>0</asrwt>
<pdfrwt beam="1">  1        2 0.12604008E-01 0.14187959E+03</pdfrwt>
<pdfrwt beam="2">  1       -2 0.35225756E-01 0.14187959E+03</pdfrwt>
<totfact> 0.35083366E+03</totfact>
</mgrwt>
</event>
<event>
 6    1  0.7457796E-006  0.1392045E+03  0.7546771E-02  0.1230179E+00
         -1   -1    0    0    0  501 -0.00000000000E+00  0.00000000000E+00  0.17292014360E+03  0.17292014360E+03  0.00000000000E+00 0.  1.
          1   -1    0    0  501    0  0.00000000000E+00 -0.00000000000E+00 -0.15933332026E+03  0.15933332026E+03  0.00000000000E+00 0. -1.
          5    1    1    2  502    0 -0.12394662038E+02  0.25564517416E+02 -0.20914413073E+02  0.35590376115E+02  0.47000000000E+01 0. -1.
         -5    1    1    2    0  502  0.43845665856E+02  0.29669311107E+01  0.14263438089E+03  0.14932481946E+03  0.47000000000E+01 0.  1.
        -11    1    1    2    0    0 -0.29729210655E+01  0.24955751801E+02 -0.21103657098E+01  0.25220655247E+02  0.00000000000E+00 0.  1.
         11    1    1    2    0    0 -0.28478082752E+02 -0.53487200329E+02 -0.10602277877E+03  0.12211761304E+03  0.00000000000E+00 0. -1.
<mgrwt>
<rscale>  0 0.12818154E+03</rscale>
<asrwt>0</asrwt>
<pdfrwt beam="2">  1        1 0.24512819E-01 0.13920445E+03</pdfrwt>
<pdfrwt beam="1">  1       -1 0.26603099E-01 0.13920445E+03</pdfrwt>
<totfact> 0.23924528E+03</totfact>
</mgrwt>
</event>
<event>
 6    1  0.7457796E-006  0.1476370E+03  0.7546771E-02  0.1212906E+00
         -1   -1    0    0    0  501 -0.00000000000E+00  0.00000000000E+00  0.72357380317E+03  0.72357380317E+03  0.00000000000E+00 0.  1.
          1   -1    0    0  501    0  0.00000000000E+00 -0.00000000000E+00 -0.25974582728E+02  0.25974582728E+02  0.00000000000E+00 0. -1.
          5    1    1    2  502    0 -0.14631108588E+02  0.40648666991E+01  0.30539597763E+03  0.30580939429E+03  0.47000000000E+01 0.  1.
         -5    1    1    2    0  502  0.31975870562E+02 -0.80694445481E+02  0.15539740748E+03  0.17805755834E+03  0.47000000000E+01 0.  1.
        -11    1    1    2    0    0 -0.27374813766E+02  0.94065778864E+02  0.21344108315E+03  0.23485069120E+03  0.00000000000E+00 0.  1.
         11    1    1    2    0    0  0.10030051792E+02 -0.17436200083E+02  0.23364752175E+02  0.30830742068E+02  0.00000000000E+00 0. -1.
<mgrwt>
<rscale>  0 0.14031478E+03</rscale>
<asrwt>0</asrwt>
<pdfrwt beam="2">  1        1 0.39960902E-02 0.14763700E+03</pdfrwt>
<pdfrwt beam="1">  1       -1 0.11131903E+00 0.14763700E+03</pdfrwt>
<totfact> 0.17549302E+03</totfact>
</mgrwt>
</event>
<event>
 6    1  0.7457796E-006  0.1481841E+03  0.7546771E-02  0.1212038E+00
          1   -1    0    0  501    0  0.00000000000E+00  0.00000000000E+00  0.53199468077E+02  0.53199468077E+02  0.00000000000E+00 0. -1.
         -1   -1    0    0    0  501 -0.00000000000E+00 -0.00000000000E+00 -0.34187076061E+03  0.34187076061E+03  0.00000000000E+00 0.  1.
          5    1    1    2  502    0 -0.77247250942E+01 -0.68931223297E+02 -0.43493091713E+02  0.82005633646E+02  0.47000000000E+01 0. -1.
         -5    1    1    2    0  502  0.66832698322E+02  0.15649547957E+02 -0.12257300365E+03  0.14056226073E+03  0.47000000000E+01 0. -1.
        -11    1    1    2    0    0 -0.26522345767E+02  0.36060920019E+02 -0.30057417800E+00  0.44765110549E+02  0.00000000000E+00 0. -1.
         11    1    1    2    0    0 -0.32585627461E+02  0.17220755321E+02 -0.12230462299E+03  0.12773722376E+03  0.00000000000E+00 0.  1.
<mgrwt>
<rscale>  0 0.14096397E+03</rscale>
<asrwt>0</asrwt>
<pdfrwt beam="1">  1        1 0.81845335E-02 0.14818407E+03</pdfrwt>
<pdfrwt beam="2">  1       -1 0.52595502E-01 0.14818407E+03</pdfrwt>
<totfact> 0.30495761E+03</totfact>
</mgrwt>
</event>
<event>
 6    1  0.7457796E-006  0.6507113E+03  0.7546771E-02  0.9805445E-01
          1   -1    0    0  501    0  0.00000000000E+00  0.00000000000E+00  0.22781713145E+03  0.22781713145E+03  0.00000000000E+00 0. -1.
         -1   -1    0    0    0  501 -0.00000000000E+00 -0.00000000000E+00 -0.46465471375E+03  0.46465471375E+03  0.00000000000E+00 0.  1.
          5    1    1    2  502    0  0.12212164000E+02  0.12984469018E+02 -0.13417431339E+03  0.13543474354E+03  0.47000000000E+01 0.  1.
         -5    1    1    2    0  502 -0.15609339423E+03  0.42194661705E+02 -0.26829923415E+03  0.31329236544E+03  0.47000000000E+01 0.  1.
        -11    1    1    2    0    0  0.10378952853E+03 -0.76378076585E+02  0.14479605561E+03  0.19383439978E+03  0.00000000000E+00 0. -1.
         11    1    1    2    0    0  0.40091701703E+02  0.21198945861E+02  0.20839909620E+02  0.49910336445E+02  0.00000000000E+00 0.  1.
<mgrwt>
<rscale>  0 0.65071132E+03</rscale>
<asrwt>0</asrwt>
<pdfrwt beam="1">  1        1 0.35048790E-01 0.65071132E+03</pdfrwt>
<pdfrwt beam="2">  1       -1 0.71485340E-01 0.65071132E+03</pdfrwt>
<totfact> 0.25173211E+02</totfact>
</mgrwt>
</event>
<event>
 6    1  0.7457796E-006  0.1887554E+03  0.7546771E-02  0.1164982E+00
         -4   -1    0    0    0  501 -0.00000000000E+00  0.00000000000E+00  0.58165381789E+02  0.58165381789E+02  0.00000000000E+00 0.  1.
          4   -1    0    0  501    0  0.00000000000E+00 -0.00000000000E+00 -0.54270064563E+03  0.54270064563E+03  0.00000000000E+00 0. -1.
          5    1    1    2  502    0  0.29433877981E+02  0.10639984348E+03 -0.11011253313E+03  0.15599403776E+03  0.47000000000E+01 0.  1.
         -5    1    1    2    0  502 -0.63657850178E+02  0.30843407926E+02 -0.14450821082E+03  0.16096071165E+03  0.47000000000E+01 0.  1.
        -11    1    1    2    0    0  0.12661450894E+02  0.10111141199E+02 -0.12893666305E+02  0.20707345215E+02  0.00000000000E+00 0.  1.
         11    1    1    2    0    0  0.21562521303E+02 -0.14735439260E+03 -0.21702085358E+03  0.26320393278E+03  0.00000000000E+00 0. -1.
<mgrwt>
<rscale>  0 0.18294580E+03</rscale>
<asrwt>0</asrwt>
<pdfrwt beam="2">  1        4 0.83492408E-01 0.18875537E+03</pdfrwt>
<pdfrwt beam="1">  1       -4 0.89485202E-02 0.18875537E+03</pdfrwt>
<totfact> 0.20849886E+02</totfact>
</mgrwt>
</event>
<event>
 6    1  0.7457796E-006  0.1692187E+03  0.7546771E-02  0.1185190E+00
         -1   -1    0    0    0  501 -0.00000000000E+00  0.00000000000E+00  0.41927500251E+02  0.41927500251E+02  0.00000000000E+00 0.  1.
          1   -1    0    0  501    0  0.00000000000E+00 -0.00000000000E+00 -0.70505704490E+03  0.70505704490E+03  0.00000000000E+00 0. -1.
          5    1    1    2  502    0  0.26630340289E+02  0.62623437732E+02 -0.11183911892E+03  0.13099980342E+03  0.47000000000E+01 0.  1.
         -5    1    1    2    0  502 -0.92190430492E+02  0.30717977269E+02 -0.91672776033E+02  0.13367369774E+03  0.47000000000E+01 0.  1.
        -11    1    1    2    0    0  0.58851406487E+02 -0.38341759377E+02 -0.37251441780E+03  0.37907858028E+03  0.00000000000E+00 0. -1.
         11    1    1    2    0    0  0.67086837155E+01 -0.54999655624E+02 -0.87103231905E+02  0.10323246371E+03  0.00000000000E+00 0.  1.
<mgrwt>
<rscale>  0 0.16314583E+03</rscale>
<asrwt>0</asrwt>
<pdfrwt beam="2">  1        1 0.10847031E+00 0.16921871E+03</pdfrwt>
<pdfrwt beam="1">  1       -1 0.64503847E-02 0.16921871E+03</pdfrwt>
<totfact> 0.32864696E+03</totfact>
</mgrwt>
</event>
<event>
 6    1  0.7457796E-006  0.1274561E+03  0.7546771E-02  0.1246067E+00
         -3   -1    0    0    0  501 -0.00000000000E+00  0.00000000000E+00  0.59294388514E+03  0.59294388514E+03  0.00000000000E+00 0.  1.
          3   -1    0    0  501    0  0.00000000000E+00 -0.00000000000E+00 -0.22368639775E+02  0.22368639775E+02  0.00000000000E+00 0. -1.
          5    1    1    2  502    0 -0.40405017762E+02  0.32851670006E+02  0.36811717719E+03  0.37181197375E+03  0.47000000000E+01 0. -1.
         -5    1    1    2    0  502  0.37257846122E+02 -0.81810200946E+01  0.38856907336E+02  0.54653686382E+02  0.47000000000E+01 0. -1.
        -11    1    1    2    0    0 -0.19311248318E+02  0.27385057554E+02  0.89345558583E+02  0.95422714944E+02  0.00000000000E+00 0. -1.
         11    1    1    2    0    0  0.22458419958E+02 -0.52055707465E+02  0.74255602262E+02  0.93424149844E+02  0.00000000000E+00 0.  1.
<mgrwt>
<rscale>  0 0.11821722E+03</rscale>
<asrwt>0</asrwt>
<pdfrwt beam="2">  1        3 0.34413296E-02 0.12745609E+03</pdfrwt>
<pdfrwt beam="1">  1       -3 0.91222124E-01 0.12745609E+03</pdfrwt>
<totfact> 0.10467853E+03</totfact>
</mgrwt>
</event>
<event>
 6    1  0.7457796E-006  0.2848218E+03  0.7546771E-02  0.1093084E+00
         -1   -1    0    0    0  501 -0.00000000000E+00  0.00000000000E+00  0.51104375350E+02  0.51104375350E+02  0.00000000000E+00 0.  1.
          1   -1    0    0  501    0  0.00000000000E+00 -0.00000000000E+00 -0.39685178909E+03  0.39685178909E+03  0.00000000000E+00 0. -1.
          5    1    1    2  502    0  0.75898061965E+01  0.26715569715E+02 -0.71206211143E+02  0.76575069890E+02  0.47000000000E+01 0. -1.
         -5    1    1    2    0  502  0.29612333044E+02 -0.81922722718E+02 -0.13071363785E+02  0.88210959166E+02  0.47000000000E+01 0. -1.
        -11    1    1    2    0    0  0.95469098192E+01  0.59274723807E+02 -0.12113124361E+03  0.13519398858E+03  0.00000000000E+00 0.  1.
         11    1    1    2    0    0 -0.46749049060E+02 -0.40675708043E+01 -0.14033859520E+03  0.14797614681E+03  0.00000000000E+00 0. -1.
<mgrwt>
<rscale>  0 0.28482179E+03</rscale>
<asrwt>0</asrwt>
<pdfrwt beam="2">  1        1 0.61054124E-01 0.28482179E+03</pdfrwt>
<pdfrwt beam="1">  1       -1 0.78622112E-02 0.28482179E+03</pdfrwt>
<totfact> 0.53911102E+03</totfact>
</mgrwt>
</event>
<event>
 6    1  0.7457796E-006  0.1265008E+03  0.7546771E-02  0.1248273E+00
          2   -1    0    0  501    0  0.00000000000E+00  0.00000000000E+00  0.98885561465E+02  0.98885561465E+02  0.00000000000E+00 0. -1.
         -2   -1    0    0    0  501 -0.00000000000E+00 -0.00000000000E+00 -0.12203683582E+03  0.12203683582E+03  0.00000000000E+00 0.  1.
          5    1    1    2  502    0  0.24557309496E+02  0.46975348613E+02 -0.42321318557E+02  0.67992123304E+02  0.47000000000E+01 0. -1.
         -5    1    1    2    0  502 -0.42189990758E+02 -0.38852686032E+02  0.19077405447E+02  0.60626429308E+02  0.47000000000E+01 0. -1.
        -11    1    1    2    0    0  0.20796397495E+02  0.91801733095E+01  0.41498379525E+02  0.47316817665E+02  0.00000000000E+00 0. -1.
         11    1    1    2    0    0 -0.31637162338E+01 -0.17302835891E+02 -0.41405740768E+02  0.44987027006E+02  0.00000000000E+00 0.  1.
<mgrwt>
<rscale>  0 0.11691624E+03</rscale>
<asrwt>0</asrwt>
<pdfrwt beam="1">  1        2 0.15213163E-01 0.12650080E+03</pdfrwt>
<pdfrwt beam="2">  1       -2 0.18774898E-01 0.12650080E+03</pdfrwt>
<totfact> 0.84173601E+03</totfact>
</mgrwt>
</event>
<event>
 6    1  0.7457796E-006  0.4251329E+03  0.7546771E-02  0.1090498E+00
         -1   -1    0    0    0  501 -0.00000000000E+00  0.00000000000E+00  0.72468053451E+03  0.72468053451E+03  0.00000000000E+00 0.  1.
          1   -1    0    0  501    0  0.00000000000E+00 -0.00000000000E+00 -0.21852491061E+03  0.21852491061E+03  0.00000000000E+00 0. -1.
          5    1    1    2  502    0 -0.10895960360E+03 -0.13443208492E+02 -0.69640594022E+01  0.11010678088E+03  0.47000000000E+01 0. -1.
         -5    1    1    2    0  502  0.11436263590E+03  0.10095534135E+02  0.65454413531E+03  0.66455311855E+03  0.47000000000E+01 0.  1.
        -11    1    1    2    0    0 -0.42656267087E+01  0.44371264829E+02 -0.43121225125E+02  0.62019712753E+02  0.00000000000E+00 0.  1.
         11    1    1    2    0    0 -0.11374055845E+01 -0.41023590472E+02 -0.98303226885E+02  0.10652583294E+03  0.00000000000E+00 0. -1.
<mgrwt>
<rscale>  0 0.28971562E+03</rscale>
<asrwt>0</asrwt>
<pdfrwt beam="2">  1        1 0.33619217E-01 0.42513293E+03</pdfrwt>
<pdfrwt beam="1">  1       -1 0.11148931E+00 0.42513293E+03</pdfrwt>
<totfact> 0.10197680E+02</totfact>
</mgrwt>
</event>
<event>
 6    1  0.7457796E-006  0.1272352E+03  0.7546771E-02  0.1246399E+00
          1   -1    0    0  501    0  0.00000000000E+00  0.00000000000E+00  0.19438041934E+03  0.19438041934E+03  0.00000000000E+00 0.  1.
         -1   -1    0    0    0  501 -0.00000000000E+00 -0.00000000000E+00 -0.73967104227E+02  0.73967104227E+02  0.00000000000E+00 0. -1.
          5    1    1    2  502    0  0.24607091245E+02 -0.53758409890E+02 -0.61768890430E+01  0.59629854366E+02  0.47000000000E+01 0. -1.
         -5    1    1    2    0  502 -0.46579843079E+02  0.44726543469E+02  0.23007070913E+02  0.68713614255E+02  0.47000000000E+01 0. -1.
        -11    1    1    2    0    0  0.18164790815E+02  0.21206832499E+02  0.11770610888E+03  0.12097279627E+03  0.00000000000E+00 0.  1.
         11    1    1    2    0    0  0.38079610191E+01 -0.12174966078E+02 -0.14122975633E+02  0.19031258678E+02  0.00000000000E+00 0. -1.
<mgrwt>
<rscale>  0 0.11802013E+03</rscale>
<asrwt>0</asrwt>
<pdfrwt beam="1">  1        1 0.29904680E-01 0.12723518E+03</pdfrwt>
<pdfrwt beam="2">  1       -1 0.11379555E-01 0.12723518E+03</pdfrwt>
<totfact> 0.71541695E+03</totfact>
</mgrwt>
</event>
<event>
 6    1  0.7457796E-006  0.1475588E+03  0.7546771E-02  0.1212480E+00
         -1   -1    0    0    0  501 -0.00000000000E+00  0.00000000000E+00  0.95887002826E+02  0.95887002826E+02  0.00000000000E+00 0.  1.
          1   -1    0    0  501    0  0.00000000000E+00 -0.00000000000E+00 -0.19006260547E+03  0.19006260547E+03  0.00000000000E+00 0. -1.
          5    1    1    2  502    0  0.64578106694E+01 -0.94049462466E+02 -0.57648079064E+02  0.11060016152E+03  0.47000000000E+01 0. -1.
         -5    1    1    2    0  502 -0.33411600203E+02  0.20422942400E+02  0.16248861221E+02  0.42656149561E+02  0.47000000000E+01 0. -1.
        -11    1    1    2    0    0 -0.20594766508E+02  0.67947186205E+02 -0.17243869856E+02  0.73063777402E+02  0.00000000000E+00 0.  1.
         11    1    1    2    0    0  0.47548556042E+02  0.56793338618E+01 -0.35532514949E+02  0.59629519816E+02  0.00000000000E+00 0. -1.
<mgrwt>
<rscale>  0 0.14063318E+03</rscale>
<asrwt>0</asrwt>
<pdfrwt beam="2">  1        1 0.29240400E-01 0.14755881E+03</pdfrwt>
<pdfrwt beam="1">  1       -1 0.14751847E-01 0.14755881E+03</pdfrwt>
<totfact> 0.49658825E+03</totfact>
</mgrwt>
</event>
<event>
 6    1  0.7457796E-006  0.1356694E+03  0.7546771E-02  0.1231679E+00
         -3   -1    0    0    0  501 -0.00000000000E+00  0.00000000000E+00  0.13969700059E+03  0.13969700059E+03  0.00000000000E+00 0.  1.
          3   -1    0    0  501    0  0.00000000000E+00 -0.00000000000E+00 -0.10870358889E+03  0.10870358889E+03  0.00000000000E+00 0. -1.
          5    1    1    2  502    0  0.25576316691E+02  0.52271965047E+02  0.15555578938E+02  0.60419966413E+02  0.47000000000E+01 0.  1.
         -5    1    1    2    0  502  0.22678798097E+02 -0.73553406072E+02  0.28799193670E+02  0.82315946110E+02  0.47000000000E+01 0.  1.
        -11    1    1    2    0    0  0.63055481430E+01 -0.19831390716E+02  0.20679130931E+02  0.29337185467E+02  0.00000000000E+00 0.  1.
         11    1    1    2    0    0 -0.54560662931E+02  0.41112831741E+02 -0.34040491834E+02  0.76327491492E+02  0.00000000000E+00 0. -1.
<mgrwt>
<rscale>  0 0.12719467E+03</rscale>
<asrwt>0</asrwt>
<pdfrwt beam="2">  1        3 0.16723629E-01 0.13566943E+03</pdfrwt>
<pdfrwt beam="1">  1       -3 0.21491846E-01 0.13566943E+03</pdfrwt>
<totfact> 0.13952113E+03</totfact>
</mgrwt>
</event>
<event>
 6    1  0.7457796E-006  0.1388488E+03  0.7546771E-02  0.1225985E+00
         -2   -1    0    0    0  501 -0.00000000000E+00  0.00000000000E+00  0.19229757138E+03  0.19229757138E+03  0.00000000000E+00 0.  1.
          2   -1    0    0  501    0  0.00000000000E+00 -0.00000000000E+00 -0.94012952988E+02  0.94012952988E+02  0.00000000000E+00 0. -1.
          5    1    1    2  502    0 -0.48067058369E+02  0.75817000772E+00 -0.13586071622E+02  0.50176570869E+02  0.47000000000E+01 0. -1.
         -5    1    1    2    0  502 -0.29922675906E+01  0.31581277465E+02  0.12154493534E+03  0.12570438361E+03  0.47000000000E+01 0. -1.
        -11    1    1    2    0    0  0.42614086324E+02  0.17086441448E+02 -0.31566373821E+02  0.55716629392E+02  0.00000000000E+00 0. -1.
         11    1    1    2    0    0  0.84452396362E+01 -0.49425888921E+02  0.21892128499E+02  0.54712940502E+02  0.00000000000E+00 0.  1.
<mgrwt>
<rscale>  0 0.13099651E+03</rscale>
<asrwt>0</asrwt>
<pdfrwt beam="2">  1        2 0.14463531E-01 0.13884882E+03</pdfrwt>
<pdfrwt beam="1">  1       -2 0.29584242E-01 0.13884882E+03</pdfrwt>
<totfact> 0.40901045E+03</totfact>
</mgrwt>
</event>
<event>
 6    1  0.7457796E-006  0.1520000E+03  0.7546771E-02  0.1207688E+00
         -1   -1    0    0    0  501 -0.00000000000E+00  0.00000000000E+00  0.27068178693E+02  0.27068178693E+02  0.00000000000E+00 0.  1.
          1   -1    0    0  501    0  0.00000000000E+00 -0.00000000000E+00 -0.72496128448E+03  0.72496128448E+03  0.00000000000E+00 0. -1.
          5    1    1    2  502    0  0.66104639554E+02 -0.73250901756E+02 -0.13648579563E+03  0.16848139478E+03  0.47000000000E+01 0.  1.
         -5    1    1    2    0  502  0.86918981385E+01  0.29847267088E+02 -0.17866233310E+03  0.18140762860E+03  0.47000000000E+01 0.  1.
        -11    1    1    2    0    0 -0.84908846198E+02  0.10608669589E+02 -0.31183648738E+03  0.32336365117E+03  0.00000000000E+00 0. -1.
         11    1    1    2    0    0  0.10112308505E+02  0.32794965079E+02 -0.70908489675E+02  0.78776788624E+02  0.00000000000E+00 0.  1.
<mgrwt>
<rscale>  0 0.14427660E+03</rscale>
<asrwt>0</asrwt>
<pdfrwt beam="2">  1        1 0.11153249E+00 0.15199995E+03</pdfrwt>
<pdfrwt beam="1">  1       -1 0.41643356E-02 0.15199995E+03</pdfrwt>
<totfact> 0.60268124E+03</totfact>
</mgrwt>
</event>
<event>
 6    1  0.7457796E-006  0.1453548E+03  0.7546771E-02  0.1216213E+00
          2   -1    0    0  501    0  0.00000000000E+00  0.00000000000E+00  0.31558042158E+02  0.31558042158E+02  0.00000000000E+00 0. -1.
         -2   -1    0    0    0  501 -0.00000000000E+00 -0.00000000000E+00 -0.76682703590E+03  0.76682703590E+03  0.00000000000E+00 0.  1.
          5    1    1    2  502    0  0.49802319941E+02  0.26154691269E+02 -0.98560250469E+02  0.11358059658E+03  0.47000000000E+01 0.  1.
         -5    1    1    2    0  502 -0.19986313297E+02  0.41767631495E+02 -0.50908446438E+03  0.51120746242E+03  0.47000000000E+01 0.  1.
        -11    1    1    2    0    0 -0.61751768316E+02 -0.43191079549E+02 -0.97401876290E+02  0.12314981018E+03  0.00000000000E+00 0. -1.
         11    1    1    2    0    0  0.31935761672E+02 -0.24731243215E+02 -0.30222402601E+02  0.50447208877E+02  0.00000000000E+00 0.  1.
<mgrwt>
<rscale>  0 0.13787810E+03</rscale>
<asrwt>0</asrwt>
<pdfrwt beam="1">  1        2 0.48550830E-02 0.14535480E+03</pdfrwt>
<pdfrwt beam="2">  1       -2 0.11797340E+00 0.14535480E+03</pdfrwt>
<totfact> 0.92224075E+02</totfact>
</mgrwt>
</event>
<event>
 6    1  0.7457796E-006  0.1520740E+03  0.7546771E-02  0.1207492E+00
         -1   -1    0    0    0  501 -0.00000000000E+00  0.00000000000E+00  0.14822264306E+03  0.14822264306E+03  0.00000000000E+00 0.  1.
          1   -1    0    0  501    0  0.00000000000E+00 -0.00000000000E+00 -0.13013487354E+03  0.13013487354E+03  0.00000000000E+00 0. -1.
          5    1    1    2  502    0  0.17554000910E+02 -0.59091701694E+02  0.13488764772E+02  0.63277238658E+02  0.47000000000E+01 0. -1.
         -5    1    1    2    0  502 -0.89391573305E+02  0.10704038632E+02  0.12957754693E+02  0.91079214026E+02  0.47000000000E+01 0. -1.
        -11    1    1    2    0    0 -0.69697815928E+01  0.30064617423E+02 -0.26961901753E+02  0.40980522476E+02  0.00000000000E+00 0. -1.
         11    1    1    2    0    0  0.78807353988E+02  0.18323045639E+02  0.18603151804E+02  0.83020541441E+02  0.00000000000E+00 0.  1.
<mgrwt>
<rscale>  0 0.14442764E+03</rscale>
<asrwt>0</asrwt>
<pdfrwt beam="2">  1        1 0.20020750E-01 0.15207398E+03</pdfrwt>
<pdfrwt beam="1">  1       -1 0.22803484E-01 0.15207398E+03</pdfrwt>
<totfact> 0.39991150E+03</totfact>
</mgrwt>
</event>
<event>
 6    1  0.7457796E-006  0.2672506E+03  0.7546771E-02  0.1102864E+00
          2   -1    0    0  501    0  0.00000000000E+00  0.00000000000E+00  0.76735425357E+03  0.76735425357E+03  0.00000000000E+00 0. -1.
         -2   -1    0    0    0  501 -0.00000000000E+00 -0.00000000000E+00 -0.23269202824E+02  0.23269202824E+02  0.00000000000E+00 0.  1.
          5    1    1    2  502    0  0.61463897574E+02  0.57414516587E+02  0.38863913618E+03  0.39766406123E+03  0.47000000000E+01 0. -1.
         -5    1    1    2    0  502 -0.10358279964E+02  0.41153499559E+00 -0.55287507755E+01  0.12653869369E+02  0.47000000000E+01 0. -1.
        -11    1    1    2    0    0 -0.14272337234E+02 -0.70597702600E+02  0.29507261282E+03  0.30373604010E+03  0.00000000000E+00 0. -1.
         11    1    1    2    0    0 -0.36833280376E+02  0.12771651018E+02  0.65902052526E+02  0.76569485698E+02  0.00000000000E+00 0.  1.
<mgrwt>
<rscale>  0 0.26725061E+03</rscale>
<asrwt>0</asrwt>
<pdfrwt beam="1">  1        2 0.11805448E+00 0.26725061E+03</pdfrwt>
<pdfrwt beam="2">  1       -2 0.35798779E-02 0.26725061E+03</pdfrwt>
<totfact> 0.12093323E+04</totfact>
</mgrwt>
</event>
<event>
 6    1  0.7457796E-006  0.2500606E+03  0.7546771E-02  0.1113267E+00
         -1   -1    0    0    0  501 -0.00000000000E+00  0.00000000000E+00  0.35183664137E+02  0.35183664137E+02  0.00000000000E+00 0.  1.
          1   -1    0    0  501    0  0.00000000000E+00 -0.00000000000E+00 -0.44431360880E+03  0.44431360880E+03  0.00000000000E+00 0. -1.
          5    1    1    2  502    0  0.85057942134E+01  0.19087916151E+02  0.14706504892E+02  0.25982077752E+02  0.47000000000E+01 0.  1.
         -5    1    1    2    0  502  0.54572309340E+01 -0.59504874217E+02 -0.15767415880E+03  0.16868266591E+03  0.47000000000E+01 0.  1.
        -11    1    1    2    0    0  0.35340684866E+02  0.38216058623E+02 -0.13373557119E+03  0.14350830689E+03  0.00000000000E+00 0.  1.
         11    1    1    2    0    0 -0.49303710014E+02  0.22008994436E+01 -0.13242671956E+03  0.14132422238E+03  0.00000000000E+00 0. -1.
<mgrwt>
<rscale>  0 0.25006064E+03</rscale>
<asrwt>0</asrwt>
<pdfrwt beam="2">  1        1 0.68355944E-01 0.25006064E+03</pdfrwt>
<pdfrwt beam="1">  1       -1 0.54128711E-02 0.25006064E+03</pdfrwt>
<totfact> 0.81610803E+03</totfact>
</mgrwt>
</event>
<event>
 6    1  0.7457796E-006  0.6767408E+03  0.7546771E-02  0.1034672E+00
         -2   -1    0    0    0  501 -0.00000000000E+00  0.00000000000E+00  0.87675734432E+02  0.87675734432E+02  0.00000000000E+00 0.  1.
          2   -1    0    0  501    0  0.00000000000E+00 -0.00000000000E+00 -0.17579420323E+04  0.17579420323E+04  0.00000000000E+00 0. -1.
          5    1    1    2  502    0  0.13278571308E+03  0.12252321831E+02 -0.14372093358E+04  0.14433900824E+04  0.47000000000E+01 0. -1.
         -5    1    1    2    0  502 -0.11224559599E+03  0.42185154605E+02  0.25015111293E+02  0.12258265326E+03  0.47000000000E+01 0.  1.
        -11    1    1    2    0    0  0.19600991926E+02 -0.56214705995E+02 -0.98514617504E+02  0.11510613327E+03  0.00000000000E+00 0.  1.
         11    1    1    2    0    0 -0.40141109019E+02  0.17772295592E+01 -0.15955745584E+03  0.16453889781E+03  0.00000000000E+00 0. -1.
<mgrwt>
<rscale>  0 0.42743955E+03</rscale>
<asrwt>0</asrwt>
<pdfrwt beam="2">  1        2 0.27045263E+00 0.67674078E+03</pdfrwt>
<pdfrwt beam="1">  1       -2 0.13488574E-01 0.67674078E+03</pdfrwt>
<totfact> 0.39027585E+02</totfact>
</mgrwt>
</event>
<event>
 6    1  0.7457796E-006  0.1302313E+03  0.7546771E-02  0.1240369E+00
         -2   -1    0    0    0  501 -0.00000000000E+00  0.00000000000E+00  0.33963447697E+02  0.33963447697E+02  0.00000000000E+00 0.  1.
          2   -1    0    0  501    0  0.00000000000E+00 -0.00000000000E+00 -0.38944692848E+03  0.38944692848E+03  0.00000000000E+00 0. -1.
          5    1    1    2  502    0  0.56225447044E+02  0.50375426641E+02 -0.19052161306E+03  0.20498673017E+03  0.47000000000E+01 0.  1.
         -5    1    1    2    0  502 -0.25797240120E+02 -0.30124400484E+02 -0.25913699341E+02  0.47608685299E+02  0.47000000000E+01 0.  1.
        -11    1    1    2    0    0 -0.23478143508E+02 -0.31305921392E+02 -0.14921807615E+03  0.15426379416E+03  0.00000000000E+00 0. -1.
         11    1    1    2    0    0 -0.69500634159E+01  0.11054895236E+02  0.10169907768E+02  0.16551166550E+02  0.00000000000E+00 0.  1.
<mgrwt>
<rscale>  0 0.12166888E+03</rscale>
<asrwt>0</asrwt>
<pdfrwt beam="2">  1        2 0.59914908E-01 0.13023133E+03</pdfrwt>
<pdfrwt beam="1">  1       -2 0.52251461E-02 0.13023133E+03</pdfrwt>
<totfact> 0.14145556E+04</totfact>
</mgrwt>
</event>
<event>
 6    1  0.7457796E-006  0.1301601E+03  0.7546771E-02  0.1243435E+00
          1   -1    0    0  501    0  0.00000000000E+00  0.00000000000E+00  0.65280350707E+02  0.65280350707E+02  0.00000000000E+00 0. -1.
         -1   -1    0    0    0  501 -0.00000000000E+00 -0.00000000000E+00 -0.19437326670E+03  0.19437326670E+03  0.00000000000E+00 0.  1.
          5    1    1    2  502    0  0.37940338228E+02 -0.27447962140E+02 -0.43287432538E+02  0.63943347630E+02  0.47000000000E+01 0. -1.
         -5    1    1    2    0  502 -0.58223776773E+02  0.57536073267E+02 -0.47569583208E+02  0.94791155470E+02  0.47000000000E+01 0. -1.
        -11    1    1    2    0    0 -0.28499425077E+02 -0.22268902643E+02 -0.36645471639E+02  0.51487977687E+02  0.00000000000E+00 0.  1.
         11    1    1    2    0    0  0.48782863622E+02 -0.78192084842E+01 -0.15904286086E+01  0.49431136621E+02  0.00000000000E+00 0. -1.
<mgrwt>
<rscale>  0 0.11979525E+03</rscale>
<asrwt>0</asrwt>
<pdfrwt beam="1">  1        1 0.10043131E-01 0.13016008E+03</pdfrwt>
<pdfrwt beam="2">  1       -1 0.29903580E-01 0.13016008E+03</pdfrwt>
<totfact> 0.62031143E+03</totfact>
</mgrwt>
</event>
<event>
 6    1  0.7457796E-006  0.3076844E+03  0.7546771E-02  0.1081461E+00
          1   -1    0    0  501    0  0.00000000000E+00  0.00000000000E+00  0.49440110753E+02  0.49440110753E+02  0.00000000000E+00 0. -1.
         -1   -1    0    0    0  501 -0.00000000000E+00 -0.00000000000E+00 -0.47870882918E+03  0.47870882918E+03  0.00000000000E+00 0.  1.
          5    1    1    2  502    0 -0.34637016590E+01  0.31594923918E+02 -0.97980068373E+02  0.10311362783E+03  0.47000000000E+01 0.  1.
         -5    1    1    2    0  502 -0.53104230017E+02 -0.11094233342E+03 -0.21623837944E+03  0.24881597081E+03  0.47000000000E+01 0.  1.
        -11    1    1    2    0    0  0.82066828946E+01  0.43635697295E+02 -0.10664266346E+03  0.11551658492E+03  0.00000000000E+00 0.  1.
         11    1    1    2    0    0  0.48361248782E+02  0.35711712205E+02 -0.84076071607E+01  0.60702756367E+02  0.00000000000E+00 0. -1.
<mgrwt>
<rscale>  0 0.30768437E+03</rscale>
<asrwt>0</asrwt>
<pdfrwt beam="1">  1        1 0.76061709E-02 0.30768437E+03</pdfrwt>
<pdfrwt beam="2">  1       -1 0.73647512E-01 0.30768437E+03</pdfrwt>
<totfact> 0.18047850E+03</totfact>
</mgrwt>
</event>
<event>
 6    1  0.7457796E-006  0.1618183E+03  0.7546771E-02  0.1193847E+00
          1   -1    0    0  501    0  0.00000000000E+00  0.00000000000E+00  0.75765461359E+02  0.75765461359E+02  0.00000000000E+00 0. -1.
         -1   -1    0    0    0  501 -0.00000000000E+00 -0.00000000000E+00 -0.34117601306E+03  0.34117601306E+03  0.00000000000E+00 0.  1.
          5    1    1    2  502    0  0.35799909217E+02  0.12528417904E+03 -0.15509970098E+03  0.20262222549E+03  0.47000000000E+01 0. -1.
         -5    1    1    2    0  502 -0.11707012438E+02 -0.25386369259E+02 -0.61779644470E+02  0.67973056097E+02  0.47000000000E+01 0. -1.
        -11    1    1    2    0    0  0.30181576021E+02 -0.92925482354E+01 -0.44208454824E+01  0.31887659974E+02  0.00000000000E+00 0. -1.
         11    1    1    2    0    0 -0.54274472800E+02 -0.90605261544E+02 -0.44110360767E+02  0.11445853286E+03  0.00000000000E+00 0.  1.
<mgrwt>
<rscale>  0 0.15552190E+03</rscale>
<asrwt>0</asrwt>
<pdfrwt beam="1">  1        1 0.11656225E-01 0.16181828E+03</pdfrwt>
<pdfrwt beam="2">  1       -1 0.52488618E-01 0.16181828E+03</pdfrwt>
<totfact> 0.19187525E+03</totfact>
</mgrwt>
</event>
<event>
 6    1  0.7457796E-006  0.1361964E+03  0.7546771E-02  0.1236264E+00
         -1   -1    0    0    0  501 -0.00000000000E+00  0.00000000000E+00  0.14271433792E+03  0.14271433792E+03  0.00000000000E+00 0.  1.
          1   -1    0    0  501    0  0.00000000000E+00 -0.00000000000E+00 -0.93863598773E+02  0.93863598773E+02  0.00000000000E+00 0. -1.
          5    1    1    2  502    0  0.68644823904E+00  0.10609928045E+02 -0.48590377238E+02  0.49961550661E+02  0.47000000000E+01 0. -1.
         -5    1    1    2    0  502  0.24713598838E+02 -0.63604536270E+01  0.88111869119E+02  0.91853191656E+02  0.47000000000E+01 0.  1.
        -11    1    1    2    0    0 -0.20113736335E+01  0.24382777085E+02  0.39891025439E+02  0.46795933080E+02  0.00000000000E+00 0.  1.
         11    1    1    2    0    0 -0.23388673443E+02 -0.28632251503E+02 -0.30561778170E+02  0.47967261298E+02  0.00000000000E+00 0. -1.
<mgrwt>
<rscale>  0 0.12423831E+03</rscale>
<asrwt>0</asrwt>
<pdfrwt beam="2">  1        1 0.14440554E-01 0.13619645E+03</pdfrwt>
<pdfrwt beam="1">  1       -1 0.21956052E-01 0.13619645E+03</pdfrwt>
<totfact> 0.64308917E+03</totfact>
</mgrwt>
</event>
<event>
 6    1  0.7457796E-006  0.1445472E+03  0.7546771E-02  0.1216568E+00
         -1   -1    0    0    0  501 -0.00000000000E+00  0.00000000000E+00  0.90440283000E+02  0.90440283000E+02  0.00000000000E+00 0.  1.
          1   -1    0    0  501    0  0.00000000000E+00 -0.00000000000E+00 -0.26874436371E+03  0.26874436371E+03  0.00000000000E+00 0. -1.
          5    1    1    2  502    0  0.18621657951E+02 -0.65430555146E+02 -0.54703394174E+02  0.87421250424E+02  0.47000000000E+01 0.  1.
         -5    1    1    2    0  502  0.13999152618E+02  0.58548330708E+00  0.55181994067E+02  0.57126714713E+02  0.47000000000E+01 0.  1.
        -11    1    1    2    0    0 -0.10887383638E+02  0.11610739176E+01  0.96218009380E+01  0.14576085497E+02  0.00000000000E+00 0.  1.
         11    1    1    2    0    0 -0.21733426931E+02  0.63683997921E+02 -0.18840448154E+03  0.20006059607E+03  0.00000000000E+00 0. -1.
<mgrwt>
<rscale>  0 0.13761994E+03</rscale>
<asrwt>0</asrwt>
<pdfrwt beam="2">  1        1 0.41345287E-01 0.14454717E+03</pdfrwt>
<pdfrwt beam="1">  1       -1 0.13913890E-01 0.14454717E+03</pdfrwt>
<totfact> 0.35353282E+03</totfact>
</mgrwt>
</event>
<event>
 6    1  0.7457796E-006  0.1274915E+03  0.7546771E-02  0.1245545E+00
         -1   -1    0    0    0  501 -0.00000000000E+00  0.00000000000E+00  0.33296968820E+02  0.33296968820E+02  0.00000000000E+00 0.  1.
          1   -1    0    0  501    0  0.00000000000E+00 -0.00000000000E+00 -0.39733974379E+03  0.39733974379E+03  0.00000000000E+00 0. -1.
          5    1    1    2  502    0 -0.14308466614E+02 -0.54370669636E+01  0.17568864272E+02  0.23770757368E+02  0.47000000000E+01 0.  1.
         -5    1    1    2    0  502  0.35366347442E+02  0.19071359633E+02 -0.17098235274E+03  0.17570301715E+03  0.47000000000E+01 0.  1.
        -11    1    1    2    0    0 -0.53424659276E+02  0.53635223653E+00 -0.82804710401E+02  0.98544923548E+02  0.00000000000E+00 0. -1.
         11    1    1    2    0    0  0.32366778448E+02 -0.14170644906E+02 -0.12782457610E+03  0.13261801454E+03  0.00000000000E+00 0.  1.
<mgrwt>
<rscale>  0 0.11852815E+03</rscale>
<asrwt>0</asrwt>
<pdfrwt beam="2">  1        1 0.61129191E-01 0.12749152E+03</pdfrwt>
<pdfrwt beam="1">  1       -1 0.51226107E-02 0.12749152E+03</pdfrwt>
<totfact> 0.98002804E+03</totfact>
</mgrwt>
</event>
<event>
 6    1  0.7457796E-006  0.3669483E+03  0.7546771E-02  0.1056909E+00
          2   -1    0    0  501    0  0.00000000000E+00  0.00000000000E+00  0.18733150328E+03  0.18733150328E+03  0.00000000000E+00 0. -1.
         -2   -1    0    0    0  501 -0.00000000000E+00 -0.00000000000E+00 -0.71023492306E+03  0.71023492306E+03  0.00000000000E+00 0.  1.
          5    1    1    2  502    0 -0.25751169378E+03  0.22450347366E+03 -0.32067612422E+03  0.46858227534E+03  0.47000000000E+01 0.  1.
         -5    1    1    2    0  502  0.10936278223E+02  0.16799936941E+02 -0.31682548910E+01  0.20831896256E+02  0.47000000000E+01 0.  1.
        -11    1    1    2    0    0  0.11696654440E+02 -0.67898766949E+01  0.91614737921E+01  0.16335444673E+02  0.00000000000E+00 0.  1.
         11    1    1    2    0    0  0.23487876112E+03 -0.23451353390E+03 -0.20822051447E+03  0.39181681007E+03  0.00000000000E+00 0. -1.
<mgrwt>
<rscale>  0 0.36426180E+03</rscale>
<asrwt>0</asrwt>
<pdfrwt beam="1">  1        2 0.28820231E-01 0.36694829E+03</pdfrwt>
<pdfrwt beam="2">  1       -2 0.10926691E+00 0.36694829E+03</pdfrwt>
<totfact> 0.12760391E+02</totfact>
</mgrwt>
</event>
<event>
 6    1  0.7457796E-006  0.1688184E+03  0.7546771E-02  0.1193455E+00
          3   -1    0    0  501    0  0.00000000000E+00  0.00000000000E+00  0.10382647042E+03  0.10382647042E+03  0.00000000000E+00 0. -1.
         -3   -1    0    0    0  501 -0.00000000000E+00 -0.00000000000E+00 -0.22077064411E+03  0.22077064411E+03  0.00000000000E+00 0.  1.
          5    1    1    2  502    0  0.74849174016E+02  0.27331833872E+02 -0.30913708580E+02  0.85598921557E+02  0.47000000000E+01 0. -1.
         -5    1    1    2    0  502 -0.14375417953E+02 -0.83254087237E+02 -0.79619025045E+02  0.11618594937E+03  0.47000000000E+01 0.  1.
        -11    1    1    2    0    0 -0.53522830400E+01  0.62310557297E+02 -0.20040733905E+02  0.65672547536E+02  0.00000000000E+00 0. -1.
         11    1    1    2    0    0 -0.55121473022E+02 -0.63883039324E+01  0.13629293835E+02  0.57139696059E+02  0.00000000000E+00 0.  1.
<mgrwt>
<rscale>  0 0.15585727E+03</rscale>
<asrwt>0</asrwt>
<pdfrwt beam="1">  1        3 0.15973304E-01 0.16881839E+03</pdfrwt>
<pdfrwt beam="2">  1       -3 0.33964714E-01 0.16881839E+03</pdfrwt>
<totfact> 0.67561075E+02</totfact>
</mgrwt>
</event>
<event>
 6    1  0.7457796E-006  0.1352680E+03  0.7546771E-02  0.1231868E+00
         -4   -1    0    0    0  501 -0.00000000000E+00  0.00000000000E+00  0.45504994622E+02  0.45504994622E+02  0.00000000000E+00 0. -1.
          4   -1    0    0  501    0  0.00000000000E+00 -0.00000000000E+00 -0.32189917883E+03  0.32189917883E+03  0.00000000000E+00 0.  1.
          5    1    1    2  502    0 -0.32393937135E+02  0.34862554817E+02 -0.33434051485E+02  0.58349727421E+02  0.47000000000E+01 0.  1.
         -5    1    1    2    0  502  0.82461321098E+02 -0.21980419908E+02 -0.10183117527E+03  0.13294617931E+03  0.47000000000E+01 0.  1.
        -11    1    1    2    0    0 -0.64852427378E+02  0.55367189606E+01 -0.50301665844E+02  0.82260258815E+02  0.00000000000E+00 0. -1.
         11    1    1    2    0    0  0.14785043415E+02 -0.18418853869E+02 -0.90827291606E+02  0.93848007902E+02  0.00000000000E+00 0.  1.
<mgrwt>
<rscale>  0 0.12707082E+03</rscale>
<asrwt>0</asrwt>
<pdfrwt beam="2">  1        4 0.49522950E-01 0.13526804E+03</pdfrwt>
<pdfrwt beam="1">  1       -4 0.70007684E-02 0.13526804E+03</pdfrwt>
<totfact> 0.90049748E+02</totfact>
</mgrwt>
</event>
<event>
 6    1  0.7457796E-006  0.1427556E+03  0.7546771E-02  0.1220189E+00
         -4   -1    0    0    0  501 -0.00000000000E+00  0.00000000000E+00  0.85651062357E+02  0.85651062357E+02  0.00000000000E+00 0.  1.
          4   -1    0    0  501    0  0.00000000000E+00 -0.00000000000E+00 -0.28584785584E+03  0.28584785584E+03  0.00000000000E+00 0. -1.
          5    1    1    2  502    0 -0.29510377038E+02  0.25963216054E+02 -0.31257314301E+01  0.39709081300E+02  0.47000000000E+01 0.  1.
         -5    1    1    2    0  502  0.98314189014E+02 -0.30539354591E+02  0.10834970530E+01  0.10306112704E+03  0.47000000000E+01 0.  1.
        -11    1    1    2    0    0 -0.43791779727E+02  0.31510677844E+02 -0.42181324000E+02  0.68482894830E+02  0.00000000000E+00 0.  1.
         11    1    1    2    0    0 -0.25012032249E+02 -0.26934539307E+02 -0.15597323510E+03  0.16024581502E+03  0.00000000000E+00 0. -1.
<mgrwt>
<rscale>  0 0.13502146E+03</rscale>
<asrwt>0</asrwt>
<pdfrwt beam="2">  1        4 0.43976592E-01 0.14275560E+03</pdfrwt>
<pdfrwt beam="1">  1       -4 0.13177087E-01 0.14275560E+03</pdfrwt>
<totfact> 0.39915512E+02</totfact>
</mgrwt>
</event>
<event>
 6    1  0.7457796E-006  0.1610235E+03  0.7546771E-02  0.1194931E+00
         -1   -1    0    0    0  501 -0.00000000000E+00  0.00000000000E+00  0.49853928562E+02  0.49853928562E+02  0.00000000000E+00 0.  1.
          1   -1    0    0  501    0  0.00000000000E+00 -0.00000000000E+00 -0.44717717188E+03  0.44717717188E+03  0.00000000000E+00 0. -1.
          5    1    1    2  502    0  0.60877527608E+02 -0.41422827045E+02 -0.55910824714E+02  0.92574479682E+02  0.47000000000E+01 0. -1.
         -5    1    1    2    0  502 -0.52032572579E+02 -0.59704907609E+02 -0.14105003376E+03  0.16183098166E+03  0.47000000000E+01 0. -1.
        -11    1    1    2    0    0 -0.49463714505E+02  0.44670302089E+02 -0.10968111822E+03  0.12834345576E+03  0.00000000000E+00 0. -1.
         11    1    1    2    0    0  0.40618759476E+02  0.56457432564E+02 -0.90681266624E+02  0.11428218334E+03  0.00000000000E+00 0.  1.
<mgrwt>
<rscale>  0 0.15460063E+03</rscale>
<asrwt>0</asrwt>
<pdfrwt beam="2">  1        1 0.68796490E-01 0.16102347E+03</pdfrwt>
<pdfrwt beam="1">  1       -1 0.76698350E-02 0.16102347E+03</pdfrwt>
<totfact> 0.46794005E+03</totfact>
</mgrwt>
</event>
<event>
 6    1  0.7457796E-006  0.1524781E+03  0.7546771E-02  0.1206107E+00
         -2   -1    0    0    0  501 -0.00000000000E+00  0.00000000000E+00  0.97374680419E+02  0.97374680419E+02  0.00000000000E+00 0.  1.
          2   -1    0    0  501    0  0.00000000000E+00 -0.00000000000E+00 -0.20002002483E+03  0.20002002483E+03  0.00000000000E+00 0. -1.
          5    1    1    2  502    0 -0.36932094077E+02  0.16952884513E+02 -0.87452852538E+02  0.96547766847E+02  0.47000000000E+01 0.  1.
         -5    1    1    2    0  502 -0.50377746950E+02 -0.13647288119E+02  0.36899404417E+02  0.64092292104E+02  0.47000000000E+01 0.  1.
        -11    1    1    2    0    0 -0.82019177649E+01  0.18483770279E+02  0.80901517775E+01  0.21780077469E+02  0.00000000000E+00 0.  1.
         11    1    1    2    0    0  0.95511758791E+02 -0.21789366673E+02 -0.60182048063E+02  0.11497456883E+03  0.00000000000E+00 0. -1.
<mgrwt>
<rscale>  0 0.14550597E+03</rscale>
<asrwt>0</asrwt>
<pdfrwt beam="2">  1        2 0.30772311E-01 0.15247812E+03</pdfrwt>
<pdfrwt beam="1">  1       -2 0.14980720E-01 0.15247812E+03</pdfrwt>
<totfact> 0.56203596E+03</totfact>
</mgrwt>
</event>
<event>
 6    1  0.7457796E-006  0.1812271E+03  0.7546771E-02  0.1170415E+00
          3   -1    0    0  501    0  0.00000000000E+00  0.00000000000E+00  0.14507684048E+03  0.14507684048E+03  0.00000000000E+00 0. -1.
         -3   -1    0    0    0  501 -0.00000000000E+00 -0.00000000000E+00 -0.27199011169E+03  0.27199011169E+03  0.00000000000E+00 0.  1.
          5    1    1    2  502    0 -0.43058346254E+02 -0.23620542960E+02 -0.21485079049E+01  0.49382763370E+02  0.47000000000E+01 0. -1.
         -5    1    1    2    0  502 -0.89790901159E+02  0.59908107913E+02 -0.16455958425E+03  0.19685866528E+03  0.47000000000E+01 0.  1.
        -11    1    1    2    0    0 -0.87895927571E+01  0.65370138015E+01  0.18262550365E+02  0.21295779773E+02  0.00000000000E+00 0.  1.
         11    1    1    2    0    0  0.14163884017E+03 -0.42824578755E+02  0.21532270581E+02  0.14952974375E+03  0.00000000000E+00 0. -1.
<mgrwt>
<rscale>  0 0.17732766E+03</rscale>
<asrwt>0</asrwt>
<pdfrwt beam="1">  1        3 0.22319514E-01 0.18122708E+03</pdfrwt>
<pdfrwt beam="2">  1       -3 0.41844632E-01 0.18122708E+03</pdfrwt>
<totfact> 0.25342316E+02</totfact>
</mgrwt>
</event>
<event>
 6    1  0.7457796E-006  0.1240587E+03  0.7546771E-02  0.1244050E+00
          2   -1    0    0  501    0  0.00000000000E+00  0.00000000000E+00  0.11754091024E+03  0.11754091024E+03  0.00000000000E+00 0. -1.
         -2   -1    0    0    0  501 -0.00000000000E+00 -0.00000000000E+00 -0.16789762190E+03  0.16789762190E+03  0.00000000000E+00 0.  1.
          5    1    1    2  502    0  0.22885929542E+02  0.39601288654E+01  0.13425014622E+02  0.27235443988E+02  0.47000000000E+01 0. -1.
         -5    1    1    2    0  502 -0.22941545622E+02 -0.59614647979E+02 -0.12127265197E+03  0.13714724527E+03  0.47000000000E+01 0.  1.
        -11    1    1    2    0    0 -0.35052967766E+02 -0.45154967600E+01  0.99512461011E+01  0.36716856608E+02  0.00000000000E+00 0.  1.
         11    1    1    2    0    0  0.35108583846E+02  0.60170015874E+02  0.47539679591E+02  0.84338986273E+02  0.00000000000E+00 0. -1.
<mgrwt>
<rscale>  0 0.11942398E+03</rscale>
<asrwt>0</asrwt>
<pdfrwt beam="1">  1        2 0.18083217E-01 0.12405868E+03</pdfrwt>
<pdfrwt beam="2">  1       -2 0.25830403E-01 0.12405868E+03</pdfrwt>
<totfact> 0.39878500E+03</totfact>
</mgrwt>
</event>
<event>
 6    1  0.7457796E-006  0.1259614E+03  0.7546771E-02  0.1249160E+00
         -1   -1    0    0    0  501 -0.00000000000E+00  0.00000000000E+00  0.42305929133E+03  0.42305929133E+03  0.00000000000E+00 0.  1.
          1   -1    0    0  501    0  0.00000000000E+00 -0.00000000000E+00 -0.43962657439E+02  0.43962657439E+02  0.00000000000E+00 0. -1.
          5    1    1    2  502    0  0.10530634735E+02 -0.47467160928E+02  0.52667176382E+02  0.71832771787E+02  0.47000000000E+01 0. -1.
         -5    1    1    2    0  502 -0.20671571227E+02  0.35937921743E+02  0.29526285848E+03  0.29819640117E+03  0.47000000000E+01 0.  1.
        -11    1    1    2    0    0 -0.29674668837E+02 -0.68061266263E+01  0.41967008727E+02  0.51847267543E+02  0.00000000000E+00 0.  1.
         11    1    1    2    0    0  0.39815605328E+02  0.18335365812E+02 -0.10800409694E+02  0.45145508267E+02  0.00000000000E+00 0. -1.
<mgrwt>
<rscale>  0 0.11639834E+03</rscale>
<asrwt>0</asrwt>
<pdfrwt beam="2">  1        1 0.67634861E-02 0.12596142E+03</pdfrwt>
<pdfrwt beam="1">  1       -1 0.65086042E-01 0.12596142E+03</pdfrwt>
<totfact> 0.26130975E+03</totfact>
</mgrwt>
</event>
<event>
 6    1  0.7457796E-006  0.1384325E+03  0.7546771E-02  0.1226658E+00
         -1   -1    0    0    0  501 -0.00000000000E+00  0.00000000000E+00  0.46298899978E+02  0.46298899978E+02  0.00000000000E+00 0.  1.
          1   -1    0    0  501    0  0.00000000000E+00 -0.00000000000E+00 -0.42762114481E+03  0.42762114481E+03  0.00000000000E+00 0. -1.
          5    1    1    2  502    0  0.21427935136E+02 -0.29294762258E+01 -0.89049475625E+02  0.91758581856E+02  0.47000000000E+01 0. -1.
         -5    1    1    2    0  502 -0.57632431155E+02  0.50198179344E+02 -0.73359936215E+01  0.76923735822E+02  0.47000000000E+01 0. -1.
        -11    1    1    2    0    0  0.14678323346E+02 -0.72569364342E+02 -0.22278154790E+03  0.23476239883E+03  0.00000000000E+00 0. -1.
         11    1    1    2    0    0  0.21526172674E+02  0.25300661224E+02 -0.62155227684E+02  0.70475328284E+02  0.00000000000E+00 0.  1.
<mgrwt>
<rscale>  0 0.13053913E+03</rscale>
<asrwt>0</asrwt>
<pdfrwt beam="2">  1        1 0.65787870E-01 0.13843253E+03</pdfrwt>
<pdfrwt beam="1">  1       -1 0.71229075E-02 0.13843253E+03</pdfrwt>
<totfact> 0.54955527E+03</totfact>
</mgrwt>
</event>
<event>
 6    1  0.7457796E-006  0.2370871E+03  0.7546771E-02  0.1121749E+00
         -2   -1    0    0    0  501 -0.00000000000E+00  0.00000000000E+00  0.17231619342E+03  0.17231619342E+03  0.00000000000E+00 0.  1.
          2   -1    0    0  501    0  0.00000000000E+00 -0.00000000000E+00 -0.81551120715E+02  0.81551120715E+02  0.00000000000E+00 0. -1.
          5    1    1    2  502    0 -0.71940319441E+01 -0.90061842554E+01 -0.28367976374E+02  0.30978985361E+02  0.47000000000E+01 0.  1.
         -5    1    1    2    0  502  0.31886771144E+02  0.22269648409E+02  0.12085281900E+03  0.12704407611E+03  0.47000000000E+01 0.  1.
        -11    1    1    2    0    0  0.14326290955E+02 -0.19245872286E+02  0.34665457667E+02  0.42158512401E+02  0.00000000000E+00 0.  1.
         11    1    1    2    0    0 -0.39019030154E+02  0.59824081325E+01 -0.36385227587E+02  0.53685740265E+02  0.00000000000E+00 0. -1.
<mgrwt>
<rscale>  0 0.23708715E+03</rscale>
<asrwt>0</asrwt>
<pdfrwt beam="2">  1        2 0.12546326E-01 0.23708715E+03</pdfrwt>
<pdfrwt beam="1">  1       -2 0.26510184E-01 0.23708715E+03</pdfrwt>
<totfact> 0.60937265E+03</totfact>
</mgrwt>
</event>
<event>
 6    1  0.7457796E-006  0.2436772E+03  0.7546771E-02  0.1117367E+00
         -1   -1    0    0    0  501 -0.00000000000E+00  0.00000000000E+00  0.22562098013E+03  0.22562098013E+03  0.00000000000E+00 0.  1.
          1   -1    0    0  501    0  0.00000000000E+00 -0.00000000000E+00 -0.65794591513E+02  0.65794591513E+02  0.00000000000E+00 0. -1.
          5    1    1    2  502    0 -0.16245480846E+02  0.33993073049E+00 -0.23041978078E+02  0.28584155656E+02  0.47000000000E+01 0.  1.
         -5    1    1    2    0  502  0.39999238757E+02  0.42269839167E+02  0.13174743512E+03  0.14410466705E+03  0.47000000000E+01 0.  1.
        -11    1    1    2    0    0  0.83660644291E+01 -0.65449373812E+02  0.21404508351E+02  0.69366883627E+02  0.00000000000E+00 0. -1.
         11    1    1    2    0    0 -0.32119822340E+02  0.22839603915E+02  0.29716423220E+02  0.49359865307E+02  0.00000000000E+00 0.  1.
<mgrwt>
<rscale>  0 0.24367717E+03</rscale>
<asrwt>0</asrwt>
<pdfrwt beam="2">  1        1 0.10122245E-01 0.24367717E+03</pdfrwt>
<pdfrwt beam="1">  1       -1 0.34710920E-01 0.24367717E+03</pdfrwt>
<totfact> 0.49471730E+03</totfact>
</mgrwt>
</event>
<event>
 6    1  0.7457796E-006  0.1462808E+03  0.7546771E-02  0.1214658E+00
         -1   -1    0    0    0  501 -0.00000000000E+00  0.00000000000E+00  0.22059289728E+02  0.22059289728E+02  0.00000000000E+00 0.  1.
          1   -1    0    0  501    0  0.00000000000E+00 -0.00000000000E+00 -0.81251031282E+03  0.81251031282E+03  0.00000000000E+00 0. -1.
          5    1    1    2  502    0 -0.83080739447E+02  0.17667902145E+02 -0.32782786802E+03  0.33868534820E+03  0.47000000000E+01 0. -1.
         -5    1    1    2    0  502  0.11509798744E+02 -0.43178394322E+02 -0.54273905876E+02  0.70459889742E+02  0.47000000000E+01 0. -1.
        -11    1    1    2    0    0  0.10332226465E+01  0.24634624480E+02 -0.23156583378E+02  0.33825428690E+02  0.00000000000E+00 0.  1.
         11    1    1    2    0    0  0.70537718057E+02  0.87586769720E+00 -0.38519266582E+03  0.39159893592E+03  0.00000000000E+00 0. -1.
<mgrwt>
<rscale>  0 0.13901667E+03</rscale>
<asrwt>0</asrwt>
<pdfrwt beam="2">  1        1 0.12500158E+00 0.14628076E+03</pdfrwt>
<pdfrwt beam="1">  1       -1 0.33937371E-02 0.14628076E+03</pdfrwt>
<totfact> 0.68582556E+03</totfact>
</mgrwt>
</event>
<event>
 6    1  0.7457796E-006  0.3877783E+03  0.7546771E-02  0.1048096E+00
         -2   -1    0    0    0  501 -0.00000000000E+00  0.00000000000E+00  0.27324887670E+03  0.27324887670E+03  0.00000000000E+00 0.  1.
          2   -1    0    0  501    0  0.00000000000E+00 -0.00000000000E+00 -0.13757790624E+03  0.13757790624E+03  0.00000000000E+00 0. -1.
          5    1    1    2  502    0  0.53511681022E+02  0.15780499995E+03  0.12836413543E+03  0.21039334419E+03  0.47000000000E+01 0.  1.
         -5    1    1    2    0  502  0.10864313988E+02 -0.21158656097E+02  0.54073271502E+00  0.24250864688E+02  0.47000000000E+01 0.  1.
        -11    1    1    2    0    0 -0.72025438694E+02 -0.57722607509E+02 -0.16016856386E+02  0.93680856770E+02  0.00000000000E+00 0.  1.
         11    1    1    2    0    0  0.76494436829E+01 -0.78923736345E+02  0.22782958701E+02  0.82501717283E+02  0.00000000000E+00 0. -1.
<mgrwt>
<rscale>  0 0.38777833E+03</rscale>
<asrwt>0</asrwt>
<pdfrwt beam="2">  1        2 0.21165832E-01 0.38777833E+03</pdfrwt>
<pdfrwt beam="1">  1       -2 0.42038289E-01 0.38777833E+03</pdfrwt>
<totfact> 0.14171671E+03</totfact>
</mgrwt>
</event>
<event>
 6    1  0.7457796E-006  0.1335935E+03  0.7546771E-02  0.1234387E+00
          2   -1    0    0  501    0  0.00000000000E+00  0.00000000000E+00  0.54993182544E+03  0.54993182544E+03  0.00000000000E+00 0. -1.
         -2   -1    0    0    0  501 -0.00000000000E+00 -0.00000000000E+00 -0.25750744557E+02  0.25750744557E+02  0.00000000000E+00 0.  1.
          5    1    1    2  502    0  0.41493199706E+02 -0.90901119931E+01  0.50018974709E+02  0.65789844117E+02  0.47000000000E+01 0. -1.
         -5    1    1    2    0  502 -0.67984753883E+02  0.48081114072E+02  0.22498666457E+03  0.23994751411E+03  0.47000000000E+01 0. -1.
        -11    1    1    2    0    0  0.15533841826E+02 -0.69606478866E+02  0.17148677745E+03  0.18572581130E+03  0.00000000000E+00 0. -1.
         11    1    1    2    0    0  0.10957712350E+02  0.30615476787E+02  0.77688664151E+02  0.84219400476E+02  0.00000000000E+00 0.  1.
<mgrwt>
<rscale>  0 0.12543726E+03</rscale>
<asrwt>0</asrwt>
<pdfrwt beam="1">  1        2 0.84604888E-01 0.13359353E+03</pdfrwt>
<pdfrwt beam="2">  1       -2 0.39616534E-02 0.13359353E+03</pdfrwt>
<totfact> 0.14732210E+04</totfact>
</mgrwt>
</event>
<event>
 6    1  0.7457796E-006  0.2200498E+03  0.7546771E-02  0.1137528E+00
          2   -1    0    0  501    0  0.00000000000E+00  0.00000000000E+00  0.49048668304E+03  0.49048668304E+03  0.00000000000E+00 0. -1.
         -2   -1    0    0    0  501 -0.00000000000E+00 -0.00000000000E+00 -0.99781396022E+02  0.99781396022E+02  0.00000000000E+00 0.  1.
          5    1    1    2  502    0 -0.49419105507E+01  0.62109885126E+02  0.52772454985E+02  0.81786810156E+02  0.47000000000E+01 0. -1.
         -5    1    1    2    0  502  0.14583567465E+03  0.50027882106E+02  0.60330201114E+02  0.16562806572E+03  0.47000000000E+01 0.  1.
        -11    1    1    2    0    0 -0.23275763478E+02 -0.73553136923E+02  0.97944430235E+02  0.12467933482E+03  0.00000000000E+00 0.  1.
         11    1    1    2    0    0 -0.11761800062E+03 -0.38584630309E+02  0.17965820069E+03  0.21817386837E+03  0.00000000000E+00 0. -1.
<mgrwt>
<rscale>  0 0.21518035E+03</rscale>
<asrwt>0</asrwt>
<pdfrwt beam="1">  1        2 0.75459488E-01 0.22004979E+03</pdfrwt>
<pdfrwt beam="2">  1       -2 0.15350984E-01 0.22004979E+03</pdfrwt>
<totfact> 0.20818464E+03</totfact>
</mgrwt>
</event>
<event>
 6    1  0.7457796E-006  0.2306721E+03  0.7546771E-02  0.1126168E+00
         -1   -1    0    0    0  501 -0.00000000000E+00  0.00000000000E+00  0.11090223529E+03  0.11090223529E+03  0.00000000000E+00 0.  1.
          1   -1    0    0  501    0  0.00000000000E+00 -0.00000000000E+00 -0.11994708219E+03  0.11994708219E+03  0.00000000000E+00 0. -1.
          5    1    1    2  502    0 -0.59469171780E+02 -0.76366855219E+01  0.47419429932E+02  0.76587164023E+02  0.47000000000E+01 0.  1.
         -5    1    1    2    0  502  0.17533910736E+02 -0.10815803764E+02 -0.52552059788E+02  0.56641227253E+02  0.47000000000E+01 0.  1.
        -11    1    1    2    0    0  0.36899374288E+02 -0.24067486718E+02 -0.24174419042E+02  0.50251470385E+02  0.00000000000E+00 0. -1.
         11    1    1    2    0    0  0.50358867558E+01  0.42519976004E+02  0.20262202002E+02  0.47369455821E+02  0.00000000000E+00 0.  1.
<mgrwt>
<rscale>  0 0.23067206E+03</rscale>
<asrwt>0</asrwt>
<pdfrwt beam="2">  1        1 0.18453397E-01 0.23067206E+03</pdfrwt>
<pdfrwt beam="1">  1       -1 0.17061882E-01 0.23067206E+03</pdfrwt>
<totfact> 0.72694186E+03</totfact>
</mgrwt>
</event>
<event>
 6    1  0.7457796E-006  0.2605881E+03  0.7546771E-02  0.1106790E+00
         -2   -1    0    0    0  501 -0.00000000000E+00  0.00000000000E+00  0.23242848176E+02  0.23242848176E+02  0.00000000000E+00 0.  1.
          2   -1    0    0  501    0  0.00000000000E+00 -0.00000000000E+00 -0.73039820869E+03  0.73039820869E+03  0.00000000000E+00 0. -1.
          5    1    1    2  502    0  0.36763251501E+02  0.29706727447E+01 -0.14256726868E+03  0.14733593471E+03  0.47000000000E+01 0. -1.
         -5    1    1    2    0  502 -0.10429301727E+03  0.79942510574E+01 -0.32093083649E+03  0.33757907712E+03  0.47000000000E+01 0. -1.
        -11    1    1    2    0    0  0.34683757967E+02 -0.21692175426E+02 -0.22646815836E+03  0.23013330983E+03  0.00000000000E+00 0. -1.
         11    1    1    2    0    0  0.32846007798E+02  0.10727251624E+02 -0.17189096984E+02  0.38592735208E+02  0.00000000000E+00 0.  1.
<mgrwt>
<rscale>  0 0.26058806E+03</rscale>
<asrwt>0</asrwt>
<pdfrwt beam="2">  1        2 0.11236895E+00 0.26058806E+03</pdfrwt>
<pdfrwt beam="1">  1       -2 0.35758231E-02 0.26058806E+03</pdfrwt>
<totfact> 0.12865480E+04</totfact>
</mgrwt>
</event>
<event>
 6    1  0.7457796E-006  0.1381846E+03  0.7546771E-02  0.1227487E+00
          1   -1    0    0  501    0  0.00000000000E+00  0.00000000000E+00  0.34478238975E+03  0.34478238975E+03  0.00000000000E+00 0. -1.
         -1   -1    0    0    0  501 -0.00000000000E+00 -0.00000000000E+00 -0.44042340325E+02  0.44042340325E+02  0.00000000000E+00 0.  1.
          5    1    1    2  502    0 -0.27694195826E+02 -0.19423980476E+02  0.11395702371E+03  0.11896450207E+03  0.47000000000E+01 0. -1.
         -5    1    1    2    0  502  0.80722057417E+02 -0.62783072458E+01  0.49250050967E+02  0.94884799708E+02  0.47000000000E+01 0. -1.
        -11    1    1    2    0    0 -0.56732054339E+01  0.34083816266E+02  0.11819556767E+03  0.12314253533E+03  0.00000000000E+00 0. -1.
         11    1    1    2    0    0 -0.47354656157E+02 -0.83815285437E+01  0.19337407077E+02  0.51832892963E+02  0.00000000000E+00 0.  1.
<mgrwt>
<rscale>  0 0.12997891E+03</rscale>
<asrwt>0</asrwt>
<pdfrwt beam="1">  1        1 0.53043443E-01 0.13818457E+03</pdfrwt>
<pdfrwt beam="2">  1       -1 0.67757449E-02 0.13818457E+03</pdfrwt>
<totfact> 0.77643206E+03</totfact>
</mgrwt>
</event>
<event>
 6    1  0.7457796E-006  0.1365727E+03  0.7546771E-02  0.1231069E+00
         -1   -1    0    0    0  501 -0.00000000000E+00  0.00000000000E+00  0.61461593207E+02  0.61461593207E+02  0.00000000000E+00 0.  1.
          1   -1    0    0  501    0  0.00000000000E+00 -0.00000000000E+00 -0.23578656041E+03  0.23578656041E+03  0.00000000000E+00 0. -1.
          5    1    1    2  502    0  0.54466015772E+01  0.27880460663E+02  0.20182521135E+02  0.35162618146E+02  0.47000000000E+01 0.  1.
         -5    1    1    2    0  502 -0.59969714399E+02 -0.20486344319E+02 -0.11404683254E+03  0.13055583848E+03  0.47000000000E+01 0.  1.
        -11    1    1    2    0    0  0.82248201982E+01 -0.36770042387E+02 -0.64022986030E+02  0.74287458058E+02  0.00000000000E+00 0. -1.
         11    1    1    2    0    0  0.46298292623E+02  0.29375926043E+02 -0.16437669766E+02  0.57242238933E+02  0.00000000000E+00 0.  1.
<mgrwt>
<rscale>  0 0.12759455E+03</rscale>
<asrwt>0</asrwt>
<pdfrwt beam="2">  1        1 0.36274856E-01 0.13657268E+03</pdfrwt>
<pdfrwt beam="1">  1       -1 0.94556297E-02 0.13657268E+03</pdfrwt>
<totfact> 0.75116347E+03</totfact>
</mgrwt>
</event>
<event>
 6    1  0.7457796E-006  0.1645533E+03  0.7546771E-02  0.1190508E+00
         -2   -1    0    0    0  501 -0.00000000000E+00  0.00000000000E+00  0.20305409641E+03  0.20305409641E+03  0.00000000000E+00 0.  1.
          2   -1    0    0  501    0  0.00000000000E+00 -0.00000000000E+00 -0.11821836882E+03  0.11821836882E+03  0.00000000000E+00 0. -1.
          5    1    1    2  502    0 -0.25846946032E+02 -0.43432780166E+01 -0.89534260657E+01  0.28092392589E+02  0.47000000000E+01 0.  1.
         -5    1    1    2    0  502  0.94775765768E+02  0.86210099629E+02  0.80187892090E+02  0.15121777373E+03  0.47000000000E+01 0.  1.
        -11    1    1    2    0    0  0.22571553471E+02 -0.20738949389E+02 -0.24805914979E+01  0.30752762185E+02  0.00000000000E+00 0.  1.
         11    1    1    2    0    0 -0.91500373207E+02 -0.61127872224E+02  0.16081853067E+02  0.11120953672E+03  0.00000000000E+00 0. -1.
<mgrwt>
<rscale>  0 0.15840634E+03</rscale>
<asrwt>0</asrwt>
<pdfrwt beam="2">  1        2 0.18187441E-01 0.16455329E+03</pdfrwt>
<pdfrwt beam="1">  1       -2 0.31239092E-01 0.16455329E+03</pdfrwt>
<totfact> 0.28666183E+03</totfact>
</mgrwt>
</event>
<event>
 6    1  0.7457796E-006  0.3306777E+03  0.7546771E-02  0.1072382E+00
         -1   -1    0    0    0  501 -0.00000000000E+00  0.00000000000E+00  0.78408318916E+03  0.78408318916E+03  0.00000000000E+00 0.  1.
          1   -1    0    0  501    0  0.00000000000E+00 -0.00000000000E+00 -0.18093528959E+03  0.18093528959E+03  0.00000000000E+00 0. -1.
          5    1    1    2  502    0  0.48793520570E+02 -0.15511334521E+02  0.37889893529E+02  0.63868170318E+02  0.47000000000E+01 0. -1.
         -5    1    1    2    0  502  0.12477178216E+03 -0.23667489217E+03  0.51476811656E+03  0.58016489556E+03  0.47000000000E+01 0. -1.
        -11    1    1    2    0    0 -0.79047283583E+02  0.67223715015E+02 -0.11035459411E+02  0.10435172383E+03  0.00000000000E+00 0. -1.
         11    1    1    2    0    0 -0.94518019148E+02  0.18496251168E+03  0.61525348888E+02  0.21663368904E+03  0.00000000000E+00 0.  1.
<mgrwt>
<rscale>  0 0.32720120E+03</rscale>
<asrwt>0</asrwt>
<pdfrwt beam="2">  1        1 0.27836199E-01 0.33067766E+03</pdfrwt>
<pdfrwt beam="1">  1       -1 0.12062818E+00 0.33067766E+03</pdfrwt>
<totfact> 0.10880504E+02</totfact>
</mgrwt>
</event>
<event>
 6    1  0.7457796E-006  0.1328894E+03  0.7546771E-02  0.1236129E+00
          2   -1    0    0  501    0  0.00000000000E+00  0.00000000000E+00  0.24490783553E+03  0.24490783553E+03  0.00000000000E+00 0. -1.
         -2   -1    0    0    0  501 -0.00000000000E+00 -0.00000000000E+00 -0.56473621678E+02  0.56473621678E+02  0.00000000000E+00 0.  1.
          5    1    1    2  502    0  0.44406208650E+02 -0.53489184215E+02  0.23375174569E+02  0.73494850029E+02  0.47000000000E+01 0. -1.
         -5    1    1    2    0  502 -0.43456916572E+02  0.83975290424E+01  0.93188467709E+02  0.10327246780E+03  0.47000000000E+01 0. -1.
        -11    1    1    2    0    0 -0.33088608954E+01  0.62439644969E+02  0.13894786021E+02  0.64052501145E+02  0.00000000000E+00 0.  1.
         11    1    1    2    0    0  0.23595688167E+01 -0.17347989797E+02  0.57975785548E+02  0.60561638228E+02  0.00000000000E+00 0. -1.
<mgrwt>
<rscale>  0 0.12432404E+03</rscale>
<asrwt>0</asrwt>
<pdfrwt beam="1">  1        2 0.37678128E-01 0.13288944E+03</pdfrwt>
<pdfrwt beam="2">  1       -2 0.86882496E-02 0.13288944E+03</pdfrwt>
<totfact> 0.10664531E+04</totfact>
</mgrwt>
</event>
<event>
 6    1  0.7457796E-006  0.1783194E+03  0.7546771E-02  0.1174877E+00
         -2   -1    0    0    0  501 -0.00000000000E+00  0.00000000000E+00  0.10845766352E+03  0.10845766352E+03  0.00000000000E+00 0.  1.
          2   -1    0    0  501    0  0.00000000000E+00 -0.00000000000E+00 -0.26056059070E+03  0.26056059070E+03  0.00000000000E+00 0. -1.
          5    1    1    2  502    0 -0.52675292410E+02  0.35921539268E+02 -0.66540200761E+02  0.92275304015E+02  0.47000000000E+01 0.  1.
         -5    1    1    2    0  502  0.41663853407E+02  0.90760140846E+02 -0.57560659890E+01  0.10014240931E+03  0.47000000000E+01 0.  1.
        -11    1    1    2    0    0  0.24215906506E+02 -0.12838793216E+03 -0.43137320463E+02  0.13758887916E+03  0.00000000000E+00 0.  1.
         11    1    1    2    0    0 -0.13204467504E+02  0.17062520412E+01 -0.36669339965E+02  0.39011661738E+02  0.00000000000E+00 0. -1.
<mgrwt>
<rscale>  0 0.17288062E+03</rscale>
<asrwt>0</asrwt>
<pdfrwt beam="2">  1        2 0.40086245E-01 0.17831945E+03</pdfrwt>
<pdfrwt beam="1">  1       -2 0.16685794E-01 0.17831945E+03</pdfrwt>
<totfact> 0.35671590E+03</totfact>
</mgrwt>
</event>
<event>
 6    1  0.7457796E-006  0.1519805E+03  0.7546771E-02  0.1206453E+00
          2   -1    0    0  501    0  0.00000000000E+00  0.00000000000E+00  0.27224503241E+02  0.27224503241E+02  0.00000000000E+00 0. -1.
         -2   -1    0    0    0  501 -0.00000000000E+00 -0.00000000000E+00 -0.71746186187E+03  0.71746186187E+03  0.00000000000E+00 0.  1.
          5    1    1    2  502    0  0.93045291177E+02  0.13546801596E+02 -0.18808267397E+03  0.21032861026E+03  0.47000000000E+01 0.  1.
         -5    1    1    2    0  502 -0.13109354849E+02 -0.46512402854E+02 -0.21600800926E+03  0.22139740032E+03  0.47000000000E+01 0.  1.
        -11    1    1    2    0    0 -0.56913745925E+02 -0.21762545485E+01 -0.25332226437E+03  0.25964606715E+03  0.00000000000E+00 0.  1.
         11    1    1    2    0    0 -0.23022190403E+02  0.35141855806E+02 -0.32824411027E+02  0.53314287388E+02  0.00000000000E+00 0. -1.
<mgrwt>
<rscale>  0 0.14523573E+03</rscale>
<asrwt>0</asrwt>
<pdfrwt beam="1">  1        2 0.41883853E-02 0.15198049E+03</pdfrwt>
<pdfrwt beam="2">  1       -2 0.11037874E+00 0.15198049E+03</pdfrwt>
<totfact> 0.13149602E+03</totfact>
</mgrwt>
</event>
<event>
 6    1  0.7457796E-006  0.1292249E+03  0.7546771E-02  0.1243643E+00
         -1   -1    0    0    0  501 -0.00000000000E+00  0.00000000000E+00  0.58655318426E+02  0.58655318426E+02  0.00000000000E+00 0.  1.
          1   -1    0    0  501    0  0.00000000000E+00 -0.00000000000E+00 -0.21446362217E+03  0.21446362217E+03  0.00000000000E+00 0. -1.
          5    1    1    2  502    0 -0.85063596837E+01 -0.27109839198E+02 -0.11854440685E+03  0.12199249130E+03  0.47000000000E+01 0. -1.
         -5    1    1    2    0  502  0.88470335470E+01 -0.56297176923E+01  0.31689453669E+02  0.33708681341E+02  0.47000000000E+01 0. -1.
        -11    1    1    2    0    0 -0.36710185843E+02  0.43654720134E+02 -0.42794761644E+02  0.71307530870E+02  0.00000000000E+00 0.  1.
         11    1    1    2    0    0  0.36369511980E+02 -0.10915163244E+02 -0.26158588913E+02  0.46110237087E+02  0.00000000000E+00 0. -1.
<mgrwt>
<rscale>  0 0.11966987E+03</rscale>
<asrwt>0</asrwt>
<pdfrwt beam="2">  1        1 0.32994404E-01 0.12922489E+03</pdfrwt>
<pdfrwt beam="1">  1       -1 0.90238951E-02 0.12922489E+03</pdfrwt>
<totfact> 0.90316820E+03</totfact>
</mgrwt>
</event>
<event>
 6    1  0.7457796E-006  0.2304851E+03  0.7546771E-02  0.1129340E+00
          1   -1    0    0  501    0  0.00000000000E+00  0.00000000000E+00  0.11843310344E+04  0.11843310344E+04  0.00000000000E+00 0. -1.
         -1   -1    0    0    0  501 -0.00000000000E+00 -0.00000000000E+00 -0.41734389796E+02  0.41734389796E+02  0.00000000000E+00 0.  1.
          5    1    1    2  502    0 -0.96631072057E+02  0.12526268343E+03  0.27185815231E+03  0.31457471119E+03  0.47000000000E+01 0.  1.
         -5    1    1    2    0  502 -0.17676242697E+02  0.31046780539E+02  0.29737913590E+03  0.29955432330E+03  0.47000000000E+01 0.  1.
        -11    1    1    2    0    0  0.53995502394E+02 -0.25898049507E+02  0.26590692389E+03  0.27256690081E+03  0.00000000000E+00 0.  1.
         11    1    1    2    0    0  0.60311812360E+02 -0.13041141446E+03  0.30745243246E+03  0.33936948885E+03  0.00000000000E+00 0. -1.
<mgrwt>
<rscale>  0 0.22620468E+03</rscale>
<asrwt>0</asrwt>
<pdfrwt beam="1">  1        1 0.18220475E+00 0.23048510E+03</pdfrwt>
<pdfrwt beam="2">  1       -1 0.64206762E-02 0.23048510E+03</pdfrwt>
<totfact> 0.14171101E+03</totfact>
</mgrwt>
</event>
<event>
 6    1  0.7457796E-006  0.2380994E+03  0.7546771E-02  0.1149982E+00
          1   -1    0    0  501    0  0.00000000000E+00  0.00000000000E+00  0.76875772372E+03  0.76875772372E+03  0.00000000000E+00 0. -1.
         -1   -1    0    0    0  501 -0.00000000000E+00 -0.00000000000E+00 -0.46969616529E+02  0.46969616529E+02  0.00000000000E+00 0.  1.
          5    1    1    2  502    0 -0.73209493658E+02 -0.53095090159E+02  0.27026478435E+03  0.28503308970E+03  0.47000000000E+01 0. -1.
         -5    1    1    2    0  502  0.20492767628E+02  0.10500258845E+03  0.62016524984E+02  0.12374827868E+03  0.47000000000E+01 0.  1.
        -11    1    1    2    0    0 -0.50668736443E+01  0.20990056687E+02  0.11764530220E+03  0.11961050463E+03  0.00000000000E+00 0.  1.
         11    1    1    2    0    0  0.57783599674E+02 -0.72897554978E+02  0.27186149566E+03  0.28733546724E+03  0.00000000000E+00 0. -1.
<mgrwt>
<rscale>  0 0.19971216E+03</rscale>
<asrwt>0</asrwt>
<pdfrwt beam="1">  1        1 0.11827041E+00 0.23809943E+03</pdfrwt>
<pdfrwt beam="2">  1       -1 0.72260954E-02 0.23809943E+03</pdfrwt>
<totfact> 0.24564642E+03</totfact>
</mgrwt>
</event>
<event>
 6    1  0.7457796E-006  0.3061257E+03  0.7546771E-02  0.1082218E+00
         -2   -1    0    0    0  501 -0.00000000000E+00  0.00000000000E+00  0.12714954518E+03  0.12714954518E+03  0.00000000000E+00 0. -1.
          2   -1    0    0  501    0  0.00000000000E+00 -0.00000000000E+00 -0.18425733904E+03  0.18425733904E+03  0.00000000000E+00 0.  1.
          5    1    1    2  502    0  0.15516106511E+02 -0.92398946900E+01  0.26621196472E+02  0.32510049473E+02  0.47000000000E+01 0.  1.
         -5    1    1    2    0  502 -0.11416648016E+03  0.50454978398E+02 -0.46006810387E+02  0.13311050537E+03  0.47000000000E+01 0.  1.
        -11    1    1    2    0    0  0.61346348526E+02 -0.38859429201E+02 -0.66613936614E+02  0.98543626210E+02  0.00000000000E+00 0.  1.
         11    1    1    2    0    0  0.37304025128E+02 -0.23556545068E+01  0.28891756673E+02  0.47242703167E+02  0.00000000000E+00 0. -1.
<mgrwt>
<rscale>  0 0.30612571E+03</rscale>
<asrwt>0</asrwt>
<pdfrwt beam="2">  1        2 0.28347283E-01 0.30612571E+03</pdfrwt>
<pdfrwt beam="1">  1       -2 0.19561469E-01 0.30612571E+03</pdfrwt>
<totfact> 0.40739141E+03</totfact>
</mgrwt>
</event>
<event>
 6    1  0.7457796E-006  0.3528294E+03  0.7546771E-02  0.1061460E+00
          2   -1    0    0  501    0  0.00000000000E+00  0.00000000000E+00  0.44795475778E+03  0.44795475778E+03  0.00000000000E+00 0. -1.
         -2   -1    0    0    0  501 -0.00000000000E+00 -0.00000000000E+00 -0.69476101929E+02  0.69476101929E+02  0.00000000000E+00 0.  1.
          5    1    1    2  502    0  0.11081284119E+03  0.21349477144E+02  0.84340266554E+01  0.11326300699E+03  0.47000000000E+01 0.  1.
         -5    1    1    2    0  502 -0.30273130198E+02  0.42134857394E+01  0.28552219170E+02  0.42089607905E+02  0.47000000000E+01 0.  1.
        -11    1    1    2    0    0 -0.60095110952E+02  0.14879337019E+02  0.27314046360E+03  0.28006879492E+03  0.00000000000E+00 0. -1.
         11    1    1    2    0    0 -0.20444600040E+02 -0.40442299903E+02  0.68351946424E+02  0.82009449896E+02  0.00000000000E+00 0.  1.
<mgrwt>
<rscale>  0 0.35282942E+03</rscale>
<asrwt>0</asrwt>
<pdfrwt beam="1">  1        2 0.68916115E-01 0.35282942E+03</pdfrwt>
<pdfrwt beam="2">  1       -2 0.10688631E-01 0.35282942E+03</pdfrwt>
<totfact> 0.42153700E+03</totfact>
</mgrwt>
</event>
<event>
 6    1  0.7457796E-006  0.1502517E+03  0.7546771E-02  0.1211139E+00
         -2   -1    0    0    0  501 -0.00000000000E+00  0.00000000000E+00  0.20205561487E+03  0.20205561487E+03  0.00000000000E+00 0.  1.
          2   -1    0    0  501    0  0.00000000000E+00 -0.00000000000E+00 -0.95785311460E+02  0.95785311460E+02  0.00000000000E+00 0. -1.
          5    1    1    2  502    0 -0.10053431687E+03  0.38407693847E+02  0.67628171995E+02  0.12719260774E+03  0.47000000000E+01 0.  1.
         -5    1    1    2    0  502  0.17162506258E+02 -0.38580476745E+02  0.29332907741E+02  0.51628618841E+02  0.47000000000E+01 0.  1.
        -11    1    1    2    0    0  0.26495412070E+02  0.35390863766E+02 -0.16679403052E+02  0.47251693992E+02  0.00000000000E+00 0. -1.
         11    1    1    2    0    0  0.56876398545E+02 -0.35218080869E+02  0.25988626728E+02  0.71768005760E+02  0.00000000000E+00 0.  1.
<mgrwt>
<rscale>  0 0.14164008E+03</rscale>
<asrwt>0</asrwt>
<pdfrwt beam="2">  1        2 0.14736202E-01 0.15025172E+03</pdfrwt>
<pdfrwt beam="1">  1       -2 0.31085479E-01 0.15025172E+03</pdfrwt>
<totfact> 0.36767120E+03</totfact>
</mgrwt>
</event>
<event>
 6    1  0.7457796E-006  0.1583569E+03  0.7546771E-02  0.1196002E+00
          2   -1    0    0  501    0  0.00000000000E+00  0.00000000000E+00  0.31267705795E+03  0.31267705795E+03  0.00000000000E+00 0. -1.
         -2   -1    0    0    0  501 -0.00000000000E+00 -0.00000000000E+00 -0.78722416874E+02  0.78722416874E+02  0.00000000000E+00 0.  1.
          5    1    1    2  502    0 -0.10174708492E+02 -0.39293506509E+02  0.46366368193E+02  0.61801573168E+02  0.47000000000E+01 0.  1.
         -5    1    1    2    0  502 -0.82413021363E+02  0.68902262601E+02  0.17453774665E+02  0.10893186922E+03  0.47000000000E+01 0.  1.
        -11    1    1    2    0    0  0.63609427347E+02 -0.10188096649E+02  0.17402483665E+03  0.18556562271E+03  0.00000000000E+00 0. -1.
         11    1    1    2    0    0  0.28978302508E+02 -0.19420659443E+02 -0.38903384367E+01  0.35100409721E+02  0.00000000000E+00 0.  1.
<mgrwt>
<rscale>  0 0.15369770E+03</rscale>
<asrwt>0</asrwt>
<pdfrwt beam="1">  1        2 0.48104162E-01 0.15835687E+03</pdfrwt>
<pdfrwt beam="2">  1       -2 0.12111141E-01 0.15835687E+03</pdfrwt>
<totfact> 0.49264330E+03</totfact>
</mgrwt>
</event>
<event>
 6    1  0.7457796E-006  0.1273400E+03  0.7546771E-02  0.1245611E+00
          3   -1    0    0  501    0  0.00000000000E+00  0.00000000000E+00  0.37979956908E+03  0.37979956908E+03  0.00000000000E+00 0. -1.
         -3   -1    0    0    0  501 -0.00000000000E+00 -0.00000000000E+00 -0.35066510103E+02  0.35066510103E+02  0.00000000000E+00 0.  1.
          5    1    1    2  502    0 -0.41101219589E+02 -0.15132514496E+02  0.12914770394E+03  0.13645337182E+03  0.47000000000E+01 0. -1.
         -5    1    1    2    0  502  0.35257630814E+02  0.38716321111E+02  0.12543238420E+02  0.54050688072E+02  0.47000000000E+01 0. -1.
        -11    1    1    2    0    0 -0.17127931544E+02 -0.30127450858E+02  0.19658899787E+03  0.19962029811E+03  0.00000000000E+00 0. -1.
         11    1    1    2    0    0  0.22971520319E+02  0.65436442427E+01  0.64531187471E+01  0.24741721187E+02  0.00000000000E+00 0.  1.
<mgrwt>
<rscale>  0 0.11848861E+03</rscale>
<asrwt>0</asrwt>
<pdfrwt beam="1">  1        3 0.58430700E-01 0.12733999E+03</pdfrwt>
<pdfrwt beam="2">  1       -3 0.53948480E-02 0.12733999E+03</pdfrwt>
<totfact> 0.13376402E+03</totfact>
</mgrwt>
</event>
<event>
 6    1  0.7521481E-006  0.3353519E+03  0.7546771E-02  0.1068793E+00
          3   -1    0    0  501    0  0.00000000000E+00  0.00000000000E+00  0.13135463610E+04  0.13135463610E+04  0.00000000000E+00 0. -1.
         -3   -1    0    0    0  501 -0.00000000000E+00 -0.00000000000E+00 -0.21404056982E+02  0.21404056982E+02  0.00000000000E+00 0.  1.
          5    1    1    2  502    0 -0.40919350220E+01 -0.42224414348E+02  0.19999184281E+03  0.20449565348E+03  0.47000000000E+01 0. -1.
         -5    1    1    2    0  502 -0.91352715518E+02  0.66841154737E+02  0.33158463280E+03  0.35040479065E+03  0.47000000000E+01 0. -1.
        -11    1    1    2    0    0  0.71796053896E+02 -0.83139464742E+02  0.50426549588E+03  0.51609159486E+03  0.00000000000E+00 0.  1.
         11    1    1    2    0    0  0.23648596644E+02  0.58522724353E+02  0.25630033247E+03  0.26395837894E+03  0.00000000000E+00 0. -1.
<mgrwt>
<rscale>  0 0.33535188E+03</rscale>
<asrwt>0</asrwt>
<pdfrwt beam="1">  1        3 0.20208399E+00 0.33535188E+03</pdfrwt>
<pdfrwt beam="2">  1       -3 0.32929329E-02 0.33535188E+03</pdfrwt>
<totfact> 0.17563219E+02</totfact>
</mgrwt>
</event>
<event>
 6    1  0.7457796E-006  0.1583838E+03  0.7546771E-02  0.1197686E+00
          2   -1    0    0  501    0  0.00000000000E+00  0.00000000000E+00  0.39253639416E+03  0.39253639416E+03  0.00000000000E+00 0. -1.
         -2   -1    0    0    0  501 -0.00000000000E+00 -0.00000000000E+00 -0.10385531715E+03  0.10385531715E+03  0.00000000000E+00 0.  1.
          5    1    1    2  502    0 -0.71031116145E+01 -0.23491630627E+02  0.51744414683E+02  0.57462034031E+02  0.47000000000E+01 0.  1.
         -5    1    1    2    0  502 -0.12690004511E+02 -0.71734623527E+02 -0.71442344731E+02  0.10214201412E+03  0.47000000000E+01 0.  1.
        -11    1    1    2    0    0 -0.16085974391E+02  0.98078774509E+02  0.22592975007E+03  0.24682474865E+03  0.00000000000E+00 0.  1.
         11    1    1    2    0    0  0.35879090517E+02 -0.28525203556E+01  0.82449256991E+02  0.89962914510E+02  0.00000000000E+00 0. -1.
<mgrwt>
<rscale>  0 0.15229074E+03</rscale>
<asrwt>0</asrwt>
<pdfrwt beam="1">  1        2 0.60390214E-01 0.15838385E+03</pdfrwt>
<pdfrwt beam="2">  1       -2 0.15977741E-01 0.15838385E+03</pdfrwt>
<totfact> 0.24617212E+03</totfact>
</mgrwt>
</event>
<event>
 6    1  0.7457796E-006  0.1409274E+03  0.7546771E-02  0.1222150E+00
          1   -1    0    0  501    0  0.00000000000E+00  0.00000000000E+00  0.43663861385E+03  0.43663861385E+03  0.00000000000E+00 0. -1.
         -1   -1    0    0    0  501 -0.00000000000E+00 -0.00000000000E+00 -0.39963572942E+02  0.39963572942E+02  0.00000000000E+00 0.  1.
          5    1    1    2  502    0 -0.26189068805E+01 -0.58655964997E+02  0.13300620402E+03  0.14546518900E+03  0.47000000000E+01 0.  1.
         -5    1    1    2    0  502 -0.53992304219E+02  0.26543194208E+02  0.22517863882E+02  0.64411600411E+02  0.47000000000E+01 0.  1.
        -11    1    1    2    0    0  0.64957286233E+02 -0.10743650857E+02  0.17938259694E+03  0.19108372812E+03  0.00000000000E+00 0.  1.
         11    1    1    2    0    0 -0.83460751329E+01  0.42856421647E+02  0.61768376070E+02  0.75641669262E+02  0.00000000000E+00 0. -1.
<mgrwt>
<rscale>  0 0.13364172E+03</rscale>
<asrwt>0</asrwt>
<pdfrwt beam="1">  1        1 0.67175168E-01 0.14092740E+03</pdfrwt>
<pdfrwt beam="2">  1       -1 0.61482423E-02 0.14092740E+03</pdfrwt>
<totfact> 0.66767803E+03</totfact>
</mgrwt>
</event>
<event>
 6    1  0.7457796E-006  0.2467227E+03  0.7546771E-02  0.1116905E+00
         -1   -1    0    0    0  501 -0.00000000000E+00  0.00000000000E+00  0.14415573711E+03  0.14415573711E+03  0.00000000000E+00 0.  1.
          1   -1    0    0  501    0  0.00000000000E+00 -0.00000000000E+00 -0.50388904466E+03  0.50388904466E+03  0.00000000000E+00 0. -1.
          5    1    1    2  502    0  0.75575000378E+02 -0.44365791599E+02  0.17812621472E+02  0.89550452987E+02  0.47000000000E+01 0. -1.
         -5    1    1    2    0  502  0.30036236256E+02 -0.14642393903E+03 -0.58117295767E+02  0.16044268596E+03  0.47000000000E+01 0.  1.
        -11    1    1    2    0    0 -0.61791957933E+01  0.10763764922E+03 -0.14006603397E+03  0.17675559358E+03  0.00000000000E+00 0. -1.
         11    1    1    2    0    0 -0.99432040841E+02  0.83152081408E+02 -0.17936259929E+03  0.22129604925E+03  0.00000000000E+00 0.  1.
<mgrwt>
<rscale>  0 0.24438628E+03</rscale>
<asrwt>0</asrwt>
<pdfrwt beam="2">  1        1 0.77521391E-01 0.24672272E+03</pdfrwt>
<pdfrwt beam="1">  1       -1 0.22177806E-01 0.24672272E+03</pdfrwt>
<totfact> 0.76255160E+02</totfact>
</mgrwt>
</event>
<event>
 6    1  0.7457796E-006  0.1296261E+03  0.7546771E-02  0.1241967E+00
         -1   -1    0    0    0  501 -0.00000000000E+00  0.00000000000E+00  0.41213855385E+02  0.41213855385E+02  0.00000000000E+00 0.  1.
          1   -1    0    0  501    0  0.00000000000E+00 -0.00000000000E+00 -0.33113223156E+03  0.33113223156E+03  0.00000000000E+00 0. -1.
          5    1    1    2  502    0  0.16490202779E+02  0.72425058768E+02 -0.18247748115E+03  0.19707216204E+03  0.47000000000E+01 0.  1.
         -5    1    1    2    0  502 -0.51095634809E+01 -0.40051260071E+02 -0.25470441358E+02  0.47969203196E+02  0.47000000000E+01 0.  1.
        -11    1    1    2    0    0 -0.24660113727E+02  0.25545949616E+02 -0.44995578591E+02  0.57317700961E+02  0.00000000000E+00 0. -1.
         11    1    1    2    0    0  0.13279474428E+02 -0.57919748313E+02 -0.36974875072E+02  0.69987020742E+02  0.00000000000E+00 0.  1.
<mgrwt>
<rscale>  0 0.12068754E+03</rscale>
<asrwt>0</asrwt>
<pdfrwt beam="2">  1        1 0.50943419E-01 0.12962612E+03</pdfrwt>
<pdfrwt beam="1">  1       -1 0.63405933E-02 0.12962612E+03</pdfrwt>
<totfact> 0.89758769E+03</totfact>
</mgrwt>
</event>
<event>
 6    1  0.7457796E-006  0.2752451E+03  0.7546771E-02  0.1098315E+00
          1   -1    0    0  501    0  0.00000000000E+00  0.00000000000E+00  0.77491925769E+02  0.77491925769E+02  0.00000000000E+00 0. -1.
         -1   -1    0    0    0  501 -0.00000000000E+00 -0.00000000000E+00 -0.24441207946E+03  0.24441207946E+03  0.00000000000E+00 0.  1.
          5    1    1    2  502    0 -0.28446549960E+02  0.23346215069E+01 -0.11282246076E+03  0.11647168890E+03  0.47000000000E+01 0.  1.
         -5    1    1    2    0  502  0.82876023937E+02 -0.42986230832E+01 -0.54605223617E+02  0.99452169158E+02  0.47000000000E+01 0.  1.
        -11    1    1    2    0    0 -0.22380835205E+02 -0.16067653630E+02  0.42193818726E+02  0.50392356726E+02  0.00000000000E+00 0. -1.
         11    1    1    2    0    0 -0.32048638772E+02  0.18031655206E+02 -0.41686288041E+02  0.55587790451E+02  0.00000000000E+00 0.  1.
<mgrwt>
<rscale>  0 0.27524507E+03</rscale>
<asrwt>0</asrwt>
<pdfrwt beam="1">  1        1 0.11921835E-01 0.27524507E+03</pdfrwt>
<pdfrwt beam="2">  1       -1 0.37601858E-01 0.27524507E+03</pdfrwt>
<totfact> 0.34723346E+03</totfact>
</mgrwt>
</event>
<event>
 6    1  0.7457796E-006  0.1272266E+03  0.7546771E-02  0.1246860E+00
         -1   -1    0    0    0  501 -0.00000000000E+00  0.00000000000E+00  0.28130237428E+03  0.28130237428E+03  0.00000000000E+00 0.  1.
          1   -1    0    0  501    0  0.00000000000E+00 -0.00000000000E+00 -0.54180483077E+02  0.54180483077E+02  0.00000000000E+00 0. -1.
          5    1    1    2  502    0  0.28293719903E+02  0.53196450945E+02  0.52989124978E+02  0.80376205092E+02  0.47000000000E+01 0. -1.
         -5    1    1    2    0  502 -0.45932210449E+01 -0.53130213106E+02  0.14916876544E+03  0.15848447182E+03  0.47000000000E+01 0. -1.
        -11    1    1    2    0    0 -0.10689160787E+01  0.39190696037E+02 -0.87166967757E+01  0.40162595037E+02  0.00000000000E+00 0. -1.
         11    1    1    2    0    0 -0.22631582779E+02 -0.39256933876E+02  0.33680697556E+02  0.56459585406E+02  0.00000000000E+00 0.  1.
<mgrwt>
<rscale>  0 0.11774764E+03</rscale>
<asrwt>0</asrwt>
<pdfrwt beam="2">  1        1 0.83354591E-02 0.12722661E+03</pdfrwt>
<pdfrwt beam="1">  1       -1 0.43277288E-01 0.12722661E+03</pdfrwt>
<totfact> 0.41981413E+03</totfact>
</mgrwt>
</event>
<event>
 6    1  0.7457796E-006  0.1409579E+03  0.7546771E-02  0.1223228E+00
          1   -1    0    0  501    0  0.00000000000E+00  0.00000000000E+00  0.75386075412E+03  0.75386075412E+03  0.00000000000E+00 0. -1.
         -1   -1    0    0    0  501 -0.00000000000E+00 -0.00000000000E+00 -0.21205061814E+02  0.21205061814E+02  0.00000000000E+00 0.  1.
          5    1    1    2  502    0 -0.32688154677E+01  0.23366660168E+02  0.37425548624E+03  0.37502792555E+03  0.47000000000E+01 0.  1.
         -5    1    1    2    0  502 -0.54753038218E+02  0.62228509083E+01  0.60320510657E+02  0.81836868668E+02  0.47000000000E+01 0.  1.
        -11    1    1    2    0    0 -0.22204029021E+02  0.58130954867E+01  0.48308762071E+02  0.53484086201E+02  0.00000000000E+00 0.  1.
         11    1    1    2    0    0  0.80225882707E+02 -0.35402606563E+02  0.24977093334E+03  0.26471693551E+03  0.00000000000E+00 0. -1.
<mgrwt>
<rscale>  0 0.13289131E+03</rscale>
<asrwt>0</asrwt>
<pdfrwt beam="1">  1        1 0.11597856E+00 0.14095795E+03</pdfrwt>
<pdfrwt beam="2">  1       -1 0.32623178E-02 0.14095795E+03</pdfrwt>
<totfact> 0.81117067E+03</totfact>
</mgrwt>
</event>
<event>
 6    1  0.7457796E-006  0.1260941E+03  0.7546771E-02  0.1245605E+00
         -2   -1    0    0    0  501 -0.00000000000E+00  0.00000000000E+00  0.35177329026E+03  0.35177329026E+03  0.00000000000E+00 0.  1.
          2   -1    0    0  501    0  0.00000000000E+00 -0.00000000000E+00 -0.71497475875E+02  0.71497475875E+02  0.00000000000E+00 0. -1.
          5    1    1    2  502    0  0.47950593316E+02 -0.28017768586E+01  0.27127631423E+03  0.27553591058E+03  0.47000000000E+01 0. -1.
         -5    1    1    2    0  502 -0.38146712137E+02 -0.10472586370E+02  0.26521283082E+02  0.47857237368E+02  0.47000000000E+01 0. -1.
        -11    1    1    2    0    0  0.45871061618E+01 -0.28324897286E+02  0.25455722928E+02  0.38357987160E+02  0.00000000000E+00 0.  1.
         11    1    1    2    0    0 -0.14390987341E+02  0.41599260514E+02 -0.42977505860E+02  0.61519631029E+02  0.00000000000E+00 0. -1.
<mgrwt>
<rscale>  0 0.11849256E+03</rscale>
<asrwt>0</asrwt>
<pdfrwt beam="2">  1        2 0.10999612E-01 0.12609409E+03</pdfrwt>
<pdfrwt beam="1">  1       -2 0.54118967E-01 0.12609409E+03</pdfrwt>
<totfact> 0.17963593E+03</totfact>
</mgrwt>
</event>
<event>
 6    1  0.7457796E-006  0.1491994E+03  0.7546771E-02  0.1210868E+00
         -4   -1    0    0    0  501 -0.00000000000E+00  0.00000000000E+00  0.14016036438E+03  0.14016036438E+03  0.00000000000E+00 0.  1.
          4   -1    0    0  501    0  0.00000000000E+00 -0.00000000000E+00 -0.16722450595E+03  0.16722450595E+03  0.00000000000E+00 0. -1.
          5    1    1    2  502    0  0.47448998693E+02 -0.28648712322E+02  0.88053746930E+02  0.10415233335E+03  0.47000000000E+01 0.  1.
         -5    1    1    2    0  502 -0.10743086154E+02 -0.44066356657E+02 -0.31482419017E+02  0.55412005886E+02  0.47000000000E+01 0.  1.
        -11    1    1    2    0    0 -0.24968345985E+02  0.16785286054E+02  0.15158040573E+02  0.33688726945E+02  0.00000000000E+00 0.  1.
         11    1    1    2    0    0 -0.11737566555E+02  0.55929782925E+02 -0.98793510058E+02  0.11413180414E+03  0.00000000000E+00 0. -1.
<mgrwt>
<rscale>  0 0.14184470E+03</rscale>
<asrwt>0</asrwt>
<pdfrwt beam="2">  1        4 0.25726847E-01 0.14919941E+03</pdfrwt>
<pdfrwt beam="1">  1       -4 0.21563133E-01 0.14919941E+03</pdfrwt>
<totfact> 0.47212989E+02</totfact>
</mgrwt>
</event>
<event>
 6    1  0.7457796E-006  0.1330417E+03  0.7546771E-02  0.1234342E+00
         -1   -1    0    0    0  501 -0.00000000000E+00  0.00000000000E+00  0.19948907485E+03  0.19948907485E+03  0.00000000000E+00 0.  1.
          1   -1    0    0  501    0  0.00000000000E+00 -0.00000000000E+00 -0.72793180172E+02  0.72793180172E+02  0.00000000000E+00 0. -1.
          5    1    1    2  502    0  0.52983380092E+02 -0.22377261471E+02  0.80072919124E+02  0.98700267345E+02  0.47000000000E+01 0. -1.
         -5    1    1    2    0  502 -0.80647090416E+01  0.30288302964E+02 -0.29818811397E+02  0.43516345682E+02  0.47000000000E+01 0. -1.
        -11    1    1    2    0    0 -0.70316101761E+02 -0.12772360024E+02  0.31253323242E+02  0.78001651015E+02  0.00000000000E+00 0.  1.
         11    1    1    2    0    0  0.25397430710E+02  0.48613185308E+01  0.45188463709E+02  0.52063990981E+02  0.00000000000E+00 0. -1.
<mgrwt>
<rscale>  0 0.12546642E+03</rscale>
<asrwt>0</asrwt>
<pdfrwt beam="2">  1        1 0.11198951E-01 0.13304168E+03</pdfrwt>
<pdfrwt beam="1">  1       -1 0.30690627E-01 0.13304168E+03</pdfrwt>
<totfact> 0.51506217E+03</totfact>
</mgrwt>
</event>
<event>
 6    1  0.7457796E-006  0.1477391E+03  0.7546771E-02  0.1212848E+00
         -2   -1    0    0    0  501 -0.00000000000E+00  0.00000000000E+00  0.60333217136E+02  0.60333217136E+02  0.00000000000E+00 0.  1.
          2   -1    0    0  501    0  0.00000000000E+00 -0.00000000000E+00 -0.29850457038E+03  0.29850457038E+03  0.00000000000E+00 0. -1.
          5    1    1    2  502    0  0.66570508161E+02 -0.60208184167E+02 -0.12496612274E+03  0.15393271202E+03  0.47000000000E+01 0.  1.
         -5    1    1    2    0  502  0.10825383034E+02  0.45670435062E+02 -0.14788594168E+02  0.49434502870E+02  0.47000000000E+01 0.  1.
        -11    1    1    2    0    0  0.45203446270E+01 -0.27691884398E+02 -0.26150536834E+02  0.38355241542E+02  0.00000000000E+00 0.  1.
         11    1    1    2    0    0 -0.81916235822E+02  0.42229633503E+02 -0.72266099497E+02  0.11711533108E+03  0.00000000000E+00 0. -1.
<mgrwt>
<rscale>  0 0.14035807E+03</rscale>
<asrwt>0</asrwt>
<pdfrwt beam="2">  1        2 0.45923781E-01 0.14773911E+03</pdfrwt>
<pdfrwt beam="1">  1       -2 0.92820332E-02 0.14773911E+03</pdfrwt>
<totfact> 0.78546885E+03</totfact>
</mgrwt>
</event>
<event>
 6    1  0.7457796E-006  0.1854168E+03  0.7546771E-02  0.1167634E+00
          1   -1    0    0  501    0  0.00000000000E+00  0.00000000000E+00  0.53962220855E+03  0.53962220855E+03  0.00000000000E+00 0. -1.
         -1   -1    0    0    0  501 -0.00000000000E+00 -0.00000000000E+00 -0.77684394413E+02  0.77684394413E+02  0.00000000000E+00 0.  1.
          5    1    1    2  502    0  0.71924335303E+02  0.61058203150E+02  0.17064589261E+02  0.95992210035E+02  0.47000000000E+01 0.  1.
         -5    1    1    2    0  502 -0.43223136522E+02  0.72846149305E+02  0.64509473612E+02  0.10657562191E+03  0.47000000000E+01 0.  1.
        -11    1    1    2    0    0 -0.78470549955E+01 -0.79779651394E+02  0.98645819665E+02  0.12711163120E+03  0.00000000000E+00 0.  1.
         11    1    1    2    0    0 -0.20854143785E+02 -0.54124701061E+02  0.28171793160E+03  0.28762713983E+03  0.00000000000E+00 0. -1.
<mgrwt>
<rscale>  0 0.18017524E+03</rscale>
<asrwt>0</asrwt>
<pdfrwt beam="1">  1        1 0.83018799E-01 0.18541682E+03</pdfrwt>
<pdfrwt beam="2">  1       -1 0.11951446E-01 0.18541682E+03</pdfrwt>
<totfact> 0.18624101E+03</totfact>
</mgrwt>
</event>
<event>
 6    1  0.7457796E-006  0.1545361E+03  0.7546771E-02  0.1202859E+00
          1   -1    0    0  501    0  0.00000000000E+00  0.00000000000E+00  0.43581579846E+02  0.43581579846E+02  0.00000000000E+00 0. -1.
         -1   -1    0    0    0  501 -0.00000000000E+00 -0.00000000000E+00 -0.51741992713E+03  0.51741992713E+03  0.00000000000E+00 0.  1.
          5    1    1    2  502    0  0.39586101004E+02 -0.82337870691E+02 -0.25736403422E+03  0.27313901305E+03  0.47000000000E+01 0.  1.
         -5    1    1    2    0  502  0.42095077845E+02  0.38841070648E+02 -0.86455862308E+02  0.10381392236E+03  0.47000000000E+01 0. -1.
        -11    1    1    2    0    0  0.76088689410E+01  0.28805695443E+02 -0.57811795659E+01  0.30349382427E+02  0.00000000000E+00 0. -1.
         11    1    1    2    0    0 -0.89290047790E+02  0.14691104600E+02 -0.12423727119E+03  0.15369918914E+03  0.00000000000E+00 0.  1.
<mgrwt>
<rscale>  0 0.14807429E+03</rscale>
<asrwt>0</asrwt>
<pdfrwt beam="1">  1        1 0.67048583E-02 0.15453606E+03</pdfrwt>
<pdfrwt beam="2">  1       -1 0.79603067E-01 0.15453606E+03</pdfrwt>
<totfact> 0.17881170E+03</totfact>
</mgrwt>
</event>
<event>
 6    1  0.7457796E-006  0.1742077E+03  0.7546771E-02  0.1179520E+00
          2   -1    0    0  501    0  0.00000000000E+00  0.00000000000E+00  0.19253623008E+03  0.19253623008E+03  0.00000000000E+00 0. -1.
         -2   -1    0    0    0  501 -0.00000000000E+00 -0.00000000000E+00 -0.13944133201E+03  0.13944133201E+03  0.00000000000E+00 0.  1.
          5    1    1    2  502    0  0.76646412890E+02  0.19844643078E+02 -0.16834856389E+02  0.81080113822E+02  0.47000000000E+01 0. -1.
         -5    1    1    2    0  502  0.33851490768E+02 -0.69973425922E+02  0.60239361895E+02  0.98453412759E+02  0.47000000000E+01 0. -1.
        -11    1    1    2    0    0  0.12039438257E+02 -0.37177739046E+01  0.13600812732E+02  0.18540550782E+02  0.00000000000E+00 0. -1.
         11    1    1    2    0    0 -0.12253734191E+03  0.53846556748E+02 -0.39104201613E+01  0.13390348473E+03  0.00000000000E+00 0.  1.
<mgrwt>
<rscale>  0 0.16840632E+03</rscale>
<asrwt>0</asrwt>
<pdfrwt beam="1">  1        2 0.29620959E-01 0.17420774E+03</pdfrwt>
<pdfrwt beam="2">  1       -2 0.21452513E-01 0.17420774E+03</pdfrwt>
<totfact> 0.32321805E+03</totfact>
</mgrwt>
</event>
<event>
 6    1  0.7457796E-006  0.1353241E+03  0.7546771E-02  0.1232194E+00
          1   -1    0    0  501    0  0.00000000000E+00  0.00000000000E+00  0.70272422005E+02  0.70272422005E+02  0.00000000000E+00 0. -1.
         -1   -1    0    0    0  501 -0.00000000000E+00 -0.00000000000E+00 -0.20541955015E+03  0.20541955015E+03  0.00000000000E+00 0.  1.
          5    1    1    2  502    0 -0.77690691126E+02  0.13069447422E+02 -0.73514136070E+02  0.10785672045E+03  0.47000000000E+01 0.  1.
         -5    1    1    2    0  502  0.29178204049E+02 -0.31361569171E+02  0.57689121980E+01  0.43477418971E+02  0.47000000000E+01 0.  1.
        -11    1    1    2    0    0  0.52227070354E+02  0.46163232545E+02 -0.26178362411E+02  0.74458159897E+02  0.00000000000E+00 0.  1.
         11    1    1    2    0    0 -0.37145832768E+01 -0.27871110796E+02 -0.41223541867E+02  0.49899672845E+02  0.00000000000E+00 0. -1.
<mgrwt>
<rscale>  0 0.12685814E+03</rscale>
<asrwt>0</asrwt>
<pdfrwt beam="1">  1        1 0.10811142E-01 0.13532408E+03</pdfrwt>
<pdfrwt beam="2">  1       -1 0.31603008E-01 0.13532408E+03</pdfrwt>
<totfact> 0.51409542E+03</totfact>
</mgrwt>
</event>
<event>
 6    1  0.7457796E-006  0.1301307E+03  0.7546771E-02  0.1242043E+00
          2   -1    0    0  501    0  0.00000000000E+00  0.00000000000E+00  0.41079991729E+03  0.41079991729E+03  0.00000000000E+00 0.  1.
         -2   -1    0    0    0  501 -0.00000000000E+00 -0.00000000000E+00 -0.33429980549E+02  0.33429980549E+02  0.00000000000E+00 0. -1.
          5    1    1    2  502    0  0.14991601877E+02  0.20471860819E+02  0.15157187474E+03  0.15375294607E+03  0.47000000000E+01 0. -1.
         -5    1    1    2    0  502  0.62250526534E+01 -0.49771779096E+02  0.61974179459E+01  0.50759031355E+02  0.47000000000E+01 0. -1.
        -11    1    1    2    0    0 -0.22287593482E+02 -0.18020043101E+02  0.20937751366E+02  0.35494340519E+02  0.00000000000E+00 0. -1.
         11    1    1    2    0    0  0.10709389513E+01  0.47319961378E+02  0.19866289269E+03  0.20422357990E+03  0.00000000000E+00 0.  1.
<mgrwt>
<rscale>  0 0.12064108E+03</rscale>
<asrwt>0</asrwt>
<pdfrwt beam="1">  1        2 0.63199984E-01 0.13013070E+03</pdfrwt>
<pdfrwt beam="2">  1       -2 0.51430742E-02 0.13013070E+03</pdfrwt>
<totfact> 0.13683074E+04</totfact>
</mgrwt>
</event>
<event>
 6    1  0.7457796E-006  0.1470118E+03  0.7546771E-02  0.1223622E+00
         -4   -1    0    0    0  501 -0.00000000000E+00  0.00000000000E+00  0.10339877859E+03  0.10339877859E+03  0.00000000000E+00 0.  1.
          4   -1    0    0  501    0  0.00000000000E+00 -0.00000000000E+00 -0.15940040544E+03  0.15940040544E+03  0.00000000000E+00 0. -1.
          5    1    1    2  502    0  0.30063763706E+02 -0.37243269932E+02 -0.31655036872E+02  0.57576231231E+02  0.47000000000E+01 0. -1.
         -5    1    1    2    0  502 -0.48036061971E+02  0.65150396010E+02  0.38074634055E+02  0.89575694853E+02  0.47000000000E+01 0.  1.
        -11    1    1    2    0    0  0.27643038049E+02  0.28708922218E+02 -0.27645499433E+02  0.48503746313E+02  0.00000000000E+00 0.  1.
         11    1    1    2    0    0 -0.96707397831E+01 -0.56616048297E+02 -0.34775724605E+02  0.67143511634E+02  0.00000000000E+00 0. -1.
<mgrwt>
<rscale>  0 0.13261819E+03</rscale>
<asrwt>0</asrwt>
<pdfrwt beam="2">  1        4 0.24523139E-01 0.14701183E+03</pdfrwt>
<pdfrwt beam="1">  1       -4 0.15907504E-01 0.14701183E+03</pdfrwt>
<totfact> 0.88608890E+02</totfact>
</mgrwt>
</event>
<event>
 6    1  0.7457796E-006  0.1599808E+03  0.7546771E-02  0.1196325E+00
         -1   -1    0    0    0  501 -0.00000000000E+00  0.00000000000E+00  0.40046451062E+02  0.40046451062E+02  0.00000000000E+00 0.  1.
          1   -1    0    0  501    0  0.00000000000E+00 -0.00000000000E+00 -0.56781195322E+03  0.56781195322E+03  0.00000000000E+00 0. -1.
          5    1    1    2  502    0  0.68925874328E+02 -0.57526869795E+02 -0.99666467989E+02  0.13422224757E+03  0.47000000000E+01 0.  1.
         -5    1    1    2    0  502 -0.52383836791E+02 -0.40948036142E+02 -0.12385226210E+03  0.14064949644E+03  0.47000000000E+01 0.  1.
        -11    1    1    2    0    0  0.18292802739E+02  0.91270287386E+02 -0.16684954111E+03  0.19105931372E+03  0.00000000000E+00 0. -1.
         11    1    1    2    0    0 -0.34834840276E+02  0.72046185505E+01 -0.13739723095E+03  0.14192734655E+03  0.00000000000E+00 0.  1.
<mgrwt>
<rscale>  0 0.15342595E+03</rscale>
<asrwt>0</asrwt>
<pdfrwt beam="2">  1        1 0.87355677E-01 0.15998079E+03</pdfrwt>
<pdfrwt beam="1">  1       -1 0.61609930E-02 0.15998079E+03</pdfrwt>
<totfact> 0.47508621E+03</totfact>
</mgrwt>
</event>
<event>
 6    1  0.7457796E-006  0.1320724E+03  0.7546771E-02  0.1238018E+00
         -1   -1    0    0    0  501 -0.00000000000E+00  0.00000000000E+00  0.38493644988E+03  0.38493644988E+03  0.00000000000E+00 0.  1.
          1   -1    0    0  501    0  0.00000000000E+00 -0.00000000000E+00 -0.37345609423E+02  0.37345609423E+02  0.00000000000E+00 0. -1.
          5    1    1    2  502    0 -0.68030031654E+02 -0.17594924853E+02  0.67842568389E+02  0.97787374814E+02  0.47000000000E+01 0.  1.
         -5    1    1    2    0  502  0.31513387381E+02 -0.42573753066E+01  0.18198612229E+03  0.18480329417E+03  0.47000000000E+01 0.  1.
        -11    1    1    2    0    0  0.38696828887E+02 -0.14556837657E+01 -0.45102677364E+00  0.38726825409E+02  0.00000000000E+00 0. -1.
         11    1    1    2    0    0 -0.21801846139E+01  0.23307983925E+02  0.98213176554E+02  0.10096456492E+03  0.00000000000E+00 0.  1.
<mgrwt>
<rscale>  0 0.12313200E+03</rscale>
<asrwt>0</asrwt>
<pdfrwt beam="2">  1        1 0.57454786E-02 0.13207237E+03</pdfrwt>
<pdfrwt beam="1">  1       -1 0.59220990E-01 0.13207237E+03</pdfrwt>
<totfact> 0.39149372E+03</totfact>
</mgrwt>
</event>
<event>
 6    1  0.7457796E-006  0.1669256E+03  0.7546771E-02  0.1210139E+00
         -2   -1    0    0    0  501 -0.00000000000E+00  0.00000000000E+00  0.21914513423E+03  0.21914513423E+03  0.00000000000E+00 0.  1.
          2   -1    0    0  501    0  0.00000000000E+00 -0.00000000000E+00 -0.12068610723E+03  0.12068610723E+03  0.00000000000E+00 0. -1.
          5    1    1    2  502    0  0.77468159941E+02 -0.20263423034E+02  0.71564231321E+02  0.10749628516E+03  0.47000000000E+01 0. -1.
         -5    1    1    2    0  502 -0.85632412724E+02  0.11329016341E+02  0.89144623407E+02  0.12421799629E+03  0.47000000000E+01 0.  1.
        -11    1    1    2    0    0 -0.39741864623E+02  0.10465322185E+01 -0.30476275872E+02  0.50093057647E+02  0.00000000000E+00 0.  1.
         11    1    1    2    0    0  0.47906117406E+02  0.78878744746E+01 -0.31773551856E+02  0.58023902370E+02  0.00000000000E+00 0. -1.
<mgrwt>
<rscale>  0 0.14239775E+03</rscale>
<asrwt>0</asrwt>
<pdfrwt beam="2">  1        2 0.18567093E-01 0.16692565E+03</pdfrwt>
<pdfrwt beam="1">  1       -2 0.33714636E-01 0.16692565E+03</pdfrwt>
<totfact> 0.24363612E+03</totfact>
</mgrwt>
</event>
<event>
 6    1  0.7457796E-006  0.1416085E+03  0.7546771E-02  0.1222070E+00
         -4   -1    0    0    0  501 -0.00000000000E+00  0.00000000000E+00  0.20069372635E+03  0.20069372635E+03  0.00000000000E+00 0.  1.
          4   -1    0    0  501    0  0.00000000000E+00 -0.00000000000E+00 -0.98796929167E+02  0.98796929167E+02  0.00000000000E+00 0. -1.
          5    1    1    2  502    0 -0.11370074490E+02  0.68761030955E+02  0.98745876601E+02  0.12095534762E+03  0.47000000000E+01 0.  1.
         -5    1    1    2    0  502  0.57265859641E+02 -0.20568840128E+02  0.21142267797E+02  0.64587470551E+02  0.47000000000E+01 0.  1.
        -11    1    1    2    0    0  0.24324214736E+02 -0.18723117091E+02  0.10790969446E+02  0.32537171938E+02  0.00000000000E+00 0. -1.
         11    1    1    2    0    0 -0.70219999886E+02 -0.29469073736E+02 -0.28782316657E+02  0.81410665413E+02  0.00000000000E+00 0.  1.
<mgrwt>
<rscale>  0 0.13369742E+03</rscale>
<asrwt>0</asrwt>
<pdfrwt beam="2">  1        4 0.15199528E-01 0.14160851E+03</pdfrwt>
<pdfrwt beam="1">  1       -4 0.30875958E-01 0.14160851E+03</pdfrwt>
<totfact> 0.61906831E+02</totfact>
</mgrwt>
</event>
<event>
 6    1  0.7457796E-006  0.2229649E+03  0.7546771E-02  0.1147683E+00
          2   -1    0    0  501    0  0.00000000000E+00  0.00000000000E+00  0.12034319418E+03  0.12034319418E+03  0.00000000000E+00 0. -1.
         -2   -1    0    0    0  501 -0.00000000000E+00 -0.00000000000E+00 -0.11768832972E+04  0.11768832972E+04  0.00000000000E+00 0.  1.
          5    1    1    2  502    0 -0.48193038141E+02 -0.12776855173E+03 -0.60709893653E+03  0.62228496726E+03  0.47000000000E+01 0. -1.
         -5    1    1    2    0  502 -0.54044210993E+02  0.64128782313E+02 -0.50617877494E+03  0.51310069155E+03  0.47000000000E+01 0.  1.
        -11    1    1    2    0    0 -0.92347173480E+01  0.15895358820E+02 -0.12471854027E+02  0.22214625349E+02  0.00000000000E+00 0.  1.
         11    1    1    2    0    0  0.11147196648E+03  0.47744410601E+02  0.69209462457E+02  0.13962620724E+03  0.00000000000E+00 0. -1.
<mgrwt>
<rscale>  0 0.20245581E+03</rscale>
<asrwt>0</asrwt>
<pdfrwt beam="1">  1        2 0.18514337E-01 0.22296487E+03</pdfrwt>
<pdfrwt beam="2">  1       -2 0.18105897E+00 0.22296487E+03</pdfrwt>
<totfact> 0.58707896E+01</totfact>
</mgrwt>
</event>
<event>
 6    1  0.7457796E-006  0.2002558E+03  0.7546771E-02  0.1153818E+00
          2   -1    0    0  501    0  0.00000000000E+00  0.00000000000E+00  0.21559903291E+03  0.21559903291E+03  0.00000000000E+00 0. -1.
         -2   -1    0    0    0  501 -0.00000000000E+00 -0.00000000000E+00 -0.17539443857E+03  0.17539443857E+03  0.00000000000E+00 0.  1.
          5    1    1    2  502    0  0.49126694177E+02 -0.49576711868E+02  0.10441092945E+02  0.70727567909E+02  0.47000000000E+01 0. -1.
         -5    1    1    2    0  502 -0.71273190766E+02 -0.10530054232E+03 -0.28091412607E+02  0.13030460236E+03  0.47000000000E+01 0. -1.
        -11    1    1    2    0    0 -0.32312495193E+02  0.82838916562E+02  0.41742725234E+02  0.98228501733E+02  0.00000000000E+00 0.  1.
         11    1    1    2    0    0  0.54458991782E+02  0.72038337621E+02  0.16112188767E+02  0.91732799478E+02  0.00000000000E+00 0. -1.
<mgrwt>
<rscale>  0 0.19524080E+03</rscale>
<asrwt>0</asrwt>
<pdfrwt beam="1">  1        2 0.33169082E-01 0.20025584E+03</pdfrwt>
<pdfrwt beam="2">  1       -2 0.26983760E-01 0.20025584E+03</pdfrwt>
<totfact> 0.19235616E+03</totfact>
</mgrwt>
</event>
<event>
 6    1  0.7457796E-006  0.2159546E+03  0.7546771E-02  0.1140828E+00
          1   -1    0    0  501    0  0.00000000000E+00  0.00000000000E+00  0.49861137810E+03  0.49861137810E+03  0.00000000000E+00 0. -1.
         -1   -1    0    0    0  501 -0.00000000000E+00 -0.00000000000E+00 -0.14819115988E+03  0.14819115988E+03  0.00000000000E+00 0.  1.
          5    1    1    2  502    0  0.28392639231E+02  0.11661893375E+02  0.16231790560E+02  0.35038589361E+02  0.47000000000E+01 0. -1.
         -5    1    1    2    0  502  0.48217525027E+02 -0.17022744642E+03 -0.46788326264E+02  0.18306706615E+03  0.47000000000E+01 0. -1.
        -11    1    1    2    0    0 -0.42806982621E+02  0.21368214029E+02  0.52015941820E+02  0.70673167011E+02  0.00000000000E+00 0.  1.
         11    1    1    2    0    0 -0.33803181637E+02  0.13719733902E+03  0.32896081211E+03  0.35802371545E+03  0.00000000000E+00 0. -1.
<mgrwt>
<rscale>  0 0.21093480E+03</rscale>
<asrwt>0</asrwt>
<pdfrwt beam="1">  1        1 0.76709442E-01 0.21595457E+03</pdfrwt>
<pdfrwt beam="2">  1       -1 0.22798640E-01 0.21595457E+03</pdfrwt>
<totfact> 0.73921102E+02</totfact>
</mgrwt>
</event>
<event>
 6    1  0.7457796E-006  0.1696990E+03  0.7546771E-02  0.1184846E+00
         -2   -1    0    0    0  501 -0.00000000000E+00  0.00000000000E+00  0.35585484582E+02  0.35585484582E+02  0.00000000000E+00 0.  1.
          2   -1    0    0  501    0  0.00000000000E+00 -0.00000000000E+00 -0.76138437839E+03  0.76138437839E+03  0.00000000000E+00 0. -1.
          5    1    1    2  502    0  0.62635330255E+02 -0.34413806481E+02 -0.12312494271E+03  0.14244064094E+03  0.47000000000E+01 0. -1.
         -5    1    1    2    0  502 -0.56015043225E+02 -0.80188966650E+02 -0.15240235388E+03  0.18115331327E+03  0.47000000000E+01 0. -1.
        -11    1    1    2    0    0  0.27887692970E+02  0.48404183646E+02 -0.30469794578E+03  0.30977657526E+03  0.00000000000E+00 0. -1.
         11    1    1    2    0    0 -0.34507979999E+02  0.66198589486E+02 -0.14557365143E+03  0.16359933350E+03  0.00000000000E+00 0.  1.
<mgrwt>
<rscale>  0 0.16345921E+03</rscale>
<asrwt>0</asrwt>
<pdfrwt beam="2">  1        2 0.11713605E+00 0.16969902E+03</pdfrwt>
<pdfrwt beam="1">  1       -2 0.54746903E-02 0.16969902E+03</pdfrwt>
<totfact> 0.62923562E+03</totfact>
</mgrwt>
</event>
<event>
 6    1  0.7457796E-006  0.6020675E+03  0.7546771E-02  0.1050981E+00
          2   -1    0    0  501    0  0.00000000000E+00  0.00000000000E+00  0.17074288213E+04  0.17074288213E+04  0.00000000000E+00 0. -1.
         -2   -1    0    0    0  501 -0.00000000000E+00 -0.00000000000E+00 -0.72311109432E+02  0.72311109432E+02  0.00000000000E+00 0.  1.
          5    1    1    2  502    0  0.24654373519E+03 -0.14244072613E+03  0.93625812199E+03  0.97860846860E+03  0.47000000000E+01 0. -1.
         -5    1    1    2    0  502 -0.22616934993E+03  0.15876117159E+03  0.39090720251E+03  0.47873606029E+03  0.47000000000E+01 0.  1.
        -11    1    1    2    0    0 -0.29396322493E+02  0.33158944716E+02  0.16528609540E+03  0.17112320919E+03  0.00000000000E+00 0.  1.
         11    1    1    2    0    0  0.90219372311E+01 -0.49479390179E+02  0.14266629196E+03  0.15127219264E+03  0.00000000000E+00 0. -1.
<mgrwt>
<rscale>  0 0.37987320E+03</rscale>
<asrwt>0</asrwt>
<pdfrwt beam="1">  1        2 0.26268133E+00 0.60206750E+03</pdfrwt>
<pdfrwt beam="2">  1       -2 0.11124787E-01 0.60206750E+03</pdfrwt>
<totfact> 0.57472723E+02</totfact>
</mgrwt>
</event>
<event>
 6    1  0.7457796E-006  0.1347299E+03  0.7546771E-02  0.1234135E+00
         -1   -1    0    0    0  501 -0.00000000000E+00  0.00000000000E+00  0.85138203358E+02  0.85138203358E+02  0.00000000000E+00 0.  1.
          1   -1    0    0  501    0  0.00000000000E+00 -0.00000000000E+00 -0.21973122434E+03  0.21973122434E+03  0.00000000000E+00 0. -1.
          5    1    1    2  502    0 -0.26734900180E+02 -0.49166935204E+02 -0.14385225815E+02  0.57975573535E+02  0.47000000000E+01 0. -1.
         -5    1    1    2    0  502 -0.17550313018E+02  0.72818673666E+02  0.16133786529E+02  0.76765628958E+02  0.47000000000E+01 0. -1.
        -11    1    1    2    0    0 -0.15011418607E+02  0.19521350727E+02 -0.56917164126E+02  0.62016041433E+02  0.00000000000E+00 0.  1.
         11    1    1    2    0    0  0.59296631806E+02 -0.43173089189E+02 -0.79424417569E+02  0.10811218377E+03  0.00000000000E+00 0. -1.
<mgrwt>
<rscale>  0 0.12559995E+03</rscale>
<asrwt>0</asrwt>
<pdfrwt beam="2">  1        1 0.33804804E-01 0.13472986E+03</pdfrwt>
<pdfrwt beam="1">  1       -1 0.13098185E-01 0.13472986E+03</pdfrwt>
<totfact> 0.49649685E+03</totfact>
</mgrwt>
</event>
<event>
 6    1  0.7457796E-006  0.1482882E+03  0.7546771E-02  0.1214089E+00
         -2   -1    0    0    0  501 -0.00000000000E+00  0.00000000000E+00  0.79911373905E+02  0.79911373905E+02  0.00000000000E+00 0.  1.
          2   -1    0    0  501    0  0.00000000000E+00 -0.00000000000E+00 -0.32538079245E+03  0.32538079245E+03  0.00000000000E+00 0. -1.
          5    1    1    2  502    0  0.29497242471E+02 -0.58984133028E+01  0.40807752943E+02  0.50914057912E+02  0.47000000000E+01 0. -1.
         -5    1    1    2    0  502 -0.28940295474E+02 -0.73827846596E+02 -0.58021187676E+02  0.98369913360E+02  0.47000000000E+01 0. -1.
        -11    1    1    2    0    0  0.40819686377E+02  0.49953528754E+02 -0.11629859026E+03  0.13299234537E+03  0.00000000000E+00 0. -1.
         11    1    1    2    0    0 -0.41376633374E+02  0.29772731145E+02 -0.11195739355E+03  0.12301584971E+03  0.00000000000E+00 0.  1.
<mgrwt>
<rscale>  0 0.13943684E+03</rscale>
<asrwt>0</asrwt>
<pdfrwt beam="2">  1        2 0.50058584E-01 0.14828824E+03</pdfrwt>
<pdfrwt beam="1">  1       -2 0.12294057E-01 0.14828824E+03</pdfrwt>
<totfact> 0.45935460E+03</totfact>
</mgrwt>
</event>
<event>
 6    1  0.7457796E-006  0.1274473E+03  0.7546771E-02  0.1246104E+00
         -1   -1    0    0    0  501 -0.00000000000E+00  0.00000000000E+00  0.12629313586E+03  0.12629313586E+03  0.00000000000E+00 0.  1.
          1   -1    0    0  501    0  0.00000000000E+00 -0.00000000000E+00 -0.97840818452E+02  0.97840818452E+02  0.00000000000E+00 0. -1.
          5    1    1    2  502    0  0.70175012846E+02  0.20325442887E+02  0.33533176742E+02  0.80524654603E+02  0.47000000000E+01 0.  1.
         -5    1    1    2    0  502 -0.46388867980E+02 -0.12975758895E+02 -0.90926098238E+01  0.49244928112E+02  0.47000000000E+01 0.  1.
        -11    1    1    2    0    0  0.30644136754E+02  0.11113223721E+02  0.14941080592E+02  0.35858091808E+02  0.00000000000E+00 0.  1.
         11    1    1    2    0    0 -0.54430281620E+02 -0.18462907713E+02 -0.10929330102E+02  0.58506279791E+02  0.00000000000E+00 0. -1.
<mgrwt>
<rscale>  0 0.11819570E+03</rscale>
<asrwt>0</asrwt>
<pdfrwt beam="2">  1        1 0.15052434E-01 0.12744726E+03</pdfrwt>
<pdfrwt beam="1">  1       -1 0.19429713E-01 0.12744726E+03</pdfrwt>
<totfact> 0.73835640E+03</totfact>
</mgrwt>
</event>
<event>
 6    1  0.7457796E-006  0.2835938E+03  0.7546771E-02  0.1095571E+00
         -2   -1    0    0    0  501 -0.00000000000E+00  0.00000000000E+00  0.13858161617E+03  0.13858161617E+03  0.00000000000E+00 0.  1.
          2   -1    0    0  501    0  0.00000000000E+00 -0.00000000000E+00 -0.67958170035E+03  0.67958170035E+03  0.00000000000E+00 0. -1.
          5    1    1    2  502    0  0.99720580407E+02  0.44797574243E+02 -0.10839011752E+02  0.10995722346E+03  0.47000000000E+01 0. -1.
         -5    1    1    2    0  502  0.50091155627E+02  0.16101119640E+03 -0.88780245120E+02  0.19062463420E+03  0.47000000000E+01 0. -1.
        -11    1    1    2    0    0 -0.10840722346E+03 -0.10636380158E+03 -0.18409300322E+03  0.23865376222E+03  0.00000000000E+00 0.  1.
         11    1    1    2    0    0 -0.41404512571E+02 -0.99444969071E+02 -0.25728782409E+03  0.27892769665E+03  0.00000000000E+00 0. -1.
<mgrwt>
<rscale>  0 0.28021578E+03</rscale>
<asrwt>0</asrwt>
<pdfrwt beam="2">  1        2 0.10455103E+00 0.28359382E+03</pdfrwt>
<pdfrwt beam="1">  1       -2 0.21320249E-01 0.28359382E+03</pdfrwt>
<totfact> 0.82041044E+02</totfact>
</mgrwt>
</event>
<event>
 6    1  0.7457796E-006  0.1284898E+03  0.7546771E-02  0.1243535E+00
          3   -1    0    0  501    0  0.00000000000E+00  0.00000000000E+00  0.81147725495E+02  0.81147725495E+02  0.00000000000E+00 0. -1.
         -3   -1    0    0    0  501 -0.00000000000E+00 -0.00000000000E+00 -0.17639044466E+03  0.17639044466E+03  0.00000000000E+00 0.  1.
          5    1    1    2  502    0 -0.37045327485E+02 -0.63279128219E+02 -0.27120213594E+02  0.78321135985E+02  0.47000000000E+01 0.  1.
         -5    1    1    2    0  502  0.18258552417E+02  0.40240345897E+02 -0.69295179821E+02  0.82319937565E+02  0.47000000000E+01 0.  1.
        -11    1    1    2    0    0 -0.21885004407E+02  0.44470358103E+02  0.86716097546E+01  0.50316627306E+02  0.00000000000E+00 0. -1.
         11    1    1    2    0    0  0.40671779475E+02 -0.21431575782E+02 -0.74989355005E+01  0.46580469296E+02  0.00000000000E+00 0.  1.
<mgrwt>
<rscale>  0 0.11973502E+03</rscale>
<asrwt>0</asrwt>
<pdfrwt beam="1">  1        3 0.12484266E-01 0.12848979E+03</pdfrwt>
<pdfrwt beam="2">  1       -3 0.27136991E-01 0.12848979E+03</pdfrwt>
<totfact> 0.14956080E+03</totfact>
</mgrwt>
</event>
<event>
 6    1  0.7457796E-006  0.2554826E+03  0.7546771E-02  0.1109888E+00
         -4   -1    0    0    0  501 -0.00000000000E+00  0.00000000000E+00  0.23900827044E+02  0.23900827044E+02  0.00000000000E+00 0.  1.
          4   -1    0    0  501    0  0.00000000000E+00 -0.00000000000E+00 -0.68273118593E+03  0.68273118593E+03  0.00000000000E+00 0. -1.
          5    1    1    2  502    0 -0.73675910122E+01  0.93956373327E+01 -0.23060437694E+03  0.23096109643E+03  0.47000000000E+01 0.  1.
         -5    1    1    2    0  502  0.61729211812E+02  0.16195121568E+02 -0.47118904080E+02  0.79467343451E+02  0.47000000000E+01 0.  1.
        -11    1    1    2    0    0  0.61779378752E+01 -0.25195851015E+02 -0.28918488756E+02  0.38849412051E+02  0.00000000000E+00 0.  1.
         11    1    1    2    0    0 -0.60539558675E+02 -0.39490788504E+00 -0.35218858911E+03  0.35735416105E+03  0.00000000000E+00 0. -1.
<mgrwt>
<rscale>  0 0.25548260E+03</rscale>
<asrwt>0</asrwt>
<pdfrwt beam="2">  1        4 0.10503557E+00 0.25548260E+03</pdfrwt>
<pdfrwt beam="1">  1       -4 0.36770504E-02 0.25548260E+03</pdfrwt>
<totfact> 0.55184764E+02</totfact>
</mgrwt>
</event>
<event>
 6    1  0.7457796E-006  0.1761937E+03  0.7546771E-02  0.1177852E+00
          2   -1    0    0  501    0  0.00000000000E+00  0.00000000000E+00  0.44684724676E+02  0.44684724676E+02  0.00000000000E+00 0. -1.
         -2   -1    0    0    0  501 -0.00000000000E+00 -0.00000000000E+00 -0.70559806483E+03  0.70559806483E+03  0.00000000000E+00 0.  1.
          5    1    1    2  502    0 -0.22520848731E+02  0.29551650543E+02 -0.35388057190E+03  0.35585676591E+03  0.47000000000E+01 0.  1.
         -5    1    1    2    0  502  0.37397378179E+01  0.93212651018E+02 -0.13809703338E+03  0.16671971862E+03  0.47000000000E+01 0.  1.
        -11    1    1    2    0    0  0.48179767246E+02 -0.10797641119E+03 -0.11785721585E+03  0.16694465752E+03  0.00000000000E+00 0.  1.
         11    1    1    2    0    0 -0.29398656334E+02 -0.14787890370E+02 -0.51078519029E+02  0.60761647460E+02  0.00000000000E+00 0. -1.
<mgrwt>
<rscale>  0 0.16999557E+03</rscale>
<asrwt>0</asrwt>
<pdfrwt beam="1">  1        2 0.68745738E-02 0.17619369E+03</pdfrwt>
<pdfrwt beam="2">  1       -2 0.10855354E+00 0.17619369E+03</pdfrwt>
<totfact> 0.72098236E+02</totfact>
</mgrwt>
</event>
<event>
 6    1  0.7457796E-006  0.3061469E+03  0.7546771E-02  0.1082208E+00
          1   -1    0    0  501    0  0.00000000000E+00  0.00000000000E+00  0.95457381013E+03  0.95457381013E+03  0.00000000000E+00 0. -1.
         -1   -1    0    0    0  501 -0.00000000000E+00 -0.00000000000E+00 -0.24546537543E+02  0.24546537543E+02  0.00000000000E+00 0.  1.
          5    1    1    2  502    0 -0.10103588646E+03 -0.24253817488E+02  0.24060496339E+03  0.26212465818E+03  0.47000000000E+01 0. -1.
         -5    1    1    2    0  502  0.13529950939E+02  0.45503083839E+02  0.71824925716E+02  0.86223547627E+02  0.47000000000E+01 0. -1.
        -11    1    1    2    0    0  0.30834704412E+02 -0.54349852116E+02  0.28713485707E+03  0.29385559645E+03  0.00000000000E+00 0.  1.
         11    1    1    2    0    0  0.56671231113E+02  0.33100585766E+02  0.33046252641E+03  0.33691654541E+03  0.00000000000E+00 0. -1.
<mgrwt>
<rscale>  0 0.30614691E+03</rscale>
<asrwt>0</asrwt>
<pdfrwt beam="1">  1        1 0.14685748E+00 0.30614691E+03</pdfrwt>
<pdfrwt beam="2">  1       -1 0.37763911E-02 0.30614691E+03</pdfrwt>
<totfact> 0.46477288E+03</totfact>
</mgrwt>
</event>
<event>
 6    1  0.7457796E-006  0.1495933E+03  0.7546771E-02  0.1211721E+00
         -1   -1    0    0    0  501 -0.00000000000E+00  0.00000000000E+00  0.82316721159E+02  0.82316721159E+02  0.00000000000E+00 0.  1.
          1   -1    0    0  501    0  0.00000000000E+00 -0.00000000000E+00 -0.25829435244E+03  0.25829435244E+03  0.00000000000E+00 0. -1.
          5    1    1    2  502    0 -0.13477314784E+02 -0.98384762106E+02 -0.52047467501E+02  0.11221509837E+03  0.47000000000E+01 0.  1.
         -5    1    1    2    0  502 -0.22908443892E+02  0.24696784055E+02  0.21809239966E+02  0.40403723741E+02  0.47000000000E+01 0.  1.
        -11    1    1    2    0    0  0.60486909493E+02  0.51359045779E+02 -0.12814335797E+03  0.15072205544E+03  0.00000000000E+00 0. -1.
         11    1    1    2    0    0 -0.24101150816E+02  0.22328932271E+02 -0.17596045779E+02  0.37270196057E+02  0.00000000000E+00 0.  1.
<mgrwt>
<rscale>  0 0.14120198E+03</rscale>
<asrwt>0</asrwt>
<pdfrwt beam="2">  1        1 0.39737592E-01 0.14959330E+03</pdfrwt>
<pdfrwt beam="1">  1       -1 0.12664111E-01 0.14959330E+03</pdfrwt>
<totfact> 0.43065766E+03</totfact>
</mgrwt>
</event>
<event>
 6    1  0.7457796E-006  0.2273120E+03  0.7546771E-02  0.1131625E+00
         -2   -1    0    0    0  501 -0.00000000000E+00  0.00000000000E+00  0.62009658225E+02  0.62009658225E+02  0.00000000000E+00 0.  1.
          2   -1    0    0  501    0  0.00000000000E+00 -0.00000000000E+00 -0.12867805531E+04  0.12867805531E+04  0.00000000000E+00 0. -1.
          5    1    1    2  502    0 -0.18111676599E+03  0.38464160089E+02 -0.16316808373E+03  0.24683737173E+03  0.47000000000E+01 0. -1.
         -5    1    1    2    0  502 -0.87250843558E+01 -0.40912282691E+02 -0.37462718228E+02  0.56351461640E+02  0.47000000000E+01 0. -1.
        -11    1    1    2    0    0  0.32624507871E+02  0.36670443985E+02 -0.20336483906E+03  0.20920405766E+03  0.00000000000E+00 0.  1.
         11    1    1    2    0    0  0.15721734247E+03 -0.34222321384E+02 -0.82077525383E+03  0.83639732027E+03  0.00000000000E+00 0. -1.
<mgrwt>
<rscale>  0 0.22305567E+03</rscale>
<asrwt>0</asrwt>
<pdfrwt beam="2">  1        2 0.19796623E+00 0.22731201E+03</pdfrwt>
<pdfrwt beam="1">  1       -2 0.95399479E-02 0.22731201E+03</pdfrwt>
<totfact> 0.12806727E+03</totfact>
</mgrwt>
</event>
<event>
 6    1  0.7457796E-006  0.2712211E+03  0.7546771E-02  0.1146578E+00
         -1   -1    0    0    0  501 -0.00000000000E+00  0.00000000000E+00  0.33612157272E+03  0.33612157272E+03  0.00000000000E+00 0.  1.
          1   -1    0    0  501    0  0.00000000000E+00 -0.00000000000E+00 -0.11270576537E+03  0.11270576537E+03  0.00000000000E+00 0. -1.
          5    1    1    2  502    0 -0.65902002537E+02  0.60881690399E+02 -0.20872261402E+02  0.92235543367E+02  0.47000000000E+01 0. -1.
         -5    1    1    2    0  502  0.52354311323E+02 -0.48044235871E+02  0.25924985710E+03  0.26885274951E+03  0.47000000000E+01 0.  1.
        -11    1    1    2    0    0  0.43249599983E+01 -0.23718696108E+02  0.31196425512E+02  0.39427132647E+02  0.00000000000E+00 0. -1.
         11    1    1    2    0    0  0.92227312154E+01  0.10881241581E+02 -0.46158213860E+02  0.48311912569E+02  0.00000000000E+00 0.  1.
<mgrwt>
<rscale>  0 0.20379278E+03</rscale>
<asrwt>0</asrwt>
<pdfrwt beam="2">  1        1 0.17339349E-01 0.27122109E+03</pdfrwt>
<pdfrwt beam="1">  1       -1 0.51711011E-01 0.27122109E+03</pdfrwt>
<totfact> 0.11866150E+03</totfact>
</mgrwt>
</event>
<event>
 6    1  0.7457796E-006  0.4238077E+03  0.7546771E-02  0.1035834E+00
          2   -1    0    0  501    0  0.00000000000E+00  0.00000000000E+00  0.10519255581E+04  0.10519255581E+04  0.00000000000E+00 0. -1.
         -2   -1    0    0    0  501 -0.00000000000E+00 -0.00000000000E+00 -0.42686702053E+02  0.42686702053E+02  0.00000000000E+00 0.  1.
          5    1    1    2  502    0 -0.19159860214E+02 -0.17512592378E+02  0.67792907356E+02  0.72744480361E+02  0.47000000000E+01 0. -1.
         -5    1    1    2    0  502  0.16444218553E+03 -0.38021997740E+02  0.21553254318E+03  0.27379421445E+03  0.47000000000E+01 0. -1.
        -11    1    1    2    0    0 -0.70640939190E+02  0.74333846066E+02  0.37114381086E+03  0.38504985561E+03  0.00000000000E+00 0.  1.
         11    1    1    2    0    0 -0.74641386127E+02 -0.18799255947E+02  0.35476959465E+03  0.36302370975E+03  0.00000000000E+00 0. -1.
<mgrwt>
<rscale>  0 0.42380766E+03</rscale>
<asrwt>0</asrwt>
<pdfrwt beam="1">  1        2 0.16183468E+00 0.42380766E+03</pdfrwt>
<pdfrwt beam="2">  1       -2 0.65671857E-02 0.42380766E+03</pdfrwt>
<totfact> 0.31513650E+03</totfact>
</mgrwt>
</event>
<event>
 6    1  0.7457796E-006  0.1320193E+03  0.7546771E-02  0.1237514E+00
          1   -1    0    0  501    0  0.00000000000E+00  0.00000000000E+00  0.31386500567E+03  0.31386500567E+03  0.00000000000E+00 0. -1.
         -1   -1    0    0    0  501 -0.00000000000E+00 -0.00000000000E+00 -0.43470824842E+02  0.43470824842E+02  0.00000000000E+00 0.  1.
          5    1    1    2  502    0 -0.33009208394E+02  0.25709906902E+02  0.22229832918E+02  0.47611580769E+02  0.47000000000E+01 0.  1.
         -5    1    1    2    0  502  0.63248325980E+02 -0.55539900014E+02  0.11757965480E+03  0.14467928828E+03  0.47000000000E+01 0.  1.
        -11    1    1    2    0    0  0.42856888811E+01  0.21703067849E+02 -0.68095149041E+01  0.23146485186E+02  0.00000000000E+00 0.  1.
         11    1    1    2    0    0 -0.34524806466E+02  0.81269252624E+01  0.13739420801E+03  0.14189847628E+03  0.00000000000E+00 0. -1.
<mgrwt>
<rscale>  0 0.12344864E+03</rscale>
<asrwt>0</asrwt>
<pdfrwt beam="1">  1        1 0.48286922E-01 0.13201926E+03</pdfrwt>
<pdfrwt beam="2">  1       -1 0.66878194E-02 0.13201926E+03</pdfrwt>
<totfact> 0.88701256E+03</totfact>
</mgrwt>
</event>
<event>
 6    1  0.7457796E-006  0.1918930E+03  0.7546771E-02  0.1160886E+00
          1   -1    0    0  501    0  0.00000000000E+00  0.00000000000E+00  0.77212416171E+03  0.77212416171E+03  0.00000000000E+00 0. -1.
         -1   -1    0    0    0  501 -0.00000000000E+00 -0.00000000000E+00 -0.44886234204E+02  0.44886234204E+02  0.00000000000E+00 0.  1.
          5    1    1    2  502    0  0.25309349100E+02  0.12555068865E+03  0.21049511983E+03  0.24644233412E+03  0.47000000000E+01 0.  1.
         -5    1    1    2    0  502  0.62723900459E+02 -0.95994568547E+01  0.96257112769E+02  0.11538613010E+03  0.47000000000E+01 0.  1.
        -11    1    1    2    0    0 -0.56578065676E+02 -0.11213430166E+03  0.39509360895E+03  0.41457706034E+03  0.00000000000E+00 0. -1.
         11    1    1    2    0    0 -0.31455183883E+02 -0.38169301338E+01  0.25392085948E+02  0.40604871353E+02  0.00000000000E+00 0.  1.
<mgrwt>
<rscale>  0 0.18733632E+03</rscale>
<asrwt>0</asrwt>
<pdfrwt beam="1">  1        1 0.11878832E+00 0.19189295E+03</pdfrwt>
<pdfrwt beam="2">  1       -1 0.69055750E-02 0.19189295E+03</pdfrwt>
<totfact> 0.26029492E+03</totfact>
</mgrwt>
</event>
<event>
 6    1  0.7457796E-006  0.1613141E+03  0.7546771E-02  0.1195171E+00
          3   -1    0    0  501    0  0.00000000000E+00  0.00000000000E+00  0.35219775933E+02  0.35219775933E+02  0.00000000000E+00 0. -1.
         -3   -1    0    0    0  501 -0.00000000000E+00 -0.00000000000E+00 -0.66882366692E+03  0.66882366692E+03  0.00000000000E+00 0.  1.
          5    1    1    2  502    0 -0.64703299012E+02 -0.80382705254E+02 -0.34619082201E+03  0.36127284904E+03  0.47000000000E+01 0. -1.
         -5    1    1    2    0  502  0.46875748295E+02 -0.19990889370E+02 -0.86435784109E+02  0.10045001847E+03  0.47000000000E+01 0. -1.
        -11    1    1    2    0    0  0.27240150989E+02  0.56873183670E+01 -0.11146445456E+02  0.29976902149E+02  0.00000000000E+00 0. -1.
         11    1    1    2    0    0 -0.94126002718E+01  0.94686276257E+02 -0.18983083941E+03  0.21234367320E+03  0.00000000000E+00 0.  1.
<mgrwt>
<rscale>  0 0.15439803E+03</rscale>
<asrwt>0</asrwt>
<pdfrwt beam="1">  1        3 0.54184275E-02 0.16131406E+03</pdfrwt>
<pdfrwt beam="2">  1       -3 0.10289594E+00 0.16131406E+03</pdfrwt>
<totfact> 0.40428440E+02</totfact>
</mgrwt>
</event>
<event>
 6    1  0.7457796E-006  0.2851866E+03  0.7546771E-02  0.1094470E+00
          2   -1    0    0  501    0  0.00000000000E+00  0.00000000000E+00  0.55814694297E+02  0.55814694297E+02  0.00000000000E+00 0. -1.
         -2   -1    0    0    0  501 -0.00000000000E+00 -0.00000000000E+00 -0.14027364856E+04  0.14027364856E+04  0.00000000000E+00 0.  1.
          5    1    1    2  502    0 -0.13633818775E+03  0.11172481955E+03 -0.35921719553E+03  0.40016199258E+03  0.47000000000E+01 0.  1.
         -5    1    1    2    0  502 -0.11335126487E+02  0.97796277077E+02 -0.36814571922E+03  0.38111147645E+03  0.47000000000E+01 0.  1.
        -11    1    1    2    0    0  0.10904830645E+03 -0.12759638513E+03 -0.28574964713E+03  0.33139890083E+03  0.00000000000E+00 0. -1.
         11    1    1    2    0    0  0.38625007792E+02 -0.81924711500E+02 -0.33380922941E+03  0.34587881002E+03  0.00000000000E+00 0.  1.
<mgrwt>
<rscale>  0 0.28224239E+03</rscale>
<asrwt>0</asrwt>
<pdfrwt beam="1">  1        2 0.85868766E-02 0.28518665E+03</pdfrwt>
<pdfrwt beam="2">  1       -2 0.21580560E+00 0.28518665E+03</pdfrwt>
<totfact> 0.89133326E+01</totfact>
</mgrwt>
</event>
<event>
 6    1  0.7457796E-006  0.1757365E+03  0.7546771E-02  0.1177776E+00
         -2   -1    0    0    0  501 -0.00000000000E+00  0.00000000000E+00  0.81563916706E+02  0.81563916706E+02  0.00000000000E+00 0.  1.
          2   -1    0    0  501    0  0.00000000000E+00 -0.00000000000E+00 -0.44505773139E+03  0.44505773139E+03  0.00000000000E+00 0. -1.
          5    1    1    2  502    0  0.35994852489E+02  0.84201787292E+02 -0.19079640818E+02  0.93657317293E+02  0.47000000000E+01 0.  1.
         -5    1    1    2    0  502 -0.75628883331E+02  0.32793427486E+02 -0.39988972535E+02  0.91740638784E+02  0.47000000000E+01 0.  1.
        -11    1    1    2    0    0 -0.94800863748E+01 -0.49667382253E+02 -0.20667301390E+03  0.21276854930E+03  0.00000000000E+00 0. -1.
         11    1    1    2    0    0  0.49114117216E+02 -0.67327832525E+02 -0.97752187428E+02  0.12845514271E+03  0.00000000000E+00 0.  1.
<mgrwt>
<rscale>  0 0.17006882E+03</rscale>
<asrwt>0</asrwt>
<pdfrwt beam="2">  1        2 0.68470419E-01 0.17573645E+03</pdfrwt>
<pdfrwt beam="1">  1       -2 0.12548295E-01 0.17573645E+03</pdfrwt>
<totfact> 0.31997927E+03</totfact>
</mgrwt>
</event>
<event>
 6    1  0.7457796E-006  0.1451790E+03  0.7546771E-02  0.1216741E+00
          2   -1    0    0  501    0  0.00000000000E+00  0.00000000000E+00  0.72948241029E+03  0.72948241029E+03  0.00000000000E+00 0. -1.
         -2   -1    0    0    0  501 -0.00000000000E+00 -0.00000000000E+00 -0.24026278195E+02  0.24026278195E+02  0.00000000000E+00 0.  1.
          5    1    1    2  502    0 -0.31121334437E+02 -0.74725552660E+02  0.30005252771E+03  0.31081514613E+03  0.47000000000E+01 0.  1.
         -5    1    1    2    0  502 -0.28105856425E+02  0.30617186391E+02  0.35735129399E+02  0.55013096087E+02  0.47000000000E+01 0.  1.
        -11    1    1    2    0    0 -0.90047943017E+01  0.39654791878E+02  0.21135969882E+03  0.21523594292E+03  0.00000000000E+00 0. -1.
         11    1    1    2    0    0  0.68231985165E+02  0.44535743918E+01  0.15830877617E+03  0.17244450335E+03  0.00000000000E+00 0.  1.
<mgrwt>
<rscale>  0 0.13749442E+03</rscale>
<asrwt>0</asrwt>
<pdfrwt beam="1">  1        2 0.11222805E+00 0.14517903E+03</pdfrwt>
<pdfrwt beam="2">  1       -2 0.36963511E-02 0.14517903E+03</pdfrwt>
<totfact> 0.11845689E+04</totfact>
</mgrwt>
</event>
<event>
 6    1  0.7457796E-006  0.1660601E+03  0.7546771E-02  0.1188963E+00
          1   -1    0    0  501    0  0.00000000000E+00  0.00000000000E+00  0.98679690956E+02  0.98679690956E+02  0.00000000000E+00 0. -1.
         -1   -1    0    0    0  501 -0.00000000000E+00 -0.00000000000E+00 -0.24254695308E+03  0.24254695308E+03  0.00000000000E+00 0.  1.
          5    1    1    2  502    0  0.28120544180E+01 -0.12013275649E+03 -0.46499100130E+02  0.12893425900E+03  0.47000000000E+01 0.  1.
         -5    1    1    2    0  502 -0.41837493920E+02  0.18022096801E+02 -0.16725905731E+02  0.48754669450E+02  0.47000000000E+01 0.  1.
        -11    1    1    2    0    0  0.77811687005E+01  0.10862001139E+03 -0.52093059193E+02  0.12071677712E+03  0.00000000000E+00 0. -1.
         11    1    1    2    0    0  0.31244270802E+02 -0.65093517046E+01 -0.28549197070E+02  0.42820938464E+02  0.00000000000E+00 0.  1.
<mgrwt>
<rscale>  0 0.15976405E+03</rscale>
<asrwt>0</asrwt>
<pdfrwt beam="1">  1        1 0.15181491E-01 0.16606009E+03</pdfrwt>
<pdfrwt beam="2">  1       -1 0.37314916E-01 0.16606009E+03</pdfrwt>
<totfact> 0.25049471E+03</totfact>
</mgrwt>
</event>
<event>
 6    1  0.7457796E-006  0.1287925E+03  0.7546771E-02  0.1243854E+00
         -1   -1    0    0    0  501 -0.00000000000E+00  0.00000000000E+00  0.65177206029E+02  0.65177206029E+02  0.00000000000E+00 0.  1.
          1   -1    0    0  501    0  0.00000000000E+00 -0.00000000000E+00 -0.30019311107E+03  0.30019311107E+03  0.00000000000E+00 0. -1.
          5    1    1    2  502    0 -0.56768349929E+02  0.48085320395E+02  0.53121093169E+01  0.74733875161E+02  0.47000000000E+01 0. -1.
         -5    1    1    2    0  502  0.26504092815E+02 -0.41403244272E+02 -0.25671130774E+02  0.55657816409E+02  0.47000000000E+01 0. -1.
        -11    1    1    2    0    0  0.14311532489E+02 -0.35635550627E+02 -0.18972757444E+03  0.19357495947E+03  0.00000000000E+00 0. -1.
         11    1    1    2    0    0  0.15952724625E+02  0.28953474504E+02 -0.24929309144E+02  0.41403666061E+02  0.00000000000E+00 0.  1.
<mgrwt>
<rscale>  0 0.11954202E+03</rscale>
<asrwt>0</asrwt>
<pdfrwt beam="2">  1        1 0.46183555E-01 0.12879248E+03</pdfrwt>
<pdfrwt beam="1">  1       -1 0.10027263E-01 0.12879248E+03</pdfrwt>
<totfact> 0.50780547E+03</totfact>
</mgrwt>
</event>
<event>
 6    1  0.7457796E-006  0.4650704E+03  0.7546771E-02  0.1023321E+00
          1   -1    0    0  501    0  0.00000000000E+00  0.00000000000E+00  0.19201284478E+03  0.19201284478E+03  0.00000000000E+00 0. -1.
         -1   -1    0    0    0  501 -0.00000000000E+00 -0.00000000000E+00 -0.28160943026E+03  0.28160943026E+03  0.00000000000E+00 0.  1.
          5    1    1    2  502    0  0.10550722857E+03  0.15431598272E+03 -0.15902887778E+03  0.24547397372E+03  0.47000000000E+01 0.  1.
         -5    1    1    2    0  502 -0.19086344342E+02 -0.77860567902E+01 -0.46403009823E+01  0.21645637294E+02  0.47000000000E+01 0.  1.
        -11    1    1    2    0    0 -0.41477266532E+02 -0.12930627242E+03  0.25589374242E+02  0.13818571489E+03  0.00000000000E+00 0.  1.
         11    1    1    2    0    0 -0.44943617700E+02 -0.17223653511E+02  0.48483219030E+02  0.68316949140E+02  0.00000000000E+00 0. -1.
<mgrwt>
<rscale>  0 0.46507044E+03</rscale>
<asrwt>0</asrwt>
<pdfrwt beam="1">  1        1 0.29540438E-01 0.46507044E+03</pdfrwt>
<pdfrwt beam="2">  1       -1 0.43324528E-01 0.46507044E+03</pdfrwt>
<totfact> 0.82859887E+02</totfact>
</mgrwt>
</event>
<event>
 6    1  0.7457796E-006  0.1883370E+03  0.7546771E-02  0.1165017E+00
         -1   -1    0    0    0  501 -0.00000000000E+00  0.00000000000E+00  0.45664357943E+02  0.45664357943E+02  0.00000000000E+00 0. -1.
          1   -1    0    0  501    0  0.00000000000E+00 -0.00000000000E+00 -0.73573114801E+03  0.73573114801E+03  0.00000000000E+00 0.  1.
          5    1    1    2  502    0  0.49195006951E+02 -0.95432834562E+02 -0.23835657339E+03  0.26146418627E+03  0.47000000000E+01 0. -1.
         -5    1    1    2    0  502  0.59591420111E+02  0.59170131811E+01 -0.32099907055E+02  0.68107579819E+02  0.47000000000E+01 0. -1.
        -11    1    1    2    0    0 -0.78748281046E+02  0.10649454722E+03 -0.34744189678E+03  0.37183094545E+03  0.00000000000E+00 0. -1.
         11    1    1    2    0    0 -0.30038146016E+02 -0.16978725836E+02 -0.72168412843E+02  0.79992794422E+02  0.00000000000E+00 0.  1.
<mgrwt>
<rscale>  0 0.18290928E+03</rscale>
<asrwt>0</asrwt>
<pdfrwt beam="2">  1        1 0.11318941E+00 0.18833704E+03</pdfrwt>
<pdfrwt beam="1">  1       -1 0.70252858E-02 0.18833704E+03</pdfrwt>
<totfact> 0.27238464E+03</totfact>
</mgrwt>
</event>
<event>
 6    1  0.7457796E-006  0.2350973E+03  0.7546771E-02  0.1123103E+00
         -1   -1    0    0    0  501 -0.00000000000E+00  0.00000000000E+00  0.19231218429E+02  0.19231218429E+02  0.00000000000E+00 0.  1.
          1   -1    0    0  501    0  0.00000000000E+00 -0.00000000000E+00 -0.71850288468E+03  0.71850288468E+03  0.00000000000E+00 0. -1.
          5    1    1    2  502    0  0.15710430199E+01 -0.83275578015E+01 -0.31987014626E+03  0.32001690090E+03  0.47000000000E+01 0.  1.
         -5    1    1    2    0  502 -0.21929420866E+02 -0.23439999754E+02 -0.87601802241E+01  0.33603033279E+02  0.47000000000E+01 0.  1.
        -11    1    1    2    0    0  0.70111586818E+01  0.59899427838E+02 -0.31142104324E+03  0.31720681578E+03  0.00000000000E+00 0. -1.
         11    1    1    2    0    0  0.13347219165E+02 -0.28131870282E+02 -0.59220296525E+02  0.66907353150E+02  0.00000000000E+00 0.  1.
<mgrwt>
<rscale>  0 0.23509731E+03</rscale>
<asrwt>0</asrwt>
<pdfrwt beam="2">  1        1 0.11053893E+00 0.23509731E+03</pdfrwt>
<pdfrwt beam="1">  1       -1 0.29586485E-02 0.23509731E+03</pdfrwt>
<totfact> 0.10334631E+04</totfact>
</mgrwt>
</event>
<event>
 6    1  0.7457796E-006  0.2550916E+03  0.7546771E-02  0.1110129E+00
         -2   -1    0    0    0  501 -0.00000000000E+00  0.00000000000E+00  0.49534171146E+02  0.49534171146E+02  0.00000000000E+00 0. -1.
          2   -1    0    0  501    0  0.00000000000E+00 -0.00000000000E+00 -0.32841832434E+03  0.32841832434E+03  0.00000000000E+00 0.  1.
          5    1    1    2  502    0 -0.63105628764E+01 -0.56383280354E+01 -0.11711932040E+03  0.11751867578E+03  0.47000000000E+01 0.  1.
         -5    1    1    2    0  502  0.64569732502E+02 -0.93198236858E+01 -0.21840218574E+01  0.65444399457E+02  0.47000000000E+01 0.  1.
        -11    1    1    2    0    0 -0.10688498087E+02 -0.51269104734E+01  0.11360521886E+02  0.16419216177E+02  0.00000000000E+00 0. -1.
         11    1    1    2    0    0 -0.47570671538E+02  0.20085062195E+02 -0.17094133282E+03  0.17857020407E+03  0.00000000000E+00 0.  1.
<mgrwt>
<rscale>  0 0.25509159E+03</rscale>
<asrwt>0</asrwt>
<pdfrwt beam="2">  1        2 0.50525895E-01 0.25509159E+03</pdfrwt>
<pdfrwt beam="1">  1       -2 0.76206419E-02 0.25509159E+03</pdfrwt>
<totfact> 0.99867293E+03</totfact>
</mgrwt>
</event>
<event>
 6    1  0.7457796E-006  0.1423334E+03  0.7546771E-02  0.1219595E+00
         -1   -1    0    0    0  501 -0.00000000000E+00  0.00000000000E+00  0.20811742466E+03  0.20811742466E+03  0.00000000000E+00 0.  1.
          1   -1    0    0  501    0  0.00000000000E+00 -0.00000000000E+00 -0.81095853560E+02  0.81095853560E+02  0.00000000000E+00 0. -1.
          5    1    1    2  502    0 -0.81913424232E+02 -0.25741470798E+02  0.26970524165E+02  0.90121759648E+02  0.47000000000E+01 0. -1.
         -5    1    1    2    0  502  0.17179773923E+02  0.46800784496E+02  0.53943140831E+02  0.73603060427E+02  0.47000000000E+01 0. -1.
        -11    1    1    2    0    0 -0.96964106911E+01 -0.38095229506E+02  0.78534415283E+01  0.40086698982E+02  0.00000000000E+00 0.  1.
         11    1    1    2    0    0  0.74430061000E+02  0.17035915808E+02  0.38254464572E+02  0.85401759160E+02  0.00000000000E+00 0. -1.
<mgrwt>
<rscale>  0 0.13544341E+03</rscale>
<asrwt>0</asrwt>
<pdfrwt beam="2">  1        1 0.12476285E-01 0.14233340E+03</pdfrwt>
<pdfrwt beam="1">  1       -1 0.32018065E-01 0.14233340E+03</pdfrwt>
<totfact> 0.41778733E+03</totfact>
</mgrwt>
</event>
<event>
 6    1  0.7457796E-006  0.2469008E+03  0.7546771E-02  0.1117393E+00
         -1   -1    0    0    0  501 -0.00000000000E+00  0.00000000000E+00  0.20035266002E+03  0.20035266002E+03  0.00000000000E+00 0.  1.
          1   -1    0    0  501    0  0.00000000000E+00 -0.00000000000E+00 -0.39303203439E+03  0.39303203439E+03  0.00000000000E+00 0. -1.
          5    1    1    2  502    0  0.18040803022E+03  0.42534776496E+02  0.51722810690E+02  0.19249312644E+03  0.47000000000E+01 0.  1.
         -5    1    1    2    0  502  0.63036595384E+01  0.59789465069E+02  0.28775555644E+01  0.60372896094E+02  0.47000000000E+01 0.  1.
        -11    1    1    2    0    0 -0.18454456664E+03 -0.65572205088E+02 -0.22096106661E+03  0.29526294064E+03  0.00000000000E+00 0. -1.
         11    1    1    2    0    0 -0.21671231194E+01 -0.36752036477E+02 -0.26318674022E+02  0.45255731240E+02  0.00000000000E+00 0.  1.
<mgrwt>
<rscale>  0 0.24363806E+03</rscale>
<asrwt>0</asrwt>
<pdfrwt beam="2">  1        1 0.60466467E-01 0.24690084E+03</pdfrwt>
<pdfrwt beam="1">  1       -1 0.30823486E-01 0.24690084E+03</pdfrwt>
<totfact> 0.60742365E+02</totfact>
</mgrwt>
</event>
<event>
 6    1  0.7457796E-006  0.4480055E+03  0.7546771E-02  0.1028318E+00
          2   -1    0    0  501    0  0.00000000000E+00  0.00000000000E+00  0.12253291306E+04  0.12253291306E+04  0.00000000000E+00 0. -1.
         -2   -1    0    0    0  501 -0.00000000000E+00 -0.00000000000E+00 -0.40950010849E+02  0.40950010849E+02  0.00000000000E+00 0.  1.
          5    1    1    2  502    0 -0.65777262125E+02 -0.16108046489E+03  0.37637349245E+03  0.41467174994E+03  0.47000000000E+01 0. -1.
         -5    1    1    2    0  502 -0.51082415396E+02  0.87552313087E+01  0.17003016530E+03  0.17781567521E+03  0.47000000000E+01 0. -1.
        -11    1    1    2    0    0  0.80904493839E+02  0.68092184906E+02  0.19886494795E+03  0.22523177016E+03  0.00000000000E+00 0. -1.
         11    1    1    2    0    0  0.35955183682E+02  0.84233048674E+02  0.43911051405E+03  0.44855994613E+03  0.00000000000E+00 0.  1.
<mgrwt>
<rscale>  0 0.44800554E+03</rscale>
<asrwt>0</asrwt>
<pdfrwt beam="1">  1        2 0.18851215E+00 0.44800554E+03</pdfrwt>
<pdfrwt beam="2">  1       -2 0.63000026E-02 0.44800554E+03</pdfrwt>
<totfact> 0.26546945E+03</totfact>
</mgrwt>
</event>
<event>
 6    1  0.7457796E-006  0.1419369E+03  0.7546771E-02  0.1221851E+00
         -1   -1    0    0    0  501 -0.00000000000E+00  0.00000000000E+00  0.50337684530E+02  0.50337684530E+02  0.00000000000E+00 0.  1.
          1   -1    0    0  501    0  0.00000000000E+00 -0.00000000000E+00 -0.40577127555E+03  0.40577127555E+03  0.00000000000E+00 0. -1.
          5    1    1    2  502    0 -0.85153942407E+02 -0.13300694859E+02 -0.88684203033E+02  0.12375411209E+03  0.47000000000E+01 0.  1.
         -5    1    1    2    0  502  0.22589723710E+02  0.38037448163E+02 -0.17068505977E+01  0.44521302980E+02  0.47000000000E+01 0.  1.
        -11    1    1    2    0    0  0.55236875170E+02 -0.55672952205E+02 -0.16176591902E+03  0.17977431002E+03  0.00000000000E+00 0.  1.
         11    1    1    2    0    0  0.73273435273E+01  0.30936198901E+02 -0.10327661837E+03  0.10805923500E+03  0.00000000000E+00 0. -1.
<mgrwt>
<rscale>  0 0.13385060E+03</rscale>
<asrwt>0</asrwt>
<pdfrwt beam="2">  1        1 0.62426351E-01 0.14193686E+03</pdfrwt>
<pdfrwt beam="1">  1       -1 0.77442590E-02 0.14193686E+03</pdfrwt>
<totfact> 0.51861095E+03</totfact>
</mgrwt>
</event>
<event>
 6    1  0.7457796E-006  0.3921493E+03  0.7546771E-02  0.1046533E+00
         -2   -1    0    0    0  501 -0.00000000000E+00  0.00000000000E+00  0.28481590047E+03  0.28481590047E+03  0.00000000000E+00 0.  1.
          2   -1    0    0  501    0  0.00000000000E+00 -0.00000000000E+00 -0.13498284097E+03  0.13498284097E+03  0.00000000000E+00 0. -1.
          5    1    1    2  502    0  0.94635280232E+02  0.14035364686E+03  0.10860847436E+03  0.20117870949E+03  0.47000000000E+01 0.  1.
         -5    1    1    2    0  502 -0.21085222478E+01 -0.64224041400E+01 -0.20567798510E+02  0.22154400840E+02  0.47000000000E+01 0.  1.
        -11    1    1    2    0    0 -0.95221425440E+02 -0.68129107620E+02  0.57572402430E+02  0.13047327960E+03  0.00000000000E+00 0. -1.
         11    1    1    2    0    0  0.26946674562E+01 -0.65802135098E+02  0.42199812259E+01  0.65992351509E+02  0.00000000000E+00 0.  1.
<mgrwt>
<rscale>  0 0.39214925E+03</rscale>
<asrwt>0</asrwt>
<pdfrwt beam="2">  1        2 0.20766591E-01 0.39214925E+03</pdfrwt>
<pdfrwt beam="1">  1       -2 0.43817831E-01 0.39214925E+03</pdfrwt>
<totfact> 0.13362007E+03</totfact>
</mgrwt>
</event>
<event>
 6    1  0.7457796E-006  0.1312552E+03  0.7546771E-02  0.1233204E+00
         -2   -1    0    0    0  501 -0.00000000000E+00  0.00000000000E+00  0.62084910721E+02  0.62084910721E+02  0.00000000000E+00 0. -1.
          2   -1    0    0  501    0  0.00000000000E+00 -0.00000000000E+00 -0.25237385192E+03  0.25237385192E+03  0.00000000000E+00 0.  1.
          5    1    1    2  502    0 -0.37605165318E+02 -0.55242815407E+02  0.56327248400E+01  0.67228972191E+02  0.47000000000E+01 0. -1.
         -5    1    1    2    0  502  0.31276287807E+02  0.15718327008E+02 -0.71230054285E+02  0.79505236409E+02  0.47000000000E+01 0. -1.
        -11    1    1    2    0    0  0.97765104346E+01  0.71148396065E+02 -0.11288391208E+03  0.13379257089E+03  0.00000000000E+00 0.  1.
         11    1    1    2    0    0 -0.34476329235E+01 -0.31623907666E+02 -0.11807699671E+02  0.33931983148E+02  0.00000000000E+00 0. -1.
<mgrwt>
<rscale>  0 0.12620094E+03</rscale>
<asrwt>0</asrwt>
<pdfrwt beam="2">  1        2 0.38826746E-01 0.13125517E+03</pdfrwt>
<pdfrwt beam="1">  1       -2 0.95515249E-02 0.13125517E+03</pdfrwt>
<totfact> 0.89026499E+03</totfact>
</mgrwt>
</event>
<event>
 6    1  0.7457796E-006  0.2255063E+03  0.7546771E-02  0.1129843E+00
          1   -1    0    0  501    0  0.00000000000E+00  0.00000000000E+00  0.13744412097E+03  0.13744412097E+03  0.00000000000E+00 0. -1.
         -1   -1    0    0    0  501 -0.00000000000E+00 -0.00000000000E+00 -0.92497785135E+02  0.92497785135E+02  0.00000000000E+00 0.  1.
          5    1    1    2  502    0  0.36298378127E+02 -0.14062582639E+02  0.82780726181E+02  0.91597309525E+02  0.47000000000E+01 0.  1.
         -5    1    1    2    0  502 -0.89014623557E+01  0.79096457093E+01 -0.41162846946E+02  0.43107638488E+02  0.47000000000E+01 0.  1.
        -11    1    1    2    0    0 -0.10789967085E+02  0.73775684239E+01  0.46849622954E+02  0.48638863849E+02  0.00000000000E+00 0. -1.
         11    1    1    2    0    0 -0.16606948687E+02 -0.12246314945E+01 -0.43521166350E+02  0.46598094247E+02  0.00000000000E+00 0.  1.
<mgrwt>
<rscale>  0 0.22550633E+03</rscale>
<asrwt>0</asrwt>
<pdfrwt beam="1">  1        1 0.21145249E-01 0.22550633E+03</pdfrwt>
<pdfrwt beam="2">  1       -1 0.14230428E-01 0.22550633E+03</pdfrwt>
<totfact> 0.81284220E+03</totfact>
</mgrwt>
</event>
<event>
 6    1  0.7457796E-006  0.3025095E+03  0.7546771E-02  0.1083993E+00
         -2   -1    0    0    0  501 -0.00000000000E+00  0.00000000000E+00  0.41815530495E+03  0.41815530495E+03  0.00000000000E+00 0.  1.
          2   -1    0    0  501    0  0.00000000000E+00 -0.00000000000E+00 -0.54711729153E+02  0.54711729153E+02  0.00000000000E+00 0. -1.
          5    1    1    2  502    0  0.14418848924E+02 -0.34192370815E+02  0.22120239595E+02  0.43455913591E+02  0.47000000000E+01 0. -1.
         -5    1    1    2    0  502  0.45484220032E+02  0.78202271568E+02  0.23650854790E+03  0.25326427459E+03  0.47000000000E+01 0. -1.
        -11    1    1    2    0    0  0.28739868697E+02 -0.44173356242E+02  0.43927881893E+02  0.68607027789E+02  0.00000000000E+00 0. -1.
         11    1    1    2    0    0 -0.88642937653E+02  0.16345548935E+00  0.60886906408E+02  0.10753981814E+03  0.00000000000E+00 0.  1.
<mgrwt>
<rscale>  0 0.30250950E+03</rscale>
<asrwt>0</asrwt>
<pdfrwt beam="2">  1        2 0.84171894E-02 0.30250950E+03</pdfrwt>
<pdfrwt beam="1">  1       -2 0.64331583E-01 0.30250950E+03</pdfrwt>
<totfact> 0.18226768E+03</totfact>
</mgrwt>
</event>
<event>
 6    1  0.7457796E-006  0.1453017E+03  0.7546771E-02  0.1216401E+00
          2   -1    0    0  501    0  0.00000000000E+00  0.00000000000E+00  0.26679905723E+02  0.26679905723E+02  0.00000000000E+00 0. -1.
         -2   -1    0    0    0  501 -0.00000000000E+00 -0.00000000000E+00 -0.98133847221E+03  0.98133847221E+03  0.00000000000E+00 0.  1.
          5    1    1    2  502    0  0.76300044150E+02  0.16225520109E+02 -0.39760978436E+03  0.40521672579E+03  0.47000000000E+01 0. -1.
         -5    1    1    2    0  502 -0.19292588334E+02 -0.63543179877E+02 -0.40655469022E+03  0.41196935057E+03  0.47000000000E+01 0. -1.
        -11    1    1    2    0    0 -0.19718802986E+02  0.46656964421E+02 -0.14442149840E+03  0.15304663577E+03  0.00000000000E+00 0.  1.
         11    1    1    2    0    0 -0.37288652830E+02  0.66069534736E+00 -0.60725935093E+01  0.37785665803E+02  0.00000000000E+00 0. -1.
<mgrwt>
<rscale>  0 0.13774118E+03</rscale>
<asrwt>0</asrwt>
<pdfrwt beam="1">  1        2 0.41046013E-02 0.14530169E+03</pdfrwt>
<pdfrwt beam="2">  1       -2 0.15097513E+00 0.14530169E+03</pdfrwt>
<totfact> 0.62472715E+02</totfact>
</mgrwt>
</event>
<event>
 6    1  0.7457796E-006  0.1273851E+03  0.7546771E-02  0.1248333E+00
         -2   -1    0    0    0  501 -0.00000000000E+00  0.00000000000E+00  0.17046718480E+02  0.17046718480E+02  0.00000000000E+00 0.  1.
          2   -1    0    0  501    0  0.00000000000E+00 -0.00000000000E+00 -0.71985293699E+03  0.71985293699E+03  0.00000000000E+00 0. -1.
          5    1    1    2  502    0 -0.49444266106E+02 -0.32835096233E+01 -0.31290728653E+03  0.31684156427E+03  0.47000000000E+01 0.  1.
         -5    1    1    2    0  502  0.34304008031E+02 -0.15962769437E+02 -0.28633974779E+02  0.47681961859E+02  0.47000000000E+01 0.  1.
        -11    1    1    2    0    0 -0.20043661092E+02  0.42502736307E+02 -0.16096798986E+03  0.16768698430E+03  0.00000000000E+00 0.  1.
         11    1    1    2    0    0  0.35183919168E+02 -0.23256457247E+02 -0.20029696734E+03  0.20468914504E+03  0.00000000000E+00 0. -1.
<mgrwt>
<rscale>  0 0.11688114E+03</rscale>
<asrwt>0</asrwt>
<pdfrwt beam="2">  1        2 0.11074659E+00 0.12738512E+03</pdfrwt>
<pdfrwt beam="1">  1       -2 0.26225724E-02 0.12738512E+03</pdfrwt>
<totfact> 0.19756323E+04</totfact>
</mgrwt>
</event>
<event>
 6    1  0.1380787E-005  0.2218537E+03  0.7546771E-02  0.1135907E+00
         -1   -1    0    0    0  501 -0.00000000000E+00  0.00000000000E+00  0.16687147925E+03  0.16687147925E+03  0.00000000000E+00 0.  1.
          1   -1    0    0  501    0  0.00000000000E+00 -0.00000000000E+00 -0.27312261792E+03  0.27312261792E+03  0.00000000000E+00 0. -1.
          5    1    1    2  502    0  0.11154815340E+02  0.62491138082E+02  0.40086615021E+02  0.75223659496E+02  0.47000000000E+01 0. -1.
         -5    1    1    2    0  502 -0.48192297805E+02  0.11701597262E+03 -0.81122221489E+02  0.15039328520E+03  0.47000000000E+01 0. -1.
        -11    1    1    2    0    0 -0.22827194303E+02 -0.74315583555E+02 -0.18599527532E+01  0.77764684679E+02  0.00000000000E+00 0.  1.
         11    1    1    2    0    0  0.59864676768E+02 -0.10519152714E+03 -0.63355579447E+02  0.13661246779E+03  0.00000000000E+00 0. -1.
<mgrwt>
<rscale>  0 0.21730661E+03</rscale>
<asrwt>0</asrwt>
<pdfrwt beam="2">  1        1 0.42018864E-01 0.22185375E+03</pdfrwt>
<pdfrwt beam="1">  1       -1 0.25672536E-01 0.22185375E+03</pdfrwt>
<totfact> 0.13101211E+03</totfact>
</mgrwt>
</event>
<event>
 6    1  0.7457796E-006  0.1272149E+03  0.7546771E-02  0.1246546E+00
         -2   -1    0    0    0  501 -0.00000000000E+00  0.00000000000E+00  0.30053620932E+02  0.30053620932E+02  0.00000000000E+00 0.  1.
          2   -1    0    0  501    0  0.00000000000E+00 -0.00000000000E+00 -0.56155209953E+03  0.56155209953E+03  0.00000000000E+00 0. -1.
          5    1    1    2  502    0 -0.18770194357E+02  0.51966892522E+02 -0.59247399817E+02  0.81149383852E+02  0.47000000000E+01 0. -1.
         -5    1    1    2    0  502  0.41605907077E+02 -0.58241216406E+02 -0.81508980428E+02  0.10857667651E+03  0.47000000000E+01 0. -1.
        -11    1    1    2    0    0 -0.56635150578E+02  0.32220348307E+01 -0.18994082883E+03  0.19823077522E+03  0.00000000000E+00 0.  1.
         11    1    1    2    0    0  0.33799437859E+02  0.30522890532E+01 -0.20080126952E+03  0.20364888487E+03  0.00000000000E+00 0. -1.
<mgrwt>
<rscale>  0 0.11793301E+03</rscale>
<asrwt>0</asrwt>
<pdfrwt beam="2">  1        2 0.86392629E-01 0.12721486E+03</pdfrwt>
<pdfrwt beam="1">  1       -2 0.46236341E-02 0.12721486E+03</pdfrwt>
<totfact> 0.11391946E+04</totfact>
</mgrwt>
</event>
<event>
 6    1  0.7457796E-006  0.1278624E+03  0.7546771E-02  0.1244667E+00
         -1   -1    0    0    0  501 -0.00000000000E+00  0.00000000000E+00  0.14896265239E+03  0.14896265239E+03  0.00000000000E+00 0.  1.
          1   -1    0    0  501    0  0.00000000000E+00 -0.00000000000E+00 -0.86802566030E+02  0.86802566030E+02  0.00000000000E+00 0. -1.
          5    1    1    2  502    0 -0.72097026703E+02  0.15189891259E+02  0.28821442052E+02  0.79255785769E+02  0.47000000000E+01 0. -1.
         -5    1    1    2    0  502  0.47246430531E+02 -0.25477627234E+02  0.26810572478E+02  0.60184977228E+02  0.47000000000E+01 0. -1.
        -11    1    1    2    0    0  0.12726466403E+02 -0.29316658022E+02 -0.27931540232E+02  0.42445262685E+02  0.00000000000E+00 0. -1.
         11    1    1    2    0    0  0.12124129770E+02  0.39604393998E+02  0.34459612064E+02  0.53879192739E+02  0.00000000000E+00 0.  1.
<mgrwt>
<rscale>  0 0.11905331E+03</rscale>
<asrwt>0</asrwt>
<pdfrwt beam="2">  1        1 0.13354241E-01 0.12786245E+03</pdfrwt>
<pdfrwt beam="1">  1       -1 0.22917331E-01 0.12786245E+03</pdfrwt>
<totfact> 0.66105137E+03</totfact>
</mgrwt>
</event>
<event>
 6    1  0.7457796E-006  0.1375315E+03  0.7546771E-02  0.1226029E+00
          2   -1    0    0  501    0  0.00000000000E+00  0.00000000000E+00  0.50162666288E+03  0.50162666288E+03  0.00000000000E+00 0. -1.
         -2   -1    0    0    0  501 -0.00000000000E+00 -0.00000000000E+00 -0.33987800409E+02  0.33987800409E+02  0.00000000000E+00 0.  1.
          5    1    1    2  502    0  0.22468421774E+02 -0.22631462743E+02  0.77300249852E+01  0.33149002537E+02  0.47000000000E+01 0.  1.
         -5    1    1    2    0  502 -0.75193581682E+02  0.45233013152E+02  0.17217031147E+03  0.19329978364E+03  0.47000000000E+01 0.  1.
        -11    1    1    2    0    0  0.74016791147E+02  0.47106767287E+01  0.15271806510E+03  0.16977480159E+03  0.00000000000E+00 0.  1.
         11    1    1    2    0    0 -0.21291631240E+02 -0.27312227138E+02  0.13502046092E+03  0.13939087553E+03  0.00000000000E+00 0. -1.
<mgrwt>
<rscale>  0 0.13096654E+03</rscale>
<asrwt>0</asrwt>
<pdfrwt beam="1">  1        2 0.77173327E-01 0.13753153E+03</pdfrwt>
<pdfrwt beam="2">  1       -2 0.52288928E-02 0.13753153E+03</pdfrwt>
<totfact> 0.10795125E+04</totfact>
</mgrwt>
</event>
<event>
 6    1  0.7457796E-006  0.1382523E+03  0.7546771E-02  0.1227367E+00
         -2   -1    0    0    0  501 -0.00000000000E+00  0.00000000000E+00  0.10054789372E+03  0.10054789372E+03  0.00000000000E+00 0.  1.
          2   -1    0    0  501    0  0.00000000000E+00 -0.00000000000E+00 -0.19761406652E+03  0.19761406652E+03  0.00000000000E+00 0. -1.
          5    1    1    2  502    0 -0.60600116699E+02  0.32786296926E+02 -0.19674437745E+02  0.71808696623E+02  0.47000000000E+01 0.  1.
         -5    1    1    2    0  502  0.49441365584E+02  0.25203083590E+02  0.38533106654E+02  0.67723957073E+02  0.47000000000E+01 0.  1.
        -11    1    1    2    0    0 -0.51799431088E+01 -0.69918772004E+02 -0.11904844469E+03  0.13815932351E+03  0.00000000000E+00 0. -1.
         11    1    1    2    0    0  0.16338694224E+02  0.11929391487E+02  0.31236029785E+01  0.20469983043E+02  0.00000000000E+00 0.  1.
<mgrwt>
<rscale>  0 0.13005949E+03</rscale>
<asrwt>0</asrwt>
<pdfrwt beam="2">  1        2 0.30402164E-01 0.13825235E+03</pdfrwt>
<pdfrwt beam="1">  1       -2 0.15468907E-01 0.13825235E+03</pdfrwt>
<totfact> 0.53704356E+03</totfact>
</mgrwt>
</event>
<event>
 6    1  0.7457796E-006  0.1272822E+03  0.7546771E-02  0.1246279E+00
         -1   -1    0    0    0  501 -0.00000000000E+00  0.00000000000E+00  0.13420736635E+03  0.13420736635E+03  0.00000000000E+00 0.  1.
          1   -1    0    0  501    0  0.00000000000E+00 -0.00000000000E+00 -0.94523789276E+02  0.94523789276E+02  0.00000000000E+00 0. -1.
          5    1    1    2  502    0 -0.18264753217E+02 -0.54945239643E+02  0.20579416878E+02  0.61629400196E+02  0.47000000000E+01 0.  1.
         -5    1    1    2    0  502  0.42277695681E+02  0.54553368639E+02  0.22451693872E+02  0.72729926025E+02  0.47000000000E+01 0.  1.
        -11    1    1    2    0    0 -0.36310611291E+02  0.18417076427E+02  0.32709629078E+02  0.52226133600E+02  0.00000000000E+00 0.  1.
         11    1    1    2    0    0  0.12297668826E+02 -0.18025205423E+02 -0.36057162753E+02  0.42145695805E+02  0.00000000000E+00 0. -1.
<mgrwt>
<rscale>  0 0.11809131E+03</rscale>
<asrwt>0</asrwt>
<pdfrwt beam="2">  1        1 0.14542121E-01 0.12728217E+03</pdfrwt>
<pdfrwt beam="1">  1       -1 0.20647287E-01 0.12728217E+03</pdfrwt>
<totfact> 0.70027914E+03</totfact>
</mgrwt>
</event>
<event>
 6    1  0.7457796E-006  0.2356514E+03  0.7546771E-02  0.1122724E+00
          1   -1    0    0  501    0  0.00000000000E+00  0.00000000000E+00  0.79208670993E+02  0.79208670993E+02  0.00000000000E+00 0. -1.
         -1   -1    0    0    0  501 -0.00000000000E+00 -0.00000000000E+00 -0.17526986107E+03  0.17526986107E+03  0.00000000000E+00 0.  1.
          5    1    1    2  502    0 -0.13384942821E+02  0.57007521504E+02 -0.10278458459E+03  0.11838823857E+03  0.47000000000E+01 0.  1.
         -5    1    1    2    0  502 -0.35319219813E+01 -0.22219527540E+02  0.24897744146E+02  0.33884650515E+02  0.47000000000E+01 0.  1.
        -11    1    1    2    0    0 -0.35515669331E+02 -0.30713263606E+02 -0.15874412130E+02  0.49564748460E+02  0.00000000000E+00 0.  1.
         11    1    1    2    0    0  0.52432534134E+02 -0.40747303581E+01 -0.22999375028E+01  0.52640894518E+02  0.00000000000E+00 0. -1.
<mgrwt>
<rscale>  0 0.23565138E+03</rscale>
<asrwt>0</asrwt>
<pdfrwt beam="1">  1        1 0.12185950E-01 0.23565138E+03</pdfrwt>
<pdfrwt beam="2">  1       -1 0.26964593E-01 0.23565138E+03</pdfrwt>
<totfact> 0.59296477E+03</totfact>
</mgrwt>
</event>
<event>
 6    1  0.7457796E-006  0.1397714E+03  0.7546771E-02  0.1223260E+00
          3   -1    0    0  501    0  0.00000000000E+00  0.00000000000E+00  0.71949777434E+03  0.71949777434E+03  0.00000000000E+00 0. -1.
         -3   -1    0    0    0  501 -0.00000000000E+00 -0.00000000000E+00 -0.30997048921E+02  0.30997048921E+02  0.00000000000E+00 0.  1.
          5    1    1    2  502    0 -0.89753319600E+02  0.19740649311E+02  0.16241758441E+03  0.18667327966E+03  0.47000000000E+01 0.  1.
         -5    1    1    2    0  502  0.32929026112E+02  0.63927952070E+01  0.10071945779E+02  0.35337270453E+02  0.47000000000E+01 0.  1.
        -11    1    1    2    0    0 -0.25976589632E+02 -0.16337722685E+02  0.13047971472E+03  0.13403977150E+03  0.00000000000E+00 0.  1.
         11    1    1    2    0    0  0.82800883120E+02 -0.97957218335E+01  0.38553148051E+03  0.39444450164E+03  0.00000000000E+00 0. -1.
<mgrwt>
<rscale>  0 0.13286903E+03</rscale>
<asrwt>0</asrwt>
<pdfrwt beam="1">  1        3 0.11069195E+00 0.13977141E+03</pdfrwt>
<pdfrwt beam="2">  1       -3 0.47687773E-02 0.13977141E+03</pdfrwt>
<totfact> 0.41137998E+02</totfact>
</mgrwt>
</event>
<event>
 6    1  0.7457796E-006  0.1979189E+03  0.7546771E-02  0.1156117E+00
         -1   -1    0    0    0  501 -0.00000000000E+00  0.00000000000E+00  0.19913656923E+03  0.19913656923E+03  0.00000000000E+00 0.  1.
          1   -1    0    0  501    0  0.00000000000E+00 -0.00000000000E+00 -0.21595760995E+03  0.21595760995E+03  0.00000000000E+00 0. -1.
          5    1    1    2  502    0  0.15688710539E+02 -0.73633833222E+02 -0.27389133388E+01  0.75482903228E+02  0.47000000000E+01 0.  1.
         -5    1    1    2    0  502  0.10950951325E+03 -0.15091290715E+02  0.81996922097E+02  0.13771588790E+03  0.47000000000E+01 0.  1.
        -11    1    1    2    0    0 -0.82746169389E+02  0.29918207134E+02 -0.88207920045E+01  0.88429825502E+02  0.00000000000E+00 0.  1.
         11    1    1    2    0    0 -0.42452054399E+02  0.58806916803E+02 -0.87258257472E+02  0.11346556254E+03  0.00000000000E+00 0. -1.
<mgrwt>
<rscale>  0 0.19262246E+03</rscale>
<asrwt>0</asrwt>
<pdfrwt beam="2">  1        1 0.33224248E-01 0.19791890E+03</pdfrwt>
<pdfrwt beam="1">  1       -1 0.30636395E-01 0.19791890E+03</pdfrwt>
<totfact> 0.13032136E+03</totfact>
</mgrwt>
</event>
<event>
 6    1  0.7457796E-006  0.2230380E+03  0.7546771E-02  0.1134854E+00
          1   -1    0    0  501    0  0.00000000000E+00  0.00000000000E+00  0.26997707069E+03  0.26997707069E+03  0.00000000000E+00 0. -1.
         -1   -1    0    0    0  501 -0.00000000000E+00 -0.00000000000E+00 -0.17102428303E+03  0.17102428303E+03  0.00000000000E+00 0.  1.
          5    1    1    2  502    0 -0.23079760881E+02 -0.89112705099E+02  0.11109471969E+02  0.92839969516E+02  0.47000000000E+01 0. -1.
         -5    1    1    2    0  502 -0.12965374548E+03 -0.14773678099E+02  0.29419718288E+02  0.13385053270E+03  0.47000000000E+01 0. -1.
        -11    1    1    2    0    0  0.97049957154E+02  0.40081140283E+02 -0.99457598031E+01  0.10547089707E+03  0.00000000000E+00 0.  1.
         11    1    1    2    0    0  0.55683549203E+02  0.63805242915E+02  0.68369357206E+02  0.10883995443E+03  0.00000000000E+00 0. -1.
<mgrwt>
<rscale>  0 0.21870214E+03</rscale>
<asrwt>0</asrwt>
<pdfrwt beam="1">  1        1 0.41534934E-01 0.22303804E+03</pdfrwt>
<pdfrwt beam="2">  1       -1 0.26311428E-01 0.22303804E+03</pdfrwt>
<totfact> 0.12759480E+03</totfact>
</mgrwt>
</event>
<event>
 6    1  0.7457796E-006  0.1425499E+03  0.7546771E-02  0.1220926E+00
         -1   -1    0    0    0  501 -0.00000000000E+00  0.00000000000E+00  0.27019725917E+02  0.27019725917E+02  0.00000000000E+00 0.  1.
          1   -1    0    0  501    0  0.00000000000E+00 -0.00000000000E+00 -0.64377814642E+03  0.64377814642E+03  0.00000000000E+00 0. -1.
          5    1    1    2  502    0  0.17672986713E+02  0.16106305211E+02 -0.16264497329E+03  0.16446040516E+03  0.47000000000E+01 0. -1.
         -5    1    1    2    0  502 -0.85847615310E+02 -0.23185683812E+02 -0.96526691657E+02  0.13132738172E+03  0.47000000000E+01 0. -1.
        -11    1    1    2    0    0  0.12954064741E+02 -0.15415771166E+02 -0.10253988476E+02  0.22596417274E+02  0.00000000000E+00 0.  1.
         11    1    1    2    0    0  0.55220563856E+02  0.22495149767E+02 -0.34733276707E+03  0.35241366818E+03  0.00000000000E+00 0. -1.
<mgrwt>
<rscale>  0 0.13450072E+03</rscale>
<asrwt>0</asrwt>
<pdfrwt beam="2">  1        1 0.99042794E-01 0.14254986E+03</pdfrwt>
<pdfrwt beam="1">  1       -1 0.41568808E-02 0.14254986E+03</pdfrwt>
<totfact> 0.71305202E+03</totfact>
</mgrwt>
</event>
<event>
 6    1  0.1159261E-005  0.1271651E+03  0.7546771E-02  0.1272720E+00
         -1   -1    0    0    0  501 -0.00000000000E+00  0.00000000000E+00  0.14120477901E+02  0.14120477901E+02  0.00000000000E+00 0.  1.
          1   -1    0    0  501    0  0.00000000000E+00 -0.00000000000E+00 -0.64170519528E+03  0.64170519528E+03  0.00000000000E+00 0. -1.
          5    1    1    2  502    0 -0.56860911669E+01  0.40985269480E+02 -0.44784793264E+02  0.61154653583E+02  0.47000000000E+01 0. -1.
         -5    1    1    2    0  502  0.21882717852E+02 -0.57808007159E+02 -0.29990038448E+03  0.30624001966E+03  0.47000000000E+01 0. -1.
        -11    1    1    2    0    0  0.10717113434E+02 -0.11834493808E+02 -0.59834080227E+02  0.61927610326E+02  0.00000000000E+00 0. -1.
         11    1    1    2    0    0 -0.26913740119E+02  0.28657231487E+02 -0.22306545941E+03  0.22650338961E+03  0.00000000000E+00 0.  1.
<mgrwt>
<rscale>  0 0.10369122E+03</rscale>
<asrwt>0</asrwt>
<pdfrwt beam="2">  1        1 0.98723908E-01 0.12716515E+03</pdfrwt>
<pdfrwt beam="1">  1       -1 0.21723805E-02 0.12716515E+03</pdfrwt>
<totfact> 0.18282534E+04</totfact>
</mgrwt>
</event>
<event>
 6    1  0.7457796E-006  0.1990600E+03  0.7546771E-02  0.1152616E+00
         -2   -1    0    0    0  501 -0.00000000000E+00  0.00000000000E+00  0.10788771240E+03  0.10788771240E+03  0.00000000000E+00 0. -1.
          2   -1    0    0  501    0  0.00000000000E+00 -0.00000000000E+00 -0.36949867700E+03  0.36949867700E+03  0.00000000000E+00 0.  1.
          5    1    1    2  502    0 -0.57658250075E+02 -0.58538589586E+02 -0.49952574547E+02  0.96273516485E+02  0.47000000000E+01 0.  1.
         -5    1    1    2    0  502 -0.97258323706E+02  0.59736949749E+02 -0.28893756213E+02  0.11783303375E+03  0.47000000000E+01 0.  1.
        -11    1    1    2    0    0  0.20902160801E+02  0.36921068555E+02 -0.14543419063E+02  0.44850603869E+02  0.00000000000E+00 0. -1.
         11    1    1    2    0    0  0.13401441298E+03 -0.38119428718E+02 -0.16822121477E+03  0.21842923529E+03  0.00000000000E+00 0.  1.
<mgrwt>
<rscale>  0 0.19662782E+03</rscale>
<asrwt>0</asrwt>
<pdfrwt beam="2">  1        2 0.56845951E-01 0.19905997E+03</pdfrwt>
<pdfrwt beam="1">  1       -2 0.16598109E-01 0.19905997E+03</pdfrwt>
<totfact> 0.24850268E+03</totfact>
</mgrwt>
</event>
<event>
 6    1  0.7457796E-006  0.1364698E+03  0.7546771E-02  0.1230432E+00
         -2   -1    0    0    0  501 -0.00000000000E+00  0.00000000000E+00  0.32557196708E+02  0.32557196708E+02  0.00000000000E+00 0. -1.
          2   -1    0    0  501    0  0.00000000000E+00 -0.00000000000E+00 -0.45038745559E+03  0.45038745559E+03  0.00000000000E+00 0.  1.
          5    1    1    2  502    0 -0.10068417906E+02  0.30498741360E+02 -0.89348414787E+01  0.33667011390E+02  0.47000000000E+01 0. -1.
         -5    1    1    2    0  502 -0.27126102213E+02 -0.70690124034E+02 -0.22168571095E+03  0.23430655880E+03  0.47000000000E+01 0. -1.
        -11    1    1    2    0    0  0.21502474884E+02  0.56785252375E+02 -0.58724333352E+02  0.84471703198E+02  0.00000000000E+00 0. -1.
         11    1    1    2    0    0  0.15692045235E+02 -0.16593869700E+02 -0.12848537310E+03  0.13049937891E+03  0.00000000000E+00 0.  1.
<mgrwt>
<rscale>  0 0.12801478E+03</rscale>
<asrwt>0</asrwt>
<pdfrwt beam="2">  1        2 0.69290377E-01 0.13646976E+03</pdfrwt>
<pdfrwt beam="1">  1       -2 0.50087995E-02 0.13646976E+03</pdfrwt>
<totfact> 0.12944390E+04</totfact>
</mgrwt>
</event>
<event>
 6    1  0.7457796E-006  0.3109152E+03  0.7546771E-02  0.1079908E+00
          1   -1    0    0  501    0  0.00000000000E+00  0.00000000000E+00  0.42874501944E+03  0.42874501944E+03  0.00000000000E+00 0. -1.
         -1   -1    0    0    0  501 -0.00000000000E+00 -0.00000000000E+00 -0.56366985988E+02  0.56366985988E+02  0.00000000000E+00 0.  1.
          5    1    1    2  502    0 -0.97769790969E+01  0.20126499486E+02  0.13883831617E+03  0.14070832719E+03  0.47000000000E+01 0. -1.
         -5    1    1    2    0  502 -0.10068226057E+03 -0.34781508105E+02  0.72525792974E+02  0.12895251664E+03  0.47000000000E+01 0. -1.
        -11    1    1    2    0    0  0.49605256162E+02  0.51899809521E+02  0.79142240538E+02  0.10685394660E+03  0.00000000000E+00 0. -1.
         11    1    1    2    0    0  0.60853983509E+02 -0.37244800902E+02  0.81871683765E+02  0.10859721500E+03  0.00000000000E+00 0.  1.
<mgrwt>
<rscale>  0 0.31091519E+03</rscale>
<asrwt>0</asrwt>
<pdfrwt beam="1">  1        1 0.65960770E-01 0.31091519E+03</pdfrwt>
<pdfrwt beam="2">  1       -1 0.86718443E-02 0.31091519E+03</pdfrwt>
<totfact> 0.42073403E+03</totfact>
</mgrwt>
</event>
<event>
 6    1  0.7457796E-006  0.1460535E+03  0.7546771E-02  0.1216523E+00
         -2   -1    0    0    0  501 -0.00000000000E+00  0.00000000000E+00  0.31838668517E+02  0.31838668517E+02  0.00000000000E+00 0. -1.
          2   -1    0    0  501    0  0.00000000000E+00 -0.00000000000E+00 -0.56639826386E+03  0.56639826386E+03  0.00000000000E+00 0.  1.
          5    1    1    2  502    0  0.56082015840E+02  0.61010329426E+02 -0.67079083385E+02  0.10671994296E+03  0.47000000000E+01 0.  1.
         -5    1    1    2    0  502 -0.29690791106E+02  0.97753009474E+01 -0.16129856710E+03  0.16436671602E+03  0.47000000000E+01 0.  1.
        -11    1    1    2    0    0  0.31906060503E+02 -0.32187690681E+02 -0.12026458091E+03  0.12852086815E+03  0.00000000000E+00 0.  1.
         11    1    1    2    0    0 -0.58297285237E+02 -0.38597939692E+02 -0.18591736395E+03  0.19862940525E+03  0.00000000000E+00 0. -1.
<mgrwt>
<rscale>  0 0.13765228E+03</rscale>
<asrwt>0</asrwt>
<pdfrwt beam="2">  1        2 0.87138191E-01 0.14605350E+03</pdfrwt>
<pdfrwt beam="1">  1       -2 0.48982569E-02 0.14605350E+03</pdfrwt>
<totfact> 0.10447440E+04</totfact>
</mgrwt>
</event>
<event>
 6    1  0.7457796E-006  0.2906758E+03  0.7546771E-02  0.1093297E+00
         -1   -1    0    0    0  501 -0.00000000000E+00  0.00000000000E+00  0.36871660265E+03  0.36871660265E+03  0.00000000000E+00 0.  1.
          1   -1    0    0  501    0  0.00000000000E+00 -0.00000000000E+00 -0.22991633059E+03  0.22991633059E+03  0.00000000000E+00 0. -1.
          5    1    1    2  502    0  0.14373951897E+03  0.12100120550E+02  0.10872905490E+03  0.18069742557E+03  0.47000000000E+01 0. -1.
         -5    1    1    2    0  502  0.71834551241E+02  0.12241154867E+03  0.50422633353E+02  0.15069612455E+03  0.47000000000E+01 0.  1.
        -11    1    1    2    0    0 -0.17592941492E+03 -0.13677418942E+03 -0.49430417787E+00  0.22284205676E+03  0.00000000000E+00 0. -1.
         11    1    1    2    0    0 -0.39644655286E+02  0.22625201933E+01 -0.19857112012E+02  0.44397326359E+02  0.00000000000E+00 0.  1.
<mgrwt>
<rscale>  0 0.28442386E+03</rscale>
<asrwt>0</asrwt>
<pdfrwt beam="2">  1        1 0.35371743E-01 0.29067581E+03</pdfrwt>
<pdfrwt beam="1">  1       -1 0.56725631E-01 0.29067581E+03</pdfrwt>
<totfact> 0.39937193E+02</totfact>
</mgrwt>
</event>
<event>
 6    1  0.7457796E-006  0.1240307E+03  0.7546771E-02  0.1250942E+00
          2   -1    0    0  501    0  0.00000000000E+00  0.00000000000E+00  0.21424090062E+03  0.21424090062E+03  0.00000000000E+00 0. -1.
         -2   -1    0    0    0  501 -0.00000000000E+00 -0.00000000000E+00 -0.57547555628E+02  0.57547555628E+02  0.00000000000E+00 0.  1.
          5    1    1    2  502    0  0.46956143168E+02  0.31497344887E+02  0.48840622151E+02  0.74862931336E+02  0.47000000000E+01 0. -1.
         -5    1    1    2    0  502 -0.38732822748E+02 -0.48129293835E+02  0.11301071137E+02  0.62979875294E+02  0.47000000000E+01 0.  1.
        -11    1    1    2    0    0 -0.94589182219E+01 -0.36844911127E+02  0.51404541029E+02  0.63948772062E+02  0.00000000000E+00 0.  1.
         11    1    1    2    0    0  0.12355978019E+01  0.53476860075E+02  0.45147110677E+02  0.69996877558E+02  0.00000000000E+00 0. -1.
<mgrwt>
<rscale>  0 0.11536668E+03</rscale>
<asrwt>0</asrwt>
<pdfrwt beam="1">  1        2 0.32960138E-01 0.12403071E+03</pdfrwt>
<pdfrwt beam="2">  1       -2 0.88534702E-02 0.12403071E+03</pdfrwt>
<totfact> 0.11881698E+04</totfact>
</mgrwt>
</event>
<event>
 6    1  0.7457796E-006  0.1291859E+03  0.7546771E-02  0.1244654E+00
         -2   -1    0    0    0  501 -0.00000000000E+00  0.00000000000E+00  0.20896712613E+02  0.20896712613E+02  0.00000000000E+00 0.  1.
          2   -1    0    0  501    0  0.00000000000E+00 -0.00000000000E+00 -0.60027734089E+03  0.60027734089E+03  0.00000000000E+00 0. -1.
          5    1    1    2  502    0  0.36077808565E+02 -0.28941121413E+02 -0.47036273859E+02  0.66133938625E+02  0.47000000000E+01 0.  1.
         -5    1    1    2    0  502 -0.61599598415E+02  0.86036717091E+01 -0.25217462416E+03  0.25977425731E+03  0.47000000000E+01 0.  1.
        -11    1    1    2    0    0  0.33182450281E+02  0.48241462876E+02 -0.13360416764E+03  0.14587113271E+03  0.00000000000E+00 0.  1.
         11    1    1    2    0    0 -0.76606604317E+01 -0.27904013172E+02 -0.14656556262E+03  0.14939472486E+03  0.00000000000E+00 0. -1.
<mgrwt>
<rscale>  0 0.11906087E+03</rscale>
<asrwt>0</asrwt>
<pdfrwt beam="2">  1        2 0.92350350E-01 0.12918588E+03</pdfrwt>
<pdfrwt beam="1">  1       -2 0.32148792E-02 0.12918588E+03</pdfrwt>
<totfact> 0.18128040E+04</totfact>
</mgrwt>
</event>
<event>
 6    1  0.7457796E-006  0.1257671E+03  0.7546771E-02  0.1249539E+00
          3   -1    0    0  501    0  0.00000000000E+00  0.00000000000E+00  0.10484989322E+03  0.10484989322E+03  0.00000000000E+00 0. -1.
         -3   -1    0    0    0  501 -0.00000000000E+00 -0.00000000000E+00 -0.11280917548E+03  0.11280917548E+03  0.00000000000E+00 0.  1.
          5    1    1    2  502    0  0.19210768647E+02 -0.52341009866E+02 -0.36343740574E+02  0.66720254980E+02  0.47000000000E+01 0. -1.
         -5    1    1    2    0  502 -0.24644729130E+02  0.39542386364E+02  0.35965948752E+02  0.59047459411E+02  0.47000000000E+01 0. -1.
        -11    1    1    2    0    0  0.34152347047E+02  0.10313496658E+02 -0.36514584382E+02  0.51049641475E+02  0.00000000000E+00 0.  1.
         11    1    1    2    0    0 -0.28718386564E+02  0.24851268437E+01  0.28933093940E+02  0.40841712834E+02  0.00000000000E+00 0. -1.
<mgrwt>
<rscale>  0 0.11617783E+03</rscale>
<asrwt>0</asrwt>
<pdfrwt beam="1">  1        3 0.16130753E-01 0.12576715E+03</pdfrwt>
<pdfrwt beam="2">  1       -3 0.17355258E-01 0.12576715E+03</pdfrwt>
<totfact> 0.21315088E+03</totfact>
</mgrwt>
</event>
<event>
 6    1  0.7457796E-006  0.1367602E+03  0.7546771E-02  0.1229600E+00
          2   -1    0    0  501    0  0.00000000000E+00  0.00000000000E+00  0.11168713733E+03  0.11168713733E+03  0.00000000000E+00 0. -1.
         -2   -1    0    0    0  501 -0.00000000000E+00 -0.00000000000E+00 -0.16855130766E+03  0.16855130766E+03  0.00000000000E+00 0.  1.
          5    1    1    2  502    0 -0.25169450506E+02 -0.41413329989E+02 -0.48934928139E+02  0.69031024413E+02  0.47000000000E+01 0.  1.
         -5    1    1    2    0  502  0.79784936064E+02  0.31629511255E+02 -0.46399729986E+02  0.97678487641E+02  0.47000000000E+01 0.  1.
        -11    1    1    2    0    0 -0.39877774559E+02 -0.13427392255E+02  0.63613940795E+02  0.76270998617E+02  0.00000000000E+00 0. -1.
         11    1    1    2    0    0 -0.14737710999E+02  0.23211210988E+02 -0.25143452998E+02  0.37257934319E+02  0.00000000000E+00 0.  1.
<mgrwt>
<rscale>  0 0.12856569E+03</rscale>
<asrwt>0</asrwt>
<pdfrwt beam="1">  1        2 0.17182637E-01 0.13676024E+03</pdfrwt>
<pdfrwt beam="2">  1       -2 0.25930970E-01 0.13676024E+03</pdfrwt>
<totfact> 0.42253095E+03</totfact>
</mgrwt>
</event>
<event>
 6    1  0.7457796E-006  0.1349949E+03  0.7546771E-02  0.1231754E+00
         -1   -1    0    0    0  501 -0.00000000000E+00  0.00000000000E+00  0.11641135755E+03  0.11641135755E+03  0.00000000000E+00 0.  1.
          1   -1    0    0  501    0  0.00000000000E+00 -0.00000000000E+00 -0.12838142733E+03  0.12838142733E+03  0.00000000000E+00 0. -1.
          5    1    1    2  502    0  0.14876884263E+02  0.11466147117E+02  0.61663715063E+02  0.64632019700E+02  0.47000000000E+01 0. -1.
         -5    1    1    2    0  502 -0.39670954194E+02  0.33030800207E+02 -0.48520753994E+02  0.71001210814E+02  0.47000000000E+01 0. -1.
        -11    1    1    2    0    0 -0.31560583006E+02 -0.20277364277E+02 -0.29414432002E+02  0.47670228777E+02  0.00000000000E+00 0. -1.
         11    1    1    2    0    0  0.56354652936E+02 -0.24219583047E+02  0.43014011522E+01  0.61489325597E+02  0.00000000000E+00 0.  1.
<mgrwt>
<rscale>  0 0.12714565E+03</rscale>
<asrwt>0</asrwt>
<pdfrwt beam="2">  1        1 0.19750989E-01 0.13499495E+03</pdfrwt>
<pdfrwt beam="1">  1       -1 0.17909440E-01 0.13499495E+03</pdfrwt>
<totfact> 0.59597539E+03</totfact>
</mgrwt>
</event>
<event>
 6    1  0.7457796E-006  0.3266051E+03  0.7546771E-02  0.1072649E+00
         -4   -1    0    0    0  501 -0.00000000000E+00  0.00000000000E+00  0.21864482654E+03  0.21864482654E+03  0.00000000000E+00 0.  1.
          4   -1    0    0  501    0  0.00000000000E+00 -0.00000000000E+00 -0.12196823233E+03  0.12196823233E+03  0.00000000000E+00 0. -1.
          5    1    1    2  502    0  0.12235878660E+03  0.29516957005E+02  0.77927565653E+02  0.14811387139E+03  0.47000000000E+01 0.  1.
         -5    1    1    2    0  502 -0.14294197059E+02  0.27458239519E+02 -0.18656953925E+02  0.36447920611E+02  0.47000000000E+01 0.  1.
        -11    1    1    2    0    0 -0.48883853704E+02 -0.73600580720E+02  0.33370990659E+02  0.94447337987E+02  0.00000000000E+00 0. -1.
         11    1    1    2    0    0 -0.59180735841E+02  0.16625384196E+02  0.40349918195E+01  0.61603928879E+02  0.00000000000E+00 0.  1.
<mgrwt>
<rscale>  0 0.32660510E+03</rscale>
<asrwt>0</asrwt>
<pdfrwt beam="2">  1        4 0.18764343E-01 0.32660510E+03</pdfrwt>
<pdfrwt beam="1">  1       -4 0.33637666E-01 0.32660510E+03</pdfrwt>
<totfact> 0.41322155E+02</totfact>
</mgrwt>
</event>
<event>
 6    1  0.7457796E-006  0.1754209E+03  0.7546771E-02  0.1182459E+00
         -1   -1    0    0    0  501 -0.00000000000E+00  0.00000000000E+00  0.10581602834E+03  0.10581602834E+03  0.00000000000E+00 0.  1.
          1   -1    0    0  501    0  0.00000000000E+00 -0.00000000000E+00 -0.35514053965E+03  0.35514053965E+03  0.00000000000E+00 0. -1.
          5    1    1    2  502    0  0.69158650883E+02  0.29999367806E+02  0.35436775045E+02  0.83431025921E+02  0.47000000000E+01 0.  1.
         -5    1    1    2    0  502  0.47095044932E+02 -0.70381392738E+02 -0.35617108947E+02  0.91989956793E+02  0.47000000000E+01 0.  1.
        -11    1    1    2    0    0 -0.18925882140E+02  0.23653208245E+02 -0.11523267363E+03  0.11914794311E+03  0.00000000000E+00 0. -1.
         11    1    1    2    0    0 -0.97327813675E+02  0.16728816688E+02 -0.13391150378E+03  0.16638764217E+03  0.00000000000E+00 0.  1.
<mgrwt>
<rscale>  0 0.16565233E+03</rscale>
<asrwt>0</asrwt>
<pdfrwt beam="2">  1        1 0.54637006E-01 0.17542089E+03</pdfrwt>
<pdfrwt beam="1">  1       -1 0.16279389E-01 0.17542089E+03</pdfrwt>
<totfact> 0.19651249E+03</totfact>
</mgrwt>
</event>
<event>
 6    1  0.7457796E-006  0.1438735E+03  0.7546771E-02  0.1218238E+00
         -2   -1    0    0    0  501 -0.00000000000E+00  0.00000000000E+00  0.77939608259E+03  0.77939608259E+03  0.00000000000E+00 0.  1.
          2   -1    0    0  501    0  0.00000000000E+00 -0.00000000000E+00 -0.48964940118E+02  0.48964940118E+02  0.00000000000E+00 0. -1.
          5    1    1    2  502    0 -0.42186663614E+02 -0.54002499866E+01  0.59619870448E+02  0.73385940336E+02  0.47000000000E+01 0. -1.
         -5    1    1    2    0  502 -0.25781254707E+02  0.25551529118E+02  0.63101959760E+03  0.63208019767E+03  0.47000000000E+01 0. -1.
        -11    1    1    2    0    0  0.29028191599E+02 -0.12337628178E+02 -0.29397627567E+02  0.43116974420E+02  0.00000000000E+00 0. -1.
         11    1    1    2    0    0  0.38939726722E+02 -0.78136509537E+01  0.69189301992E+02  0.79777910279E+02  0.00000000000E+00 0.  1.
<mgrwt>
<rscale>  0 0.13641336E+03</rscale>
<asrwt>0</asrwt>
<pdfrwt beam="2">  1        2 0.75330683E-02 0.14387355E+03</pdfrwt>
<pdfrwt beam="1">  1       -2 0.11990708E+00 0.14387355E+03</pdfrwt>
<totfact> 0.50334374E+02</totfact>
</mgrwt>
</event>
<event>
 6    1  0.7457796E-006  0.1523433E+03  0.7546771E-02  0.1214273E+00
         -2   -1    0    0    0  501 -0.00000000000E+00  0.00000000000E+00  0.14552912148E+02  0.14552912148E+02  0.00000000000E+00 0.  1.
          2   -1    0    0  501    0  0.00000000000E+00 -0.00000000000E+00 -0.11703687556E+04  0.11703687556E+04  0.00000000000E+00 0. -1.
          5    1    1    2  502    0 -0.50977212825E+02  0.62627523307E+02 -0.20931687460E+03  0.22440260002E+03  0.47000000000E+01 0.  1.
         -5    1    1    2    0  502 -0.11944011969E+02 -0.24824036875E+01 -0.54436021787E+03  0.54451717930E+03  0.47000000000E+01 0.  1.
        -11    1    1    2    0    0  0.24102646836E+02  0.87616826244E+01 -0.69227659480E+02  0.73825290410E+02  0.00000000000E+00 0.  1.
         11    1    1    2    0    0  0.38818577957E+02 -0.68906802244E+02 -0.33291109155E+03  0.34217659807E+03  0.00000000000E+00 0. -1.
<mgrwt>
<rscale>  0 0.13930080E+03</rscale>
<asrwt>0</asrwt>
<pdfrwt beam="2">  1        2 0.18005680E+00 0.15234325E+03</pdfrwt>
<pdfrwt beam="1">  1       -2 0.22389087E-02 0.15234325E+03</pdfrwt>
<totfact> 0.13195295E+04</totfact>
</mgrwt>
</event>
<event>
 6    1  0.7457796E-006  0.1574479E+03  0.7546771E-02  0.1197612E+00
         -2   -1    0    0    0  501 -0.00000000000E+00  0.00000000000E+00  0.12292229804E+03  0.12292229804E+03  0.00000000000E+00 0.  1.
          2   -1    0    0  501    0  0.00000000000E+00 -0.00000000000E+00 -0.20306176185E+03  0.20306176185E+03  0.00000000000E+00 0. -1.
          5    1    1    2  502    0 -0.33912825803E+02 -0.71425902612E+02  0.18508188667E+02  0.81341148047E+02  0.47000000000E+01 0. -1.
         -5    1    1    2    0  502 -0.59117403509E+02  0.48762511442E+02 -0.32386998489E+01  0.76845488459E+02  0.47000000000E+01 0. -1.
        -11    1    1    2    0    0  0.24632439680E+02  0.33672493784E+02 -0.88913959249E+02  0.98215508305E+02  0.00000000000E+00 0. -1.
         11    1    1    2    0    0  0.68397789632E+02 -0.11009102614E+02 -0.64949933883E+01  0.69581915079E+02  0.00000000000E+00 0.  1.
<mgrwt>
<rscale>  0 0.15235211E+03</rscale>
<asrwt>0</asrwt>
<pdfrwt beam="2">  1        2 0.31240271E-01 0.15744794E+03</pdfrwt>
<pdfrwt beam="1">  1       -2 0.18911123E-01 0.15744794E+03</pdfrwt>
<totfact> 0.37618730E+03</totfact>
</mgrwt>
</event>
<event>
 6    1  0.7457796E-006  0.1254560E+03  0.7546771E-02  0.1246852E+00
         -1   -1    0    0    0  501 -0.00000000000E+00  0.00000000000E+00  0.16314388232E+03  0.16314388232E+03  0.00000000000E+00 0.  1.
          1   -1    0    0  501    0  0.00000000000E+00 -0.00000000000E+00 -0.76220519936E+02  0.76220519936E+02  0.00000000000E+00 0. -1.
          5    1    1    2  502    0 -0.47088927520E+02 -0.25907874314E+02 -0.18140519931E+02  0.56918832646E+02  0.47000000000E+01 0. -1.
         -5    1    1    2    0  502  0.39651293283E+02  0.18282125921E+02  0.62011345748E+02  0.75986565843E+02  0.47000000000E+01 0. -1.
        -11    1    1    2    0    0  0.54692522612E+01  0.29166115967E+02  0.67548990441E+02  0.73779679794E+02  0.00000000000E+00 0.  1.
         11    1    1    2    0    0  0.19683819760E+01 -0.21540367575E+02 -0.24496453874E+02  0.32679323972E+02  0.00000000000E+00 0. -1.
<mgrwt>
<rscale>  0 0.11775232E+03</rscale>
<asrwt>0</asrwt>
<pdfrwt beam="2">  1        1 0.11726234E-01 0.12545595E+03</pdfrwt>
<pdfrwt beam="1">  1       -1 0.25099059E-01 0.12545595E+03</pdfrwt>
<totfact> 0.67436954E+03</totfact>
</mgrwt>
</event>
<event>
 6    1  0.1000123E-005  0.2310752E+03  0.7546771E-02  0.1128860E+00
         -1   -1    0    0    0  501 -0.00000000000E+00  0.00000000000E+00  0.10251125331E+04  0.10251125331E+04  0.00000000000E+00 0.  1.
          1   -1    0    0  501    0  0.00000000000E+00 -0.00000000000E+00 -0.49813347654E+02  0.49813347654E+02  0.00000000000E+00 0. -1.
          5    1    1    2  502    0  0.18098323411E+02  0.20648909252E+03  0.51496961981E+03  0.55514060739E+03  0.47000000000E+01 0. -1.
         -5    1    1    2    0  502 -0.18657171121E+02 -0.12142511200E+02  0.78422280288E+02  0.81655830521E+02  0.47000000000E+01 0. -1.
        -11    1    1    2    0    0 -0.44861818878E+02 -0.82304127757E+02  0.17286445754E+03  0.19664351736E+03  0.00000000000E+00 0. -1.
         11    1    1    2    0    0  0.45420666588E+02 -0.11204245356E+03  0.20904282784E+03  0.24148592552E+03  0.00000000000E+00 0.  1.
<mgrwt>
<rscale>  0 0.22687290E+03</rscale>
<asrwt>0</asrwt>
<pdfrwt beam="2">  1        1 0.76635927E-02 0.23107522E+03</pdfrwt>
<pdfrwt beam="1">  1       -1 0.15770961E+00 0.23107522E+03</pdfrwt>
<totfact> 0.30571857E+02</totfact>
</mgrwt>
</event>
<event>
 6    1  0.7457796E-006  0.1458500E+03  0.7546771E-02  0.1218409E+00
         -2   -1    0    0    0  501 -0.00000000000E+00  0.00000000000E+00  0.83266431766E+02  0.83266431766E+02  0.00000000000E+00 0.  1.
          2   -1    0    0  501    0  0.00000000000E+00 -0.00000000000E+00 -0.20049889552E+03  0.20049889552E+03  0.00000000000E+00 0. -1.
          5    1    1    2  502    0 -0.58662626786E+02 -0.25282043345E+02 -0.38177322742E+02  0.74565967230E+02  0.47000000000E+01 0.  1.
         -5    1    1    2    0  502  0.61249195012E+02 -0.49808359056E+02 -0.13866736793E+02  0.80291424889E+02  0.47000000000E+01 0.  1.
        -11    1    1    2    0    0  0.21669473035E+02  0.26292336515E+02 -0.66146153673E+02  0.74405420950E+02  0.00000000000E+00 0. -1.
         11    1    1    2    0    0 -0.24256041260E+02  0.48798065886E+02  0.95774945608E+00  0.54502514216E+02  0.00000000000E+00 0.  1.
<mgrwt>
<rscale>  0 0.13629066E+03</rscale>
<asrwt>0</asrwt>
<pdfrwt beam="2">  1        2 0.30845984E-01 0.14585002E+03</pdfrwt>
<pdfrwt beam="1">  1       -2 0.12810220E-01 0.14585002E+03</pdfrwt>
<totfact> 0.72071898E+03</totfact>
</mgrwt>
</event>
<event>
 6    1  0.7457796E-006  0.2679141E+03  0.7546771E-02  0.1104749E+00
         -1   -1    0    0    0  501 -0.00000000000E+00  0.00000000000E+00  0.93333878052E+02  0.93333878052E+02  0.00000000000E+00 0. -1.
          1   -1    0    0  501    0  0.00000000000E+00 -0.00000000000E+00 -0.79322309011E+03  0.79322309011E+03  0.00000000000E+00 0.  1.
          5    1    1    2  502    0  0.20057129555E+03  0.70803317981E+02 -0.19857475228E+03  0.29102573199E+03  0.47000000000E+01 0. -1.
         -5    1    1    2    0  502  0.12656171107E+01  0.53354970177E+02 -0.31708322299E+02  0.62256424024E+02  0.47000000000E+01 0. -1.
        -11    1    1    2    0    0 -0.12171589101E+03 -0.58712112051E+02 -0.17547116275E+03  0.22147685925E+03  0.00000000000E+00 0. -1.
         11    1    1    2    0    0 -0.80121021651E+02 -0.65446176107E+02 -0.29413497473E+03  0.31179795291E+03  0.00000000000E+00 0.  1.
<mgrwt>
<rscale>  0 0.26402413E+03</rscale>
<asrwt>0</asrwt>
<pdfrwt beam="2">  1        1 0.12203432E+00 0.26791414E+03</pdfrwt>
<pdfrwt beam="1">  1       -1 0.14359058E-01 0.26791414E+03</pdfrwt>
<totfact> 0.80695542E+02</totfact>
</mgrwt>
</event>
<event>
 6    1  0.7457796E-006  0.1338075E+03  0.7546771E-02  0.1234187E+00
          1   -1    0    0  501    0  0.00000000000E+00  0.00000000000E+00  0.93281123147E+02  0.93281123147E+02  0.00000000000E+00 0. -1.
         -1   -1    0    0    0  501 -0.00000000000E+00 -0.00000000000E+00 -0.21507393207E+03  0.21507393207E+03  0.00000000000E+00 0.  1.
          5    1    1    2  502    0  0.11733306791E+02 -0.87963660865E+02 -0.78999191589E+02  0.11890432453E+03  0.47000000000E+01 0.  1.
         -5    1    1    2    0  502 -0.61948053941E+01  0.40534698177E+02 -0.70818945699E+02  0.81968594231E+02  0.47000000000E+01 0.  1.
        -11    1    1    2    0    0  0.35368948471E+02 -0.65102129687E+01  0.12024192323E+02  0.37920002503E+02  0.00000000000E+00 0. -1.
         11    1    1    2    0    0 -0.40907449868E+02  0.53939175656E+02  0.16001136041E+02  0.69562133951E+02  0.00000000000E+00 0.  1.
<mgrwt>
<rscale>  0 0.12556604E+03</rscale>
<asrwt>0</asrwt>
<pdfrwt beam="1">  1        1 0.14350942E-01 0.13380753E+03</pdfrwt>
<pdfrwt beam="2">  1       -1 0.33088297E-01 0.13380753E+03</pdfrwt>
<totfact> 0.32804124E+03</totfact>
</mgrwt>
</event>
<event>
 6    1  0.7457796E-006  0.3468776E+03  0.7546771E-02  0.1063904E+00
         -3   -1    0    0    0  501 -0.00000000000E+00  0.00000000000E+00  0.19823542294E+03  0.19823542294E+03  0.00000000000E+00 0.  1.
          3   -1    0    0  501    0  0.00000000000E+00 -0.00000000000E+00 -0.15174390713E+03  0.15174390713E+03  0.00000000000E+00 0. -1.
          5    1    1    2  502    0 -0.28386203517E+02  0.31257906575E+02  0.25870852162E+02  0.49741574815E+02  0.47000000000E+01 0.  1.
         -5    1    1    2    0  502  0.12386231773E+03  0.45426149233E+02  0.54241700166E+02  0.14272232070E+03  0.47000000000E+01 0.  1.
        -11    1    1    2    0    0 -0.55850901091E+02  0.15559461762E+01 -0.41297181986E+02  0.69478063885E+02  0.00000000000E+00 0. -1.
         11    1    1    2    0    0 -0.39625213126E+02 -0.78240001984E+02  0.76761454736E+01  0.88037370674E+02  0.00000000000E+00 0.  1.
<mgrwt>
<rscale>  0 0.34687760E+03</rscale>
<asrwt>0</asrwt>
<pdfrwt beam="2">  1        3 0.23345216E-01 0.34687760E+03</pdfrwt>
<pdfrwt beam="1">  1       -3 0.30497758E-01 0.34687760E+03</pdfrwt>
<totfact> 0.45869465E+02</totfact>
</mgrwt>
</event>
<event>
 6    1  0.7457796E-006  0.2984991E+03  0.7546771E-02  0.1087544E+00
          2   -1    0    0  501    0  0.00000000000E+00  0.00000000000E+00  0.15852684749E+04  0.15852684749E+04  0.00000000000E+00 0.  1.
         -2   -1    0    0    0  501 -0.00000000000E+00 -0.00000000000E+00 -0.56520362310E+02  0.56520362310E+02  0.00000000000E+00 0. -1.
          5    1    1    2  502    0 -0.26172625715E+03  0.97510410634E+02  0.53497832903E+03  0.60351703903E+03  0.47000000000E+01 0.  1.
         -5    1    1    2    0  502  0.50288076544E+01 -0.10532813980E+02  0.69684957349E+02  0.70811809449E+02  0.47000000000E+01 0.  1.
        -11    1    1    2    0    0  0.15929707835E+03 -0.98477505139E+02  0.56548900688E+03  0.59569387700E+03  0.00000000000E+00 0. -1.
         11    1    1    2    0    0  0.97400371150E+02  0.11499908485E+02  0.35859581937E+03  0.37176611178E+03  0.00000000000E+00 0.  1.
<mgrwt>
<rscale>  0 0.29543672E+03</rscale>
<asrwt>0</asrwt>
<pdfrwt beam="1">  1        2 0.24388742E+00 0.29849909E+03</pdfrwt>
<pdfrwt beam="2">  1       -2 0.86954416E-02 0.29849909E+03</pdfrwt>
<totfact> 0.10175599E+03</totfact>
</mgrwt>
</event>
<event>
 6    1  0.7457796E-006  0.1506279E+03  0.7546771E-02  0.1207749E+00
         -2   -1    0    0    0  501 -0.00000000000E+00  0.00000000000E+00  0.95484136257E+02  0.95484136257E+02  0.00000000000E+00 0.  1.
          2   -1    0    0  501    0  0.00000000000E+00 -0.00000000000E+00 -0.47654613208E+03  0.47654613208E+03  0.00000000000E+00 0. -1.
          5    1    1    2  502    0  0.10101040597E+03 -0.16298395907E+02 -0.60645063527E+00  0.10242654737E+03  0.47000000000E+01 0.  1.
         -5    1    1    2    0  502 -0.31935186288E+02 -0.31602116789E+02  0.20150673577E+02  0.49464022829E+02  0.47000000000E+01 0.  1.
        -11    1    1    2    0    0 -0.22537788361E+02 -0.26076622474E+02 -0.67914249350E+02  0.76159617965E+02  0.00000000000E+00 0.  1.
         11    1    1    2    0    0 -0.46537431323E+02  0.73977135170E+02 -0.33269196941E+03  0.34398008017E+03  0.00000000000E+00 0. -1.
<mgrwt>
<rscale>  0 0.14422902E+03</rscale>
<asrwt>0</asrwt>
<pdfrwt beam="2">  1        2 0.73314790E-01 0.15062791E+03</pdfrwt>
<pdfrwt beam="1">  1       -2 0.14689867E-01 0.15062791E+03</pdfrwt>
<totfact> 0.22871018E+03</totfact>
</mgrwt>
</event>
<event>
 6    1  0.7457796E-006  0.1456351E+03  0.7546771E-02  0.1215966E+00
         -2   -1    0    0    0  501 -0.00000000000E+00  0.00000000000E+00  0.40047879491E+03  0.40047879491E+03  0.00000000000E+00 0. -1.
          2   -1    0    0  501    0  0.00000000000E+00 -0.00000000000E+00 -0.89865916630E+02  0.89865916630E+02  0.00000000000E+00 0.  1.
          5    1    1    2  502    0  0.28762485886E+02  0.64811819989E+02  0.21248728383E+03  0.22405532441E+03  0.47000000000E+01 0. -1.
         -5    1    1    2    0  502 -0.70472836316E+02 -0.27519064428E+01  0.12685571306E+03  0.14521864751E+03  0.47000000000E+01 0. -1.
        -11    1    1    2    0    0  0.47466204265E+02 -0.15734671355E+02  0.19753914349E+02  0.53766509670E+02  0.00000000000E+00 0. -1.
         11    1    1    2    0    0 -0.57558538353E+01 -0.46325242192E+02 -0.48484032964E+02  0.67304229955E+02  0.00000000000E+00 0.  1.
<mgrwt>
<rscale>  0 0.13805847E+03</rscale>
<asrwt>0</asrwt>
<pdfrwt beam="2">  1        2 0.13825526E-01 0.14563515E+03</pdfrwt>
<pdfrwt beam="1">  1       -2 0.61612121E-01 0.14563515E+03</pdfrwt>
<totfact> 0.10551826E+03</totfact>
</mgrwt>
</event>
<event>
 6    1  0.7457796E-006  0.3136416E+03  0.7546771E-02  0.1078613E+00
         -2   -1    0    0    0  501 -0.00000000000E+00  0.00000000000E+00  0.61300998588E+02  0.61300998588E+02  0.00000000000E+00 0.  1.
          2   -1    0    0  501    0  0.00000000000E+00 -0.00000000000E+00 -0.40118047104E+03  0.40118047104E+03  0.00000000000E+00 0. -1.
          5    1    1    2  502    0  0.68678643099E+02 -0.40998760332E+00  0.87457071648E+01  0.69393814578E+02  0.47000000000E+01 0. -1.
         -5    1    1    2    0  502  0.33019390073E+02 -0.13319788576E+02 -0.12428126737E+03  0.12936622553E+03  0.47000000000E+01 0. -1.
        -11    1    1    2    0    0 -0.42276727616E+02  0.52646633895E+02 -0.11382519559E+03  0.13234487111E+03  0.00000000000E+00 0. -1.
         11    1    1    2    0    0 -0.59421305557E+02 -0.38916857715E+02 -0.11051871666E+03  0.13137655841E+03  0.00000000000E+00 0.  1.
<mgrwt>
<rscale>  0 0.31364160E+03</rscale>
<asrwt>0</asrwt>
<pdfrwt beam="2">  1        2 0.61720072E-01 0.31364160E+03</pdfrwt>
<pdfrwt beam="1">  1       -2 0.94309229E-02 0.31364160E+03</pdfrwt>
<totfact> 0.57969862E+03</totfact>
</mgrwt>
</event>
<event>
 6    1  0.7457796E-006  0.1333755E+03  0.7546771E-02  0.1234811E+00
         -2   -1    0    0    0  501 -0.00000000000E+00  0.00000000000E+00  0.27834240518E+03  0.27834240518E+03  0.00000000000E+00 0.  1.
          2   -1    0    0  501    0  0.00000000000E+00 -0.00000000000E+00 -0.50441289520E+02  0.50441289520E+02  0.00000000000E+00 0. -1.
          5    1    1    2  502    0 -0.35224898750E+02 -0.12416673159E+01 -0.39106494716E+01  0.35773152069E+02  0.47000000000E+01 0.  1.
         -5    1    1    2    0  502  0.48299527550E+02  0.45868309118E+02  0.13824797973E+03  0.15352960640E+03  0.47000000000E+01 0.  1.
        -11    1    1    2    0    0 -0.45332877393E+02  0.50312655274E+00  0.26747474489E+02  0.52637916947E+02  0.00000000000E+00 0.  1.
         11    1    1    2    0    0  0.32258248593E+02 -0.45129768355E+02  0.66816310917E+02  0.86843019285E+02  0.00000000000E+00 0. -1.
<mgrwt>
<rscale>  0 0.12516524E+03</rscale>
<asrwt>0</asrwt>
<pdfrwt beam="2">  1        2 0.77601986E-02 0.13337547E+03</pdfrwt>
<pdfrwt beam="1">  1       -2 0.42821908E-01 0.13337547E+03</pdfrwt>
<totfact> 0.43899199E+03</totfact>
</mgrwt>
</event>
<event>
 6    1  0.7457796E-006  0.1357778E+03  0.7546771E-02  0.1230013E+00
         -2   -1    0    0    0  501 -0.00000000000E+00  0.00000000000E+00  0.42183598234E+03  0.42183598234E+03  0.00000000000E+00 0.  1.
          2   -1    0    0  501    0  0.00000000000E+00 -0.00000000000E+00 -0.58192681936E+02  0.58192681936E+02  0.00000000000E+00 0. -1.
          5    1    1    2  502    0 -0.33514579463E+02  0.41260125026E+02  0.11163116921E+03  0.12373048490E+03  0.47000000000E+01 0. -1.
         -5    1    1    2    0  502 -0.17185179558E+01 -0.80876150653E+02  0.23265287663E+03  0.24636021605E+03  0.47000000000E+01 0. -1.
        -11    1    1    2    0    0  0.38183659722E+02 -0.94406262236E+01  0.40483576205E+02  0.56444993008E+02  0.00000000000E+00 0.  1.
         11    1    1    2    0    0 -0.29505623036E+01  0.49056651851E+02 -0.21124321643E+02  0.53492970319E+02  0.00000000000E+00 0. -1.
<mgrwt>
<rscale>  0 0.12829171E+03</rscale>
<asrwt>0</asrwt>
<pdfrwt beam="2">  1        2 0.89527206E-02 0.13577784E+03</pdfrwt>
<pdfrwt beam="1">  1       -2 0.64897841E-01 0.13577784E+03</pdfrwt>
<totfact> 0.16002101E+03</totfact>
</mgrwt>
</event>
<event>
 6    1  0.7457796E-006  0.1505805E+03  0.7546771E-02  0.1209183E+00
         -2   -1    0    0    0  501 -0.00000000000E+00  0.00000000000E+00  0.30054790729E+02  0.30054790729E+02  0.00000000000E+00 0.  1.
          2   -1    0    0  501    0  0.00000000000E+00 -0.00000000000E+00 -0.62557570854E+03  0.62557570854E+03  0.00000000000E+00 0. -1.
          5    1    1    2  502    0 -0.11933801906E+02 -0.21114473567E+02 -0.66503261037E+01  0.25584242401E+02  0.47000000000E+01 0. -1.
         -5    1    1    2    0  502 -0.24664256684E+02  0.96704115496E+02 -0.29695634227E+03  0.31331321505E+03  0.47000000000E+01 0. -1.
        -11    1    1    2    0    0  0.16628204580E+02 -0.91535834216E+02 -0.25804877015E+03  0.27430726186E+03  0.00000000000E+00 0. -1.
         11    1    1    2    0    0  0.19969854010E+02  0.15946192287E+02 -0.33865479291E+02  0.42425779961E+02  0.00000000000E+00 0.  1.
<mgrwt>
<rscale>  0 0.14312641E+03</rscale>
<asrwt>0</asrwt>
<pdfrwt beam="2">  1        2 0.96242413E-01 0.15058047E+03</pdfrwt>
<pdfrwt beam="1">  1       -2 0.46238141E-02 0.15058047E+03</pdfrwt>
<totfact> 0.10192146E+04</totfact>
</mgrwt>
</event>
<event>
 6    1  0.7457796E-006  0.1276112E+03  0.7546771E-02  0.1245992E+00
         -1   -1    0    0    0  501 -0.00000000000E+00  0.00000000000E+00  0.31162147629E+03  0.31162147629E+03  0.00000000000E+00 0.  1.
          1   -1    0    0  501    0  0.00000000000E+00 -0.00000000000E+00 -0.48583485767E+02  0.48583485767E+02  0.00000000000E+00 0. -1.
          5    1    1    2  502    0  0.13309624578E+01 -0.59846705171E+02  0.91194232725E+02  0.10918735120E+03  0.47000000000E+01 0. -1.
         -5    1    1    2    0  502  0.24826585691E+02  0.61661173755E+02  0.13383417611E+03  0.14950630890E+03  0.47000000000E+01 0.  1.
        -11    1    1    2    0    0  0.11717564332E+02  0.25645242567E+02  0.46096146751E+02  0.54035493201E+02  0.00000000000E+00 0.  1.
         11    1    1    2    0    0 -0.37875112481E+02 -0.27459711152E+02 -0.80865650630E+01  0.47475808750E+02  0.00000000000E+00 0. -1.
<mgrwt>
<rscale>  0 0.11826187E+03</rscale>
<asrwt>0</asrwt>
<pdfrwt beam="2">  1        1 0.74743826E-02 0.12761123E+03</pdfrwt>
<pdfrwt beam="1">  1       -1 0.47941764E-01 0.12761123E+03</pdfrwt>
<totfact> 0.40454859E+03</totfact>
</mgrwt>
</event>
<event>
 6    1  0.7457796E-006  0.1298343E+03  0.7546771E-02  0.1241131E+00
          1   -1    0    0  501    0  0.00000000000E+00  0.00000000000E+00  0.71761448932E+03  0.71761448932E+03  0.00000000000E+00 0. -1.
         -1   -1    0    0    0  501 -0.00000000000E+00 -0.00000000000E+00 -0.18250722640E+02  0.18250722640E+02  0.00000000000E+00 0.  1.
          5    1    1    2  502    0 -0.49233532395E+02  0.87363850086E+01  0.89585597557E+02  0.10270313737E+03  0.47000000000E+01 0.  1.
         -5    1    1    2    0  502  0.48815499083E+02 -0.43831017158E+02  0.33078589577E+03  0.33726178238E+03  0.47000000000E+01 0.  1.
        -11    1    1    2    0    0  0.35139016589E+02 -0.13877010385E+02  0.12635913731E+03  0.13188613834E+03  0.00000000000E+00 0.  1.
         11    1    1    2    0    0 -0.34720983277E+02  0.48971642534E+02  0.15263313605E+03  0.16401415388E+03  0.00000000000E+00 0. -1.
<mgrwt>
<rscale>  0 0.12119981E+03</rscale>
<asrwt>0</asrwt>
<pdfrwt beam="1">  1        1 0.11040221E+00 0.12983427E+03</pdfrwt>
<pdfrwt beam="2">  1       -1 0.28078040E-02 0.12983427E+03</pdfrwt>
<totfact> 0.10787897E+04</totfact>
</mgrwt>
</event>
<event>
 6    1  0.7457796E-006  0.1586166E+03  0.7546771E-02  0.1197349E+00
         -1   -1    0    0    0  501 -0.00000000000E+00  0.00000000000E+00  0.38640372519E+03  0.38640372519E+03  0.00000000000E+00 0.  1.
          1   -1    0    0  501    0  0.00000000000E+00 -0.00000000000E+00 -0.56156264113E+02  0.56156264113E+02  0.00000000000E+00 0. -1.
          5    1    1    2  502    0 -0.62889523950E+02 -0.78048976201E+02  0.67793529499E+02  0.12109825577E+03  0.47000000000E+01 0.  1.
         -5    1    1    2    0  502 -0.20817316987E+02  0.27789581649E+02  0.11851168707E+03  0.12358289326E+03  0.47000000000E+01 0.  1.
        -11    1    1    2    0    0  0.30546513588E+02 -0.22624798026E+02  0.75889571066E+02  0.84877546941E+02  0.00000000000E+00 0.  1.
         11    1    1    2    0    0  0.53160327348E+02  0.72884192578E+02  0.68052673442E+02  0.11300129333E+03  0.00000000000E+00 0. -1.
<mgrwt>
<rscale>  0 0.15257094E+03</rscale>
<asrwt>0</asrwt>
<pdfrwt beam="2">  1        1 0.86394255E-02 0.15861662E+03</pdfrwt>
<pdfrwt beam="1">  1       -1 0.59446725E-01 0.15861662E+03</pdfrwt>
<totfact> 0.22617793E+03</totfact>
</mgrwt>
</event>
<event>
 6    1  0.7457796E-006  0.2536543E+03  0.7546771E-02  0.1120199E+00
          1   -1    0    0  501    0  0.00000000000E+00  0.00000000000E+00  0.41841727568E+03  0.41841727568E+03  0.00000000000E+00 0. -1.
         -1   -1    0    0    0  501 -0.00000000000E+00 -0.00000000000E+00 -0.14131587915E+03  0.14131587915E+03  0.00000000000E+00 0.  1.
          5    1    1    2  502    0  0.17673941385E+02  0.66506507410E+02  0.31984752115E+02  0.76030244638E+02  0.47000000000E+01 0. -1.
         -5    1    1    2    0  502  0.16071205364E+03 -0.85265420495E+02  0.22119444698E+02  0.18333007377E+03  0.47000000000E+01 0.  1.
        -11    1    1    2    0    0 -0.50880643284E+02  0.20844691092E+02  0.16031093267E+02  0.57274225958E+02  0.00000000000E+00 0.  1.
         11    1    1    2    0    0 -0.12750535174E+03 -0.20857780069E+01  0.20696610645E+03  0.24309861046E+03  0.00000000000E+00 0. -1.
<mgrwt>
<rscale>  0 0.23939128E+03</rscale>
<asrwt>0</asrwt>
<pdfrwt beam="1">  1        1 0.64371888E-01 0.25365431E+03</pdfrwt>
<pdfrwt beam="2">  1       -1 0.21740905E-01 0.25365431E+03</pdfrwt>
<totfact> 0.10054751E+03</totfact>
</mgrwt>
</event>
<event>
 6    1  0.7457796E-006  0.1806667E+03  0.7546771E-02  0.1178089E+00
          2   -1    0    0  501    0  0.00000000000E+00  0.00000000000E+00  0.51978982975E+03  0.51978982975E+03  0.00000000000E+00 0. -1.
         -2   -1    0    0    0  501 -0.00000000000E+00 -0.00000000000E+00 -0.22015671031E+03  0.22015671031E+03  0.00000000000E+00 0.  1.
          5    1    1    2  502    0  0.14518080790E+02 -0.47882828839E+02 -0.10615970512E+02  0.51364664872E+02  0.47000000000E+01 0. -1.
         -5    1    1    2    0  502  0.65108577417E+02  0.94777966896E+02 -0.16033841629E+03  0.19736384573E+03  0.47000000000E+01 0.  1.
        -11    1    1    2    0    0 -0.48898404152E+02  0.27895820280E+02  0.25048970189E+03  0.25673784581E+03  0.00000000000E+00 0.  1.
         11    1    1    2    0    0 -0.30728254054E+02 -0.74790958337E+02  0.22009780435E+03  0.23448018365E+03  0.00000000000E+00 0. -1.
<mgrwt>
<rscale>  0 0.16976898E+03</rscale>
<asrwt>0</asrwt>
<pdfrwt beam="1">  1        2 0.79967666E-01 0.18066674E+03</pdfrwt>
<pdfrwt beam="2">  1       -2 0.33870263E-01 0.18066674E+03</pdfrwt>
<totfact> 0.49080358E+02</totfact>
</mgrwt>
</event>
<event>
 6    1  0.7457796E-006  0.1602866E+03  0.7546771E-02  0.1197102E+00
          1   -1    0    0  501    0  0.00000000000E+00  0.00000000000E+00  0.45052314590E+03  0.45052314590E+03  0.00000000000E+00 0. -1.
         -1   -1    0    0    0  501 -0.00000000000E+00 -0.00000000000E+00 -0.58906228637E+02  0.58906228637E+02  0.00000000000E+00 0.  1.
          5    1    1    2  502    0  0.27112719753E+02 -0.31623261280E+02 -0.11019032823E+02  0.43343272958E+02  0.47000000000E+01 0. -1.
         -5    1    1    2    0  502  0.66997101075E+02  0.66392235649E+02  0.11027444839E+03  0.14518637840E+03  0.47000000000E+01 0. -1.
        -11    1    1    2    0    0 -0.48719881528E+02  0.24170301307E+02  0.16098267483E+03  0.16992131096E+03  0.00000000000E+00 0. -1.
         11    1    1    2    0    0 -0.45389939300E+02 -0.58939275676E+02  0.13137882687E+03  0.15097841222E+03  0.00000000000E+00 0.  1.
<mgrwt>
<rscale>  0 0.15277664E+03</rscale>
<asrwt>0</asrwt>
<pdfrwt beam="1">  1        1 0.69311251E-01 0.16028659E+03</pdfrwt>
<pdfrwt beam="2">  1       -1 0.90624970E-02 0.16028659E+03</pdfrwt>
<totfact> 0.35969407E+03</totfact>
</mgrwt>
</event>
<event>
 6    1  0.7457796E-006  0.1477401E+03  0.7546771E-02  0.1218240E+00
         -2   -1    0    0    0  501 -0.00000000000E+00  0.00000000000E+00  0.10264709810E+03  0.10264709810E+03  0.00000000000E+00 0.  1.
          2   -1    0    0  501    0  0.00000000000E+00 -0.00000000000E+00 -0.16719040566E+03  0.16719040566E+03  0.00000000000E+00 0. -1.
          5    1    1    2  502    0  0.14620119831E+02  0.47878954118E+02 -0.18801013214E+01  0.50316666545E+02  0.47000000000E+01 0. -1.
         -5    1    1    2    0  502 -0.41146362059E+02 -0.88218703138E+02 -0.48715327503E+01  0.97577582084E+02  0.47000000000E+01 0.  1.
        -11    1    1    2    0    0  0.19486493282E+02 -0.18827222312E+02  0.12462155340E+02  0.29824369836E+02  0.00000000000E+00 0. -1.
         11    1    1    2    0    0  0.70397489459E+01  0.59166971333E+02 -0.70253828829E+02  0.92118885289E+02  0.00000000000E+00 0.  1.
<mgrwt>
<rscale>  0 0.13641235E+03</rscale>
<asrwt>0</asrwt>
<pdfrwt beam="2">  1        2 0.25721601E-01 0.14774006E+03</pdfrwt>
<pdfrwt beam="1">  1       -2 0.15791861E-01 0.14774006E+03</pdfrwt>
<totfact> 0.62572780E+03</totfact>
</mgrwt>
</event>
<event>
 6    1  0.7457796E-006  0.1321827E+03  0.7546771E-02  0.1243802E+00
          2   -1    0    0  501    0  0.00000000000E+00  0.00000000000E+00  0.32487770192E+03  0.32487770192E+03  0.00000000000E+00 0. -1.
         -2   -1    0    0    0  501 -0.00000000000E+00 -0.00000000000E+00 -0.52929140406E+02  0.52929140406E+02  0.00000000000E+00 0.  1.
          5    1    1    2  502    0 -0.55895851210E+02  0.23306449874E+02  0.85885478342E+02  0.10519478209E+03  0.47000000000E+01 0. -1.
         -5    1    1    2    0  502  0.20268009027E+02  0.55524704659E+00 -0.31486754751E+02  0.37743955992E+02  0.47000000000E+01 0. -1.
        -11    1    1    2    0    0 -0.19454136740E+02 -0.21921441695E+02  0.44771301502E+02  0.53511517269E+02  0.00000000000E+00 0.  1.
         11    1    1    2    0    0  0.55081978923E+02 -0.19402552258E+01  0.17277853642E+03  0.18135658697E+03  0.00000000000E+00 0. -1.
<mgrwt>
<rscale>  0 0.11957392E+03</rscale>
<asrwt>0</asrwt>
<pdfrwt beam="1">  1        2 0.49981184E-01 0.13218268E+03</pdfrwt>
<pdfrwt beam="2">  1       -2 0.81429449E-02 0.13218268E+03</pdfrwt>
<totfact> 0.87348413E+03</totfact>
</mgrwt>
</event>
<event>
 6    1  0.7457796E-006  0.4090771E+03  0.7546771E-02  0.1040681E+00
         -1   -1    0    0    0  501 -0.00000000000E+00  0.00000000000E+00  0.18985948636E+03  0.18985948636E+03  0.00000000000E+00 0.  1.
          1   -1    0    0  501    0  0.00000000000E+00 -0.00000000000E+00 -0.22035248512E+03  0.22035248512E+03  0.00000000000E+00 0. -1.
          5    1    1    2  502    0  0.11133642057E+03  0.11975485310E+03 -0.35343301788E+02  0.16735669203E+03  0.47000000000E+01 0.  1.
         -5    1    1    2    0  502 -0.16612519623E+01  0.13224020488E+02  0.43483619227E+02  0.45722528550E+02  0.47000000000E+01 0.  1.
        -11    1    1    2    0    0 -0.32032471383E+02 -0.49753139181E+02  0.27763218686E+02  0.65362454001E+02  0.00000000000E+00 0.  1.
         11    1    1    2    0    0 -0.77642697226E+02 -0.83225734403E+02 -0.66396534892E+02  0.13177029690E+03  0.00000000000E+00 0. -1.
<mgrwt>
<rscale>  0 0.40907706E+03</rscale>
<asrwt>0</asrwt>
<pdfrwt beam="2">  1        1 0.33900382E-01 0.40907706E+03</pdfrwt>
<pdfrwt beam="1">  1       -1 0.29209152E-01 0.40907706E+03</pdfrwt>
<totfact> 0.13937871E+03</totfact>
</mgrwt>
</event>
<event>
 6    1  0.7457796E-006  0.1289758E+03  0.7546771E-02  0.1244557E+00
          1   -1    0    0  501    0  0.00000000000E+00  0.00000000000E+00  0.26184397133E+03  0.26184397133E+03  0.00000000000E+00 0. -1.
         -1   -1    0    0    0  501 -0.00000000000E+00 -0.00000000000E+00 -0.48200373699E+02  0.48200373699E+02  0.00000000000E+00 0.  1.
          5    1    1    2  502    0  0.10430783624E+02  0.41537501122E+02  0.12776554408E+03  0.13483430387E+03  0.47000000000E+01 0. -1.
         -5    1    1    2    0  502  0.82804815096E+01 -0.16417470736E+02 -0.24073755434E+02  0.30655104307E+02  0.47000000000E+01 0. -1.
        -11    1    1    2    0    0 -0.21270996436E+01 -0.53735203708E+02  0.92904636574E+02  0.10734648652E+03  0.00000000000E+00 0. -1.
         11    1    1    2    0    0 -0.16584165490E+02  0.28615173321E+02  0.17047172412E+02  0.37208450336E+02  0.00000000000E+00 0.  1.
<mgrwt>
<rscale>  0 0.11911954E+03</rscale>
<asrwt>0</asrwt>
<pdfrwt beam="1">  1        1 0.40283687E-01 0.12897580E+03</pdfrwt>
<pdfrwt beam="2">  1       -1 0.74154423E-02 0.12897580E+03</pdfrwt>
<totfact> 0.94879180E+03</totfact>
</mgrwt>
</event>
<event>
 6    1  0.7457796E-006  0.1521435E+03  0.7546771E-02  0.1206865E+00
          1   -1    0    0  501    0  0.00000000000E+00  0.00000000000E+00  0.84895186816E+02  0.84895186816E+02  0.00000000000E+00 0. -1.
         -1   -1    0    0    0  501 -0.00000000000E+00 -0.00000000000E+00 -0.25416140654E+03  0.25416140654E+03  0.00000000000E+00 0.  1.
          5    1    1    2  502    0 -0.39377392033E+02 -0.37552164850E+02 -0.71687220689E+01  0.55083796749E+02  0.47000000000E+01 0.  1.
         -5    1    1    2    0  502 -0.46063643929E+02  0.52442136753E+02 -0.14042764833E+03  0.15688865929E+03  0.47000000000E+01 0.  1.
        -11    1    1    2    0    0  0.87816054885E+02  0.15312926805E+02 -0.32543339977E+02  0.94895807071E+02  0.00000000000E+00 0.  1.
         11    1    1    2    0    0 -0.23750189232E+01 -0.30202898709E+02  0.10873490645E+02  0.32188330247E+02  0.00000000000E+00 0. -1.
<mgrwt>
<rscale>  0 0.14491421E+03</rscale>
<asrwt>0</asrwt>
<pdfrwt beam="1">  1        1 0.13060798E-01 0.15214346E+03</pdfrwt>
<pdfrwt beam="2">  1       -1 0.39101754E-01 0.15214346E+03</pdfrwt>
<totfact> 0.27984571E+03</totfact>
</mgrwt>
</event>
<event>
 6    1  0.7457796E-006  0.1984516E+03  0.7546771E-02  0.1154271E+00
          4   -1    0    0  501    0  0.00000000000E+00  0.00000000000E+00  0.45160722775E+03  0.45160722775E+03  0.00000000000E+00 0.  1.
         -4   -1    0    0    0  501 -0.00000000000E+00 -0.00000000000E+00 -0.99201027875E+02  0.99201027875E+02  0.00000000000E+00 0. -1.
          5    1    1    2  502    0  0.61364249505E+02 -0.21779567439E+02 -0.35185511069E+02  0.74162192958E+02  0.47000000000E+01 0.  1.
         -5    1    1    2    0  502  0.90703898904E+02 -0.33184171415E+01  0.98779134483E+02  0.13422971570E+03  0.47000000000E+01 0.  1.
        -11    1    1    2    0    0 -0.86671382681E+02  0.33760499684E+02  0.24793890491E+03  0.26481200970E+03  0.00000000000E+00 0.  1.
         11    1    1    2    0    0 -0.65396765728E+02 -0.86625151034E+01  0.40873671550E+02  0.77604337260E+02  0.00000000000E+00 0. -1.
<mgrwt>
<rscale>  0 0.19472142E+03</rscale>
<asrwt>0</asrwt>
<pdfrwt beam="1">  1        4 0.69478034E-01 0.19845160E+03</pdfrwt>
<pdfrwt beam="2">  1       -4 0.15261697E-01 0.19845160E+03</pdfrwt>
<totfact> 0.12579530E+02</totfact>
</mgrwt>
</event>
<event>
 6    1  0.7457796E-006  0.2180246E+03  0.7546771E-02  0.1138883E+00
         -2   -1    0    0    0  501 -0.00000000000E+00  0.00000000000E+00  0.10441407715E+03  0.10441407715E+03  0.00000000000E+00 0.  1.
          2   -1    0    0  501    0  0.00000000000E+00 -0.00000000000E+00 -0.43309967071E+03  0.43309967071E+03  0.00000000000E+00 0. -1.
          5    1    1    2  502    0  0.83466466680E+02  0.13891580228E+03 -0.56063137671E+02  0.17155004107E+03  0.47000000000E+01 0. -1.
         -5    1    1    2    0  502  0.40457318531E+02 -0.10267379547E+02 -0.66241573989E+02  0.78436278787E+02  0.47000000000E+01 0. -1.
        -11    1    1    2    0    0 -0.39935261015E+02 -0.10561973434E+03 -0.12272364104E+03  0.16676763902E+03  0.00000000000E+00 0.  1.
         11    1    1    2    0    0 -0.83988524195E+02 -0.23028688395E+02 -0.83657240870E+02  0.12075978899E+03  0.00000000000E+00 0. -1.
<mgrwt>
<rscale>  0 0.21342419E+03</rscale>
<asrwt>0</asrwt>
<pdfrwt beam="2">  1        2 0.66630718E-01 0.21802458E+03</pdfrwt>
<pdfrwt beam="1">  1       -2 0.16063704E-01 0.21802458E+03</pdfrwt>
<totfact> 0.22145525E+03</totfact>
</mgrwt>
</event>
<event>
 6    1  0.7457796E-006  0.3525089E+03  0.7546771E-02  0.1061590E+00
          1   -1    0    0  501    0  0.00000000000E+00  0.00000000000E+00  0.12475870436E+03  0.12475870436E+03  0.00000000000E+00 0. -1.
         -1   -1    0    0    0  501 -0.00000000000E+00 -0.00000000000E+00 -0.24900568269E+03  0.24900568269E+03  0.00000000000E+00 0.  1.
          5    1    1    2  502    0 -0.12446140247E+03  0.99151481514E+01 -0.41229629896E+02  0.13157098179E+03  0.47000000000E+01 0. -1.
         -5    1    1    2    0  502 -0.73601336282E+01  0.14750660641E+02 -0.76558748321E+02  0.78454352975E+02  0.47000000000E+01 0.  1.
        -11    1    1    2    0    0  0.45681170605E+01  0.25354707452E+02 -0.80726786687E+01  0.26998092976E+02  0.00000000000E+00 0. -1.
         11    1    1    2    0    0  0.12725341904E+03 -0.50020516245E+02  0.16140785618E+01  0.13674095931E+03  0.00000000000E+00 0.  1.
<mgrwt>
<rscale>  0 0.35250887E+03</rscale>
<asrwt>0</asrwt>
<pdfrwt beam="1">  1        1 0.19193647E-01 0.35250887E+03</pdfrwt>
<pdfrwt beam="2">  1       -1 0.38308567E-01 0.35250887E+03</pdfrwt>
<totfact> 0.18033452E+03</totfact>
</mgrwt>
</event>
<event>
 6    1  0.7457796E-006  0.3097118E+03  0.7546771E-02  0.1081296E+00
         -1   -1    0    0    0  501 -0.00000000000E+00  0.00000000000E+00  0.98999264412E+02  0.98999264412E+02  0.00000000000E+00 0.  1.
          1   -1    0    0  501    0  0.00000000000E+00 -0.00000000000E+00 -0.18344134253E+04  0.18344134253E+04  0.00000000000E+00 0. -1.
          5    1    1    2  502    0  0.19832024273E+02  0.37314824700E+02 -0.64563592385E+02  0.77306227375E+02  0.47000000000E+01 0. -1.
         -5    1    1    2    0  502 -0.80039508929E+02  0.24526447440E+03 -0.13610566712E+03  0.29173245965E+03  0.47000000000E+01 0.  1.
        -11    1    1    2    0    0  0.66736123489E+02 -0.19682042801E+03 -0.12415633579E+04  0.12588373853E+04  0.00000000000E+00 0. -1.
         11    1    1    2    0    0 -0.65286388337E+01 -0.85758871090E+02 -0.29318154351E+03  0.30553661737E+03  0.00000000000E+00 0.  1.
<mgrwt>
<rscale>  0 0.30802638E+03</rscale>
<asrwt>0</asrwt>
<pdfrwt beam="2">  1        1 0.28221745E+00 0.30971180E+03</pdfrwt>
<pdfrwt beam="1">  1       -1 0.15230656E-01 0.30971180E+03</pdfrwt>
<totfact> 0.13504125E+02</totfact>
</mgrwt>
</event>
<event>
 6    1  0.7457796E-006  0.1256912E+03  0.7546771E-02  0.1249743E+00
          1   -1    0    0  501    0  0.00000000000E+00  0.00000000000E+00  0.13741842200E+03  0.13741842200E+03  0.00000000000E+00 0. -1.
         -1   -1    0    0    0  501 -0.00000000000E+00 -0.00000000000E+00 -0.87222535665E+02  0.87222535665E+02  0.00000000000E+00 0.  1.
          5    1    1    2  502    0  0.66559321834E+01  0.10581353001E+02 -0.43054013196E+02  0.45077760779E+02  0.47000000000E+01 0.  1.
         -5    1    1    2    0  502  0.62747313234E+01 -0.13018975679E+02  0.86629890206E+02  0.87952793350E+02  0.47000000000E+01 0.  1.
        -11    1    1    2    0    0  0.88622189430E+01  0.29661866624E+02 -0.28528299351E+02  0.42097851727E+02  0.00000000000E+00 0.  1.
         11    1    1    2    0    0 -0.21792882450E+02 -0.27224243946E+02  0.35148308679E+02  0.49512551812E+02  0.00000000000E+00 0. -1.
<mgrwt>
<rscale>  0 0.11605946E+03</rscale>
<asrwt>0</asrwt>
<pdfrwt beam="1">  1        1 0.21141296E-01 0.12569117E+03</pdfrwt>
<pdfrwt beam="2">  1       -1 0.13418852E-01 0.12569117E+03</pdfrwt>
<totfact> 0.85561494E+03</totfact>
</mgrwt>
</event>
<event>
 6    1  0.7457796E-006  0.1396563E+03  0.7546771E-02  0.1224806E+00
         -1   -1    0    0    0  501 -0.00000000000E+00  0.00000000000E+00  0.39832896730E+02  0.39832896730E+02  0.00000000000E+00 0.  1.
          1   -1    0    0  501    0  0.00000000000E+00 -0.00000000000E+00 -0.40868183712E+03  0.40868183712E+03  0.00000000000E+00 0. -1.
          5    1    1    2  502    0  0.89903890455E+01 -0.27111380845E+02 -0.12163416293E+03  0.12503125073E+03  0.47000000000E+01 0. -1.
         -5    1    1    2    0  502  0.35539136655E+02  0.70651065246E+02 -0.40563666628E+02  0.89006203744E+02  0.47000000000E+01 0. -1.
        -11    1    1    2    0    0  0.63841815048E+01 -0.17070105440E+02  0.17608763577E+01  0.18309750374E+02  0.00000000000E+00 0.  1.
         11    1    1    2    0    0 -0.50913707206E+02 -0.26469578961E+02 -0.20841198719E+03  0.21616752900E+03  0.00000000000E+00 0. -1.
<mgrwt>
<rscale>  0 0.13180225E+03</rscale>
<asrwt>0</asrwt>
<pdfrwt beam="2">  1        1 0.62874127E-01 0.13965635E+03</pdfrwt>
<pdfrwt beam="1">  1       -1 0.61281381E-02 0.13965635E+03</pdfrwt>
<totfact> 0.72938815E+03</totfact>
</mgrwt>
</event>
<event>
 6    1  0.7457796E-006  0.3161405E+03  0.7546771E-02  0.1078830E+00
          1   -1    0    0  501    0  0.00000000000E+00  0.00000000000E+00  0.15986709574E+03  0.15986709574E+03  0.00000000000E+00 0. -1.
         -1   -1    0    0    0  501 -0.00000000000E+00 -0.00000000000E+00 -0.77116884921E+03  0.77116884921E+03  0.00000000000E+00 0.  1.
          5    1    1    2  502    0  0.23760989826E+02 -0.29490848922E+03 -0.47210535032E+03  0.55717246293E+03  0.47000000000E+01 0.  1.
         -5    1    1    2    0  502  0.14041724143E+02  0.69926842722E+01 -0.55825472256E+02  0.58177667561E+02  0.47000000000E+01 0.  1.
        -11    1    1    2    0    0 -0.47107832103E+02  0.63015260531E+02 -0.31118849382E+02  0.84607645588E+02  0.00000000000E+00 0. -1.
         11    1    1    2    0    0  0.93051181335E+01  0.22490054441E+03 -0.52252081510E+02  0.23107816886E+03  0.00000000000E+00 0.  1.
<mgrwt>
<rscale>  0 0.31318365E+03</rscale>
<asrwt>0</asrwt>
<pdfrwt beam="1">  1        1 0.24594938E-01 0.31614052E+03</pdfrwt>
<pdfrwt beam="2">  1       -1 0.11864136E+00 0.31614052E+03</pdfrwt>
<totfact> 0.13292149E+02</totfact>
</mgrwt>
</event>
<event>
 6    1  0.7457796E-006  0.2995224E+03  0.7546771E-02  0.1085480E+00
         -1   -1    0    0    0  501 -0.00000000000E+00  0.00000000000E+00  0.21958094414E+03  0.21958094414E+03  0.00000000000E+00 0.  1.
          1   -1    0    0  501    0  0.00000000000E+00 -0.00000000000E+00 -0.10214193812E+03  0.10214193812E+03  0.00000000000E+00 0. -1.
          5    1    1    2  502    0  0.31894385040E+01 -0.87182872550E+02  0.39990412995E+02  0.96085112871E+02  0.47000000000E+01 0.  1.
         -5    1    1    2    0  502 -0.25501055425E+02  0.17504669171E+02  0.10218701082E+03  0.10686904347E+03  0.47000000000E+01 0.  1.
        -11    1    1    2    0    0 -0.30691509766E+02  0.44922646643E+02  0.20123519403E+01  0.54443204475E+02  0.00000000000E+00 0.  1.
         11    1    1    2    0    0  0.53003126687E+02  0.24755556736E+02 -0.26750769735E+02  0.64325521446E+02  0.00000000000E+00 0. -1.
<mgrwt>
<rscale>  0 0.29952244E+03</rscale>
<asrwt>0</asrwt>
<pdfrwt beam="2">  1        1 0.15714144E-01 0.29952244E+03</pdfrwt>
<pdfrwt beam="1">  1       -1 0.33781684E-01 0.29952244E+03</pdfrwt>
<totfact> 0.29119509E+03</totfact>
</mgrwt>
</event>
<event>
 6    1  0.7457796E-006  0.1630069E+03  0.7546771E-02  0.1192910E+00
         -2   -1    0    0    0  501 -0.00000000000E+00  0.00000000000E+00  0.49517326277E+02  0.49517326277E+02  0.00000000000E+00 0.  1.
          2   -1    0    0  501    0  0.00000000000E+00 -0.00000000000E+00 -0.45736544262E+03  0.45736544262E+03  0.00000000000E+00 0. -1.
          5    1    1    2  502    0 -0.57255570304E+02 -0.66546036935E+02 -0.47065453798E+02  0.99718715915E+02  0.47000000000E+01 0.  1.
         -5    1    1    2    0  502 -0.26820191563E+02  0.43315468554E+01 -0.16744200201E+03  0.16969678551E+03  0.47000000000E+01 0.  1.
        -11    1    1    2    0    0  0.14632600636E+02  0.15710858391E+02  0.51676349407E+01  0.22082765308E+02  0.00000000000E+00 0.  1.
         11    1    1    2    0    0  0.69443161231E+02  0.46503631688E+02 -0.19850829547E+03  0.21538450217E+03  0.00000000000E+00 0. -1.
<mgrwt>
<rscale>  0 0.15632470E+03</rscale>
<asrwt>0</asrwt>
<pdfrwt beam="2">  1        2 0.70363912E-01 0.16300694E+03</pdfrwt>
<pdfrwt beam="1">  1       -2 0.76180504E-02 0.16300694E+03</pdfrwt>
<totfact> 0.68016707E+03</totfact>
</mgrwt>
</event>
<event>
 6    1  0.7457796E-006  0.2946998E+03  0.7546771E-02  0.1087921E+00
          2   -1    0    0  501    0  0.00000000000E+00  0.00000000000E+00  0.15430018183E+04  0.15430018183E+04  0.00000000000E+00 0. -1.
         -2   -1    0    0    0  501 -0.00000000000E+00 -0.00000000000E+00 -0.14071272941E+02  0.14071272941E+02  0.00000000000E+00 0.  1.
          5    1    1    2  502    0  0.28823618950E+02  0.36668446058E+01  0.21199364905E+03  0.21402720387E+03  0.47000000000E+01 0.  1.
         -5    1    1    2    0  502 -0.11935537874E+03 -0.44229864621E+02  0.56194955327E+03  0.57620428476E+03  0.47000000000E+01 0.  1.
        -11    1    1    2    0    0  0.40325885329E+02  0.66452395953E+02  0.42293742901E+03  0.43002112368E+03  0.00000000000E+00 0.  1.
         11    1    1    2    0    0  0.50205874461E+02 -0.25889375938E+02  0.33204991402E+03  0.33682047892E+03  0.00000000000E+00 0. -1.
<mgrwt>
<rscale>  0 0.29469985E+03</rscale>
<asrwt>0</asrwt>
<pdfrwt beam="1">  1        2 0.23738476E+00 0.29469985E+03</pdfrwt>
<pdfrwt beam="2">  1       -2 0.21648124E-02 0.29469985E+03</pdfrwt>
<totfact> 0.89125537E+03</totfact>
</mgrwt>
</event>
<event>
 6    1  0.7457796E-006  0.1428010E+03  0.7546771E-02  0.1219665E+00
         -4   -1    0    0    0  501 -0.00000000000E+00  0.00000000000E+00  0.65232178872E+03  0.65232178872E+03  0.00000000000E+00 0. -1.
          4   -1    0    0  501    0  0.00000000000E+00 -0.00000000000E+00 -0.26509350432E+02  0.26509350432E+02  0.00000000000E+00 0.  1.
          5    1    1    2  502    0 -0.62886752038E+02 -0.66105961228E+02  0.24913159215E+03  0.26535519949E+03  0.47000000000E+01 0.  1.
         -5    1    1    2    0  502  0.50913401721E+02 -0.18808752046E+01  0.16000451048E+03  0.16798584923E+03  0.47000000000E+01 0.  1.
        -11    1    1    2    0    0 -0.37903421089E+02  0.49043778507E+02  0.11243222168E+03  0.12838600396E+03  0.00000000000E+00 0.  1.
         11    1    1    2    0    0  0.49876771407E+02  0.18943057926E+02  0.10424411397E+03  0.11710408647E+03  0.00000000000E+00 0. -1.
<mgrwt>
<rscale>  0 0.13539360E+03</rscale>
<asrwt>0</asrwt>
<pdfrwt beam="2">  1        4 0.40783621E-02 0.14280096E+03</pdfrwt>
<pdfrwt beam="1">  1       -4 0.10035719E+00 0.14280096E+03</pdfrwt>
<totfact> 0.47206305E+02</totfact>
</mgrwt>
</event>
<event>
 6    1  0.7457796E-006  0.1697333E+03  0.7546771E-02  0.1185051E+00
         -3   -1    0    0    0  501 -0.00000000000E+00  0.00000000000E+00  0.25549377133E+02  0.25549377133E+02  0.00000000000E+00 0.  1.
          3   -1    0    0  501    0  0.00000000000E+00 -0.00000000000E+00 -0.97850065789E+03  0.97850065789E+03  0.00000000000E+00 0. -1.
          5    1    1    2  502    0 -0.76337016976E+02 -0.45818939491E+02 -0.15146495245E+03  0.17575675577E+03  0.47000000000E+01 0. -1.
         -5    1    1    2    0  502 -0.14195836234E+02 -0.24819055463E+02 -0.40459574495E+03  0.40563199345E+03  0.47000000000E+01 0. -1.
        -11    1    1    2    0    0  0.47466672192E+02  0.83792813513E+02 -0.22048800018E+03  0.24060190936E+03  0.00000000000E+00 0. -1.
         11    1    1    2    0    0  0.43066181018E+02 -0.13154818559E+02 -0.17640258317E+03  0.18205937644E+03  0.00000000000E+00 0.  1.
<mgrwt>
<rscale>  0 0.16327250E+03</rscale>
<asrwt>0</asrwt>
<pdfrwt beam="2">  1        3 0.15053860E+00 0.16973326E+03</pdfrwt>
<pdfrwt beam="1">  1       -3 0.39306725E-02 0.16973326E+03</pdfrwt>
<totfact> 0.27302396E+02</totfact>
</mgrwt>
</event>
<event>
 6    1  0.7457796E-006  0.1769145E+03  0.7546771E-02  0.1176053E+00
         -1   -1    0    0    0  501 -0.00000000000E+00  0.00000000000E+00  0.26561432423E+03  0.26561432423E+03  0.00000000000E+00 0.  1.
          1   -1    0    0  501    0  0.00000000000E+00 -0.00000000000E+00 -0.11406155018E+03  0.11406155018E+03  0.00000000000E+00 0. -1.
          5    1    1    2  502    0  0.28170640024E+02  0.39307372542E+02  0.14460875488E+02  0.50693800562E+02  0.47000000000E+01 0.  1.
         -5    1    1    2    0  502  0.83031392003E+02 -0.96810619140E+02  0.12020103907E+02  0.12819157903E+03  0.47000000000E+01 0.  1.
        -11    1    1    2    0    0 -0.89576994259E+02  0.30417250245E+02  0.29446112248E+02  0.99077346248E+02  0.00000000000E+00 0. -1.
         11    1    1    2    0    0 -0.21625037768E+02  0.27085996352E+02  0.95625682410E+02  0.10171314858E+03  0.00000000000E+00 0.  1.
<mgrwt>
<rscale>  0 0.17173239E+03</rscale>
<asrwt>0</asrwt>
<pdfrwt beam="2">  1        1 0.17547931E-01 0.17691449E+03</pdfrwt>
<pdfrwt beam="1">  1       -1 0.40863742E-01 0.17691449E+03</pdfrwt>
<totfact> 0.17741383E+03</totfact>
</mgrwt>
</event>
<event>
 6    1  0.7457796E-006  0.2040012E+03  0.7546771E-02  0.1150923E+00
         -2   -1    0    0    0  501 -0.00000000000E+00  0.00000000000E+00  0.24949117072E+02  0.24949117072E+02  0.00000000000E+00 0.  1.
          2   -1    0    0  501    0  0.00000000000E+00 -0.00000000000E+00 -0.15191377071E+04  0.15191377071E+04  0.00000000000E+00 0. -1.
          5    1    1    2  502    0 -0.19029542797E+02 -0.63158362360E+02 -0.13568338681E+03  0.15094096095E+03  0.47000000000E+01 0. -1.
         -5    1    1    2    0  502 -0.12492567201E+03 -0.94215386322E+01 -0.57082973174E+03  0.58443465123E+03  0.47000000000E+01 0. -1.
        -11    1    1    2    0    0  0.77242458937E+02 -0.59337432158E+01 -0.27059346010E+03  0.28146478895E+03  0.00000000000E+00 0.  1.
         11    1    1    2    0    0  0.66712755871E+02  0.78513644208E+02 -0.51708201135E+03  0.52724642302E+03  0.00000000000E+00 0. -1.
<mgrwt>
<rscale>  0 0.19860336E+03</rscale>
<asrwt>0</asrwt>
<pdfrwt beam="2">  1        2 0.23371347E+00 0.20400124E+03</pdfrwt>
<pdfrwt beam="1">  1       -2 0.38383260E-02 0.20400124E+03</pdfrwt>
<totfact> 0.38857053E+03</totfact>
</mgrwt>
</event>
<event>
 6    1  0.7457796E-006  0.1335510E+03  0.7546771E-02  0.1235611E+00
         -2   -1    0    0    0  501 -0.00000000000E+00  0.00000000000E+00  0.74170290168E+02  0.74170290168E+02  0.00000000000E+00 0.  1.
          2   -1    0    0  501    0  0.00000000000E+00 -0.00000000000E+00 -0.24292178120E+03  0.24292178120E+03  0.00000000000E+00 0. -1.
          5    1    1    2  502    0  0.29135578660E+02 -0.19536105101E+02 -0.35782397332E+02  0.50329030442E+02  0.47000000000E+01 0.  1.
         -5    1    1    2    0  502 -0.66945336265E+02  0.47457820268E+02  0.18742161238E+02  0.84304693583E+02  0.47000000000E+01 0.  1.
        -11    1    1    2    0    0 -0.82899372073E+01 -0.15290048149E+02  0.54200343182E+01  0.18217722232E+02  0.00000000000E+00 0.  1.
         11    1    1    2    0    0  0.46099694812E+02 -0.12631667017E+02 -0.15713128925E+03  0.16424062511E+03  0.00000000000E+00 0. -1.
<mgrwt>
<rscale>  0 0.12465415E+03</rscale>
<asrwt>0</asrwt>
<pdfrwt beam="2">  1        2 0.37372581E-01 0.13355100E+03</pdfrwt>
<pdfrwt beam="1">  1       -2 0.11410814E-01 0.13355100E+03</pdfrwt>
<totfact> 0.70141660E+03</totfact>
</mgrwt>
</event>
<event>
 6    1  0.7457796E-006  0.1818833E+03  0.7546771E-02  0.1171188E+00
         -2   -1    0    0    0  501 -0.00000000000E+00  0.00000000000E+00  0.46366686336E+02  0.46366686336E+02  0.00000000000E+00 0.  1.
          2   -1    0    0  501    0  0.00000000000E+00 -0.00000000000E+00 -0.66340563445E+03  0.66340563445E+03  0.00000000000E+00 0. -1.
          5    1    1    2  502    0 -0.45387755424E+02 -0.75559149411E+02 -0.17975531434E+03  0.20025807458E+03  0.47000000000E+01 0.  1.
         -5    1    1    2    0  502  0.62901933174E+02 -0.55421420809E+02 -0.73814221731E+02  0.11179810558E+03  0.47000000000E+01 0.  1.
        -11    1    1    2    0    0  0.22133555567E+02  0.10646047295E+03 -0.29899812120E+03  0.31815657005E+03  0.00000000000E+00 0.  1.
         11    1    1    2    0    0 -0.39647733317E+02  0.24520097268E+02 -0.64471290842E+02  0.79559570575E+02  0.00000000000E+00 0. -1.
<mgrwt>
<rscale>  0 0.17654621E+03</rscale>
<asrwt>0</asrwt>
<pdfrwt beam="2">  1        2 0.10206240E+00 0.18188334E+03</pdfrwt>
<pdfrwt beam="1">  1       -2 0.71333366E-02 0.18188334E+03</pdfrwt>
<totfact> 0.49710480E+03</totfact>
</mgrwt>
</event>
<event>
 6    1  0.7457796E-006  0.2300377E+03  0.7546771E-02  0.1129621E+00
         -1   -1    0    0    0  501 -0.00000000000E+00  0.00000000000E+00  0.27394784326E+03  0.27394784326E+03  0.00000000000E+00 0.  1.
          1   -1    0    0  501    0  0.00000000000E+00 -0.00000000000E+00 -0.19244263666E+03  0.19244263666E+03  0.00000000000E+00 0. -1.
          5    1    1    2  502    0  0.13997464407E+03 -0.89008400692E+02  0.12650748785E+03  0.20866631462E+03  0.47000000000E+01 0.  1.
         -5    1    1    2    0  502  0.34721738413E+02  0.67761268500E+01 -0.24176026510E+02  0.43105513236E+02  0.47000000000E+01 0.  1.
        -11    1    1    2    0    0 -0.67034288257E+02  0.76866636640E+02  0.10059579893E+02  0.10248546618E+03  0.00000000000E+00 0.  1.
         11    1    1    2    0    0 -0.10766209423E+03  0.53656372018E+01 -0.30885834630E+02  0.11213318589E+03  0.00000000000E+00 0. -1.
<mgrwt>
<rscale>  0 0.22581483E+03</rscale>
<asrwt>0</asrwt>
<pdfrwt beam="2">  1        1 0.29606559E-01 0.23003766E+03</pdfrwt>
<pdfrwt beam="1">  1       -1 0.42145822E-01 0.23003766E+03</pdfrwt>
<totfact> 0.86596530E+02</totfact>
</mgrwt>
</event>
<event>
 6    1  0.7457796E-006  0.1307688E+03  0.7546771E-02  0.1240846E+00
          4   -1    0    0  501    0  0.00000000000E+00  0.00000000000E+00  0.19291154876E+03  0.19291154876E+03  0.00000000000E+00 0. -1.
         -4   -1    0    0    0  501 -0.00000000000E+00 -0.00000000000E+00 -0.68126524664E+02  0.68126524664E+02  0.00000000000E+00 0.  1.
          5    1    1    2  502    0 -0.31426021262E+02 -0.29155404579E+02  0.48474953171E+02  0.64880995010E+02  0.47000000000E+01 0. -1.
         -5    1    1    2    0  502  0.38386415762E+02  0.66920137445E+02  0.84878156256E+01  0.77755737568E+02  0.47000000000E+01 0. -1.
        -11    1    1    2    0    0 -0.34422251114E+02 -0.10585830337E+00  0.62680103674E+02  0.71510124977E+02  0.00000000000E+00 0. -1.
         11    1    1    2    0    0  0.27461856614E+02 -0.37658874563E+02  0.51421516225E+01  0.46891215866E+02  0.00000000000E+00 0.  1.
<mgrwt>
<rscale>  0 0.12137488E+03</rscale>
<asrwt>0</asrwt>
<pdfrwt beam="1">  1        4 0.29678700E-01 0.13076881E+03</pdfrwt>
<pdfrwt beam="2">  1       -4 0.10481004E-01 0.13076881E+03</pdfrwt>
<totfact> 0.12434490E+03</totfact>
</mgrwt>
</event>
<event>
 6    1  0.7457796E-006  0.1268967E+03  0.7546771E-02  0.1247135E+00
         -1   -1    0    0    0  501 -0.00000000000E+00  0.00000000000E+00  0.89384321467E+02  0.89384321467E+02  0.00000000000E+00 0.  1.
          1   -1    0    0  501    0  0.00000000000E+00 -0.00000000000E+00 -0.14012350768E+03  0.14012350768E+03  0.00000000000E+00 0. -1.
          5    1    1    2  502    0  0.48062105959E+02 -0.41374549442E+02 -0.80032926970E+00  0.63596775843E+02  0.47000000000E+01 0. -1.
         -5    1    1    2    0  502 -0.30810622491E+02  0.54820554492E+02 -0.86486989143E+01  0.63651218731E+02  0.47000000000E+01 0. -1.
        -11    1    1    2    0    0 -0.26010082505E+02 -0.47469061057E+02 -0.96528775637E+01  0.54981944262E+02  0.00000000000E+00 0.  1.
         11    1    1    2    0    0  0.87585990370E+01  0.34023056007E+02 -0.31637280468E+02  0.47277890314E+02  0.00000000000E+00 0. -1.
<mgrwt>
<rscale>  0 0.11758511E+03</rscale>
<asrwt>0</asrwt>
<pdfrwt beam="2">  1        1 0.21557463E-01 0.12689668E+03</pdfrwt>
<pdfrwt beam="1">  1       -1 0.13751434E-01 0.12689668E+03</pdfrwt>
<totfact> 0.80425644E+03</totfact>
</mgrwt>
</event>
<event>
 6    1  0.7457796E-006  0.1304176E+03  0.7546771E-02  0.1239870E+00
          1   -1    0    0  501    0  0.00000000000E+00  0.00000000000E+00  0.33044152570E+02  0.33044152570E+02  0.00000000000E+00 0. -1.
         -1   -1    0    0    0  501 -0.00000000000E+00 -0.00000000000E+00 -0.41048252820E+03  0.41048252820E+03  0.00000000000E+00 0.  1.
          5    1    1    2  502    0  0.71772881779E+02  0.12562524854E+02 -0.14197715487E+03  0.15965201563E+03  0.47000000000E+01 0.  1.
         -5    1    1    2    0  502 -0.53581927499E+02  0.19905599548E+02 -0.10473628803E+03  0.11941120500E+03  0.47000000000E+01 0.  1.
        -11    1    1    2    0    0 -0.27775881387E+02  0.27151475214E+02 -0.59892814446E+02  0.71385232474E+02  0.00000000000E+00 0. -1.
         11    1    1    2    0    0  0.95849271068E+01 -0.59619599616E+02 -0.70832118286E+02  0.93078227674E+02  0.00000000000E+00 0.  1.
<mgrwt>
<rscale>  0 0.12197769E+03</rscale>
<asrwt>0</asrwt>
<pdfrwt beam="1">  1        1 0.50837158E-02 0.13041763E+03</pdfrwt>
<pdfrwt beam="2">  1       -1 0.63151158E-01 0.13041763E+03</pdfrwt>
<totfact> 0.40881830E+03</totfact>
</mgrwt>
</event>
<event>
 6    1  0.1453463E-005  0.2191475E+03  0.7546771E-02  0.1138246E+00
          1   -1    0    0  501    0  0.00000000000E+00  0.00000000000E+00  0.21018270665E+02  0.21018270665E+02  0.00000000000E+00 0. -1.
         -1   -1    0    0    0  501 -0.00000000000E+00 -0.00000000000E+00 -0.22817311534E+04  0.22817311534E+04  0.00000000000E+00 0.  1.
          5    1    1    2  502    0 -0.10446377167E+03 -0.15892418502E+03 -0.13738031696E+04  0.13869126919E+04  0.47000000000E+01 0.  1.
         -5    1    1    2    0  502  0.26647372636E+02 -0.33873132411E+01 -0.13544380022E+03  0.13816175078E+03  0.47000000000E+01 0.  1.
        -11    1    1    2    0    0  0.20396235522E+02  0.12891112241E+03 -0.56017660655E+03  0.57517989745E+03  0.00000000000E+00 0.  1.
         11    1    1    2    0    0  0.57420163517E+02  0.33400375857E+02 -0.19128930635E+03  0.20249508392E+03  0.00000000000E+00 0. -1.
<mgrwt>
<rscale>  0 0.21424704E+03</rscale>
<asrwt>0</asrwt>
<pdfrwt beam="1">  1        1 0.32335789E-02 0.21914753E+03</pdfrwt>
<pdfrwt beam="2">  1       -1 0.35103570E+00 0.21914753E+03</pdfrwt>
<totfact> 0.56875403E+01</totfact>
</mgrwt>
</event>
<event>
 6    1  0.7457796E-006  0.1503231E+03  0.7546771E-02  0.1209156E+00
          1   -1    0    0  501    0  0.00000000000E+00  0.00000000000E+00  0.32659759570E+02  0.32659759570E+02  0.00000000000E+00 0. -1.
         -1   -1    0    0    0  501 -0.00000000000E+00 -0.00000000000E+00 -0.57451264601E+03  0.57451264601E+03  0.00000000000E+00 0.  1.
          5    1    1    2  502    0 -0.55111855447E+02  0.35880654940E+02 -0.23849631012E+03  0.24744154451E+03  0.47000000000E+01 0. -1.
         -5    1    1    2    0  502 -0.25395553623E+02 -0.58010253998E+02 -0.62988460257E+02  0.89441376545E+02  0.47000000000E+01 0. -1.
        -11    1    1    2    0    0  0.25664055595E+02  0.27971810073E+02 -0.19573493418E+02  0.42710508694E+02  0.00000000000E+00 0. -1.
         11    1    1    2    0    0  0.54843353475E+02 -0.58422110149E+01 -0.22079462265E+03  0.22757897583E+03  0.00000000000E+00 0.  1.
<mgrwt>
<rscale>  0 0.14314732E+03</rscale>
<asrwt>0</asrwt>
<pdfrwt beam="1">  1        1 0.50245785E-02 0.15032310E+03</pdfrwt>
<pdfrwt beam="2">  1       -1 0.88386559E-01 0.15032310E+03</pdfrwt>
<totfact> 0.21287738E+03</totfact>
</mgrwt>
</event>
<event>
 6    1  0.7457796E-006  0.1871077E+03  0.7546771E-02  0.1166364E+00
          1   -1    0    0  501    0  0.00000000000E+00  0.00000000000E+00  0.36120029122E+03  0.36120029122E+03  0.00000000000E+00 0. -1.
         -1   -1    0    0    0  501 -0.00000000000E+00 -0.00000000000E+00 -0.90669073322E+02  0.90669073322E+02  0.00000000000E+00 0.  1.
          5    1    1    2  502    0 -0.55483628804E+02 -0.31731947601E+02  0.78914339410E+02  0.10166077183E+03  0.47000000000E+01 0. -1.
         -5    1    1    2    0  502 -0.77701620612E+02  0.72286343148E+02  0.13689980125E+02  0.10710911636E+03  0.47000000000E+01 0. -1.
        -11    1    1    2    0    0  0.40305191055E+01  0.15783786716E+02  0.19979391617E+00  0.16291498549E+02  0.00000000000E+00 0.  1.
         11    1    1    2    0    0  0.12915473031E+03 -0.56338182264E+02  0.17772710445E+03  0.22680797781E+03  0.00000000000E+00 0. -1.
<mgrwt>
<rscale>  0 0.18149539E+03</rscale>
<asrwt>0</asrwt>
<pdfrwt beam="1">  1        1 0.55569275E-01 0.18710774E+03</pdfrwt>
<pdfrwt beam="2">  1       -1 0.13949088E-01 0.18710774E+03</pdfrwt>
<totfact> 0.24598250E+03</totfact>
</mgrwt>
</event>
<event>
 6    1  0.7457796E-006  0.2308523E+03  0.7546771E-02  0.1161791E+00
         -1   -1    0    0    0  501 -0.00000000000E+00  0.00000000000E+00  0.19877909137E+03  0.19877909137E+03  0.00000000000E+00 0.  1.
          1   -1    0    0  501    0  0.00000000000E+00 -0.00000000000E+00 -0.13765414090E+03  0.13765414090E+03  0.00000000000E+00 0. -1.
          5    1    1    2  502    0 -0.79015702674E+02 -0.79756818264E+00 -0.35450538820E+02  0.86734930026E+02  0.47000000000E+01 0. -1.
         -5    1    1    2    0  502  0.11709953614E+03  0.15969516705E+02  0.94918026169E+02  0.15165371252E+03  0.47000000000E+01 0.  1.
        -11    1    1    2    0    0  0.18613888965E+02  0.10868789302E+02  0.23548275504E+02  0.31923795553E+02  0.00000000000E+00 0.  1.
         11    1    1    2    0    0 -0.56697722432E+02 -0.26040737825E+02 -0.21890812381E+02  0.66120794173E+02  0.00000000000E+00 0. -1.
<mgrwt>
<rscale>  0 0.18635497E+03</rscale>
<asrwt>0</asrwt>
<pdfrwt beam="2">  1        1 0.21177560E-01 0.23085225E+03</pdfrwt>
<pdfrwt beam="1">  1       -1 0.30581399E-01 0.23085225E+03</pdfrwt>
<totfact> 0.23234077E+03</totfact>
</mgrwt>
</event>
<event>
 6    1  0.8198304E-006  0.4494503E+03  0.7546771E-02  0.1027886E+00
         -3   -1    0    0    0  501 -0.00000000000E+00  0.00000000000E+00  0.34274934574E+03  0.34274934574E+03  0.00000000000E+00 0.  1.
          3   -1    0    0  501    0  0.00000000000E+00 -0.00000000000E+00 -0.14734205007E+03  0.14734205007E+03  0.00000000000E+00 0. -1.
          5    1    1    2  502    0 -0.38375374367E+01 -0.65736419965E+01  0.62474268780E+02  0.63111518143E+02  0.47000000000E+01 0.  1.
         -5    1    1    2    0  502 -0.32713481291E+02  0.18580961895E+03  0.11735522268E+03  0.22223799100E+03  0.47000000000E+01 0.  1.
        -11    1    1    2    0    0  0.33045918609E+02 -0.56528490384E+02 -0.32257553161E+02  0.72993511340E+02  0.00000000000E+00 0. -1.
         11    1    1    2    0    0  0.35051001189E+01 -0.12270748657E+03  0.47835357372E+02  0.13174837533E+03  0.00000000000E+00 0.  1.
<mgrwt>
<rscale>  0 0.44945029E+03</rscale>
<asrwt>0</asrwt>
<pdfrwt beam="2">  1        3 0.22668008E-01 0.44945029E+03</pdfrwt>
<pdfrwt beam="1">  1       -3 0.52730668E-01 0.44945029E+03</pdfrwt>
<totfact> 0.16810131E+02</totfact>
</mgrwt>
</event>
<event>
 6    1  0.7457796E-006  0.1263242E+03  0.7546771E-02  0.1246979E+00
          1   -1    0    0  501    0  0.00000000000E+00  0.00000000000E+00  0.16516586403E+02  0.16516586403E+02  0.00000000000E+00 0. -1.
         -1   -1    0    0    0  501 -0.00000000000E+00 -0.00000000000E+00 -0.81171556502E+03  0.81171556502E+03  0.00000000000E+00 0.  1.
          5    1    1    2  502    0 -0.50161066054E+02 -0.19327710510E+02 -0.45210788731E+03  0.45531673010E+03  0.47000000000E+01 0. -1.
         -5    1    1    2    0  502  0.50751663679E+02  0.12112840414E+01 -0.11671446521E+03  0.12736386836E+03  0.47000000000E+01 0. -1.
        -11    1    1    2    0    0 -0.18599059714E+02 -0.33818309917E+02 -0.72189590261E+02  0.81859269786E+02  0.00000000000E+00 0. -1.
         11    1    1    2    0    0  0.18008462089E+02  0.51934736386E+02 -0.15418703584E+03  0.16369228318E+03  0.00000000000E+00 0.  1.
<mgrwt>
<rscale>  0 0.11767689E+03</rscale>
<asrwt>0</asrwt>
<pdfrwt beam="1">  1        1 0.25410137E-02 0.12632423E+03</pdfrwt>
<pdfrwt beam="2">  1       -1 0.12487930E+00 0.12632423E+03</pdfrwt>
<totfact> 0.24910044E+03</totfact>
</mgrwt>
</event>
<event>
 6    1  0.1397007E-005  0.3510525E+03  0.7546771E-02  0.1062184E+00
          3   -1    0    0  501    0  0.00000000000E+00  0.00000000000E+00  0.87352686851E+03  0.87352686851E+03  0.00000000000E+00 0.  1.
         -3   -1    0    0    0  501 -0.00000000000E+00 -0.00000000000E+00 -0.35270191620E+02  0.35270191620E+02  0.00000000000E+00 0. -1.
          5    1    1    2  502    0 -0.13738761140E+02 -0.21512580791E+02  0.81065522516E+02  0.85119055626E+02  0.47000000000E+01 0. -1.
         -5    1    1    2    0  502 -0.36510436424E+01  0.15261720144E+03  0.26434833769E+03  0.30529899105E+03  0.47000000000E+01 0. -1.
        -11    1    1    2    0    0  0.39689016474E+02 -0.61076498650E+02  0.35261542024E+03  0.36005998293E+03  0.00000000000E+00 0.  1.
         11    1    1    2    0    0 -0.22299211691E+02 -0.70028122002E+02  0.14022739645E+03  0.15831903053E+03  0.00000000000E+00 0. -1.
<mgrwt>
<rscale>  0 0.35105247E+03</rscale>
<asrwt>0</asrwt>
<pdfrwt beam="1">  1        3 0.13438873E+00 0.35105247E+03</pdfrwt>
<pdfrwt beam="2">  1       -3 0.54261840E-02 0.35105247E+03</pdfrwt>
<totfact> 0.23234539E+02</totfact>
</mgrwt>
</event>
<event>
 6    1  0.7457796E-006  0.1283899E+03  0.7546771E-02  0.1248481E+00
         -3   -1    0    0    0  501 -0.00000000000E+00  0.00000000000E+00  0.16607612796E+03  0.16607612796E+03  0.00000000000E+00 0.  1.
          3   -1    0    0  501    0  0.00000000000E+00 -0.00000000000E+00 -0.74975067767E+02  0.74975067767E+02  0.00000000000E+00 0. -1.
          5    1    1    2  502    0  0.16208833331E+02  0.14681577073E+02 -0.25239734762E+02  0.33725497686E+02  0.47000000000E+01 0. -1.
         -5    1    1    2    0  502 -0.44377698176E+02 -0.22700167078E+02  0.10796074070E+03  0.11900541674E+03  0.47000000000E+01 0. -1.
        -11    1    1    2    0    0  0.44598519096E+01 -0.21333199484E+02 -0.28285746678E+02  0.35708250369E+02  0.00000000000E+00 0. -1.
         11    1    1    2    0    0  0.23709012935E+02  0.29351789490E+02  0.36665800926E+02  0.52612030926E+02  0.00000000000E+00 0.  1.
<mgrwt>
<rscale>  0 0.11679448E+03</rscale>
<asrwt>0</asrwt>
<pdfrwt beam="2">  1        3 0.11534626E-01 0.12838990E+03</pdfrwt>
<pdfrwt beam="1">  1       -3 0.25550173E-01 0.12838990E+03</pdfrwt>
<totfact> 0.19046100E+03</totfact>
</mgrwt>
</event>
<event>
 6    1  0.7457796E-006  0.3031468E+03  0.7546771E-02  0.1083678E+00
          2   -1    0    0  501    0  0.00000000000E+00  0.00000000000E+00  0.76739252147E+02  0.76739252147E+02  0.00000000000E+00 0. -1.
         -2   -1    0    0    0  501 -0.00000000000E+00 -0.00000000000E+00 -0.29938380382E+03  0.29938380382E+03  0.00000000000E+00 0.  1.
          5    1    1    2  502    0  0.62273736668E+02  0.89360217876E+01 -0.21232741218E+02  0.66564180034E+02  0.47000000000E+01 0.  1.
         -5    1    1    2    0  502  0.11183626520E+02 -0.41537882588E+00 -0.18652747574E+03  0.18692200311E+03  0.47000000000E+01 0.  1.
        -11    1    1    2    0    0 -0.35871017088E+02  0.42035195990E+02  0.75305634310E+01  0.55770932881E+02  0.00000000000E+00 0.  1.
         11    1    1    2    0    0 -0.37586346100E+02 -0.50555838951E+02 -0.22414898150E+02  0.66865939942E+02  0.00000000000E+00 0. -1.
<mgrwt>
<rscale>  0 0.30314676E+03</rscale>
<asrwt>0</asrwt>
<pdfrwt beam="1">  1        2 0.11806039E-01 0.30314676E+03</pdfrwt>
<pdfrwt beam="2">  1       -2 0.46059047E-01 0.30314676E+03</pdfrwt>
<totfact> 0.23597922E+03</totfact>
</mgrwt>
</event>
<event>
 6    1  0.7457796E-006  0.2189802E+03  0.7546771E-02  0.1134646E+00
         -1   -1    0    0    0  501 -0.00000000000E+00  0.00000000000E+00  0.51481268637E+02  0.51481268637E+02  0.00000000000E+00 0.  1.
          1   -1    0    0  501    0  0.00000000000E+00 -0.00000000000E+00 -0.23286304964E+03  0.23286304964E+03  0.00000000000E+00 0. -1.
          5    1    1    2  502    0 -0.12686272712E+02  0.65023310125E+01 -0.13511433791E+03  0.13594556313E+03  0.47000000000E+01 0.  1.
         -5    1    1    2    0  502 -0.14824658778E+01 -0.39006893818E+01  0.28372424678E+02  0.29060240275E+02  0.47000000000E+01 0.  1.
        -11    1    1    2    0    0  0.43538222963E+02 -0.15238361462E+02 -0.74192005679E+02  0.87362682110E+02  0.00000000000E+00 0. -1.
         11    1    1    2    0    0 -0.29369484373E+02  0.12636719831E+02 -0.44786208597E+00  0.31975832763E+02  0.00000000000E+00 0.  1.
<mgrwt>
<rscale>  0 0.21898023E+03</rscale>
<asrwt>0</asrwt>
<pdfrwt beam="2">  1        1 0.35825085E-01 0.21898023E+03</pdfrwt>
<pdfrwt beam="1">  1       -1 0.79201951E-02 0.21898023E+03</pdfrwt>
<totfact> 0.10318389E+04</totfact>
</mgrwt>
</event>
<event>
 6    1  0.7457796E-006  0.1341057E+03  0.7546771E-02  0.1233229E+00
          2   -1    0    0  501    0  0.00000000000E+00  0.00000000000E+00  0.90199803787E+03  0.90199803787E+03  0.00000000000E+00 0.  1.
         -2   -1    0    0    0  501 -0.00000000000E+00 -0.00000000000E+00 -0.16194595294E+02  0.16194595294E+02  0.00000000000E+00 0. -1.
          5    1    1    2  502    0  0.76187276611E+02  0.18209889715E+02  0.20452731533E+03  0.21906531884E+03  0.47000000000E+01 0. -1.
         -5    1    1    2    0  502 -0.29155760622E+02 -0.60798069530E+01  0.35627420963E+03  0.35754779384E+03  0.47000000000E+01 0. -1.
        -11    1    1    2    0    0 -0.74892720902E+02 -0.48852085788E+01  0.25701476346E+03  0.26774871343E+03  0.00000000000E+00 0.  1.
         11    1    1    2    0    0  0.27861204913E+02 -0.72448741834E+01  0.67987154158E+02  0.73830807063E+02  0.00000000000E+00 0. -1.
<mgrwt>
<rscale>  0 0.12618485E+03</rscale>
<asrwt>0</asrwt>
<pdfrwt beam="1">  1        2 0.13876889E+00 0.13410567E+03</pdfrwt>
<pdfrwt beam="2">  1       -2 0.24914769E-02 0.13410567E+03</pdfrwt>
<totfact> 0.16135479E+04</totfact>
</mgrwt>
</event>
<event>
 6    1  0.7457796E-006  0.1275119E+03  0.7546771E-02  0.1246142E+00
          1   -1    0    0  501    0  0.00000000000E+00  0.00000000000E+00  0.29633586965E+02  0.29633586965E+02  0.00000000000E+00 0. -1.
         -1   -1    0    0    0  501 -0.00000000000E+00 -0.00000000000E+00 -0.41488364441E+03  0.41488364441E+03  0.00000000000E+00 0.  1.
          5    1    1    2  502    0  0.54752894455E+02 -0.13911968687E+02 -0.44612221001E+02  0.72137109635E+02  0.47000000000E+01 0. -1.
         -5    1    1    2    0  502 -0.34356761395E+02  0.28746827188E+02 -0.18603932456E+03  0.19141443888E+03  0.47000000000E+01 0. -1.
        -11    1    1    2    0    0  0.30625437308E+02 -0.23380009686E+02 -0.41677828036E+02  0.56758995878E+02  0.00000000000E+00 0.  1.
         11    1    1    2    0    0 -0.51021570368E+02  0.85451511857E+01 -0.11292068384E+03  0.12420668698E+03  0.00000000000E+00 0. -1.
<mgrwt>
<rscale>  0 0.11817291E+03</rscale>
<asrwt>0</asrwt>
<pdfrwt beam="1">  1        1 0.45590132E-02 0.12751189E+03</pdfrwt>
<pdfrwt beam="2">  1       -1 0.63828256E-01 0.12751189E+03</pdfrwt>
<totfact> 0.46409332E+03</totfact>
</mgrwt>
</event>
<event>
 6    1  0.7457796E-006  0.1572434E+03  0.7546771E-02  0.1200026E+00
         -2   -1    0    0    0  501 -0.00000000000E+00  0.00000000000E+00  0.33252873702E+02  0.33252873702E+02  0.00000000000E+00 0.  1.
          2   -1    0    0  501    0  0.00000000000E+00 -0.00000000000E+00 -0.63004126212E+03  0.63004126212E+03  0.00000000000E+00 0. -1.
          5    1    1    2  502    0 -0.51296366725E+02  0.71279846120E+02 -0.11188002976E+03  0.14230728991E+03  0.47000000000E+01 0. -1.
         -5    1    1    2    0  502  0.50552106422E+02  0.24111861164E+02 -0.18905278594E+03  0.19723068519E+03  0.47000000000E+01 0. -1.
        -11    1    1    2    0    0 -0.44795501616E+02 -0.44371999638E+02 -0.13780533042E+03  0.15154478021E+03  0.00000000000E+00 0.  1.
         11    1    1    2    0    0  0.45539761920E+02 -0.51019707646E+02 -0.15805024230E+03  0.17221138050E+03  0.00000000000E+00 0. -1.
<mgrwt>
<rscale>  0 0.15036470E+03</rscale>
<asrwt>0</asrwt>
<pdfrwt beam="2">  1        2 0.96929433E-01 0.15724337E+03</pdfrwt>
<pdfrwt beam="1">  1       -2 0.51158263E-02 0.15724337E+03</pdfrwt>
<totfact> 0.87054515E+03</totfact>
</mgrwt>
</event>
<event>
 6    1  0.7457796E-006  0.1398241E+03  0.7546771E-02  0.1224544E+00
          2   -1    0    0  501    0  0.00000000000E+00  0.00000000000E+00  0.10784919341E+03  0.10784919341E+03  0.00000000000E+00 0. -1.
         -2   -1    0    0    0  501 -0.00000000000E+00 -0.00000000000E+00 -0.14621140376E+03  0.14621140376E+03  0.00000000000E+00 0.  1.
          5    1    1    2  502    0 -0.31820914496E+02  0.42054323915E+01  0.31874688409E+02  0.45479028377E+02  0.47000000000E+01 0.  1.
         -5    1    1    2    0  502  0.37478354115E+02 -0.66606300629E+02 -0.59683317208E+02  0.97083544762E+02  0.47000000000E+01 0.  1.
        -11    1    1    2    0    0  0.35521531786E+02  0.59495191682E+01 -0.19659496798E+02  0.41032570150E+02  0.00000000000E+00 0.  1.
         11    1    1    2    0    0 -0.41178971405E+02  0.56451349069E+02  0.91059152452E+01  0.70465453877E+02  0.00000000000E+00 0. -1.
<mgrwt>
<rscale>  0 0.13198199E+03</rscale>
<asrwt>0</asrwt>
<pdfrwt beam="1">  1        2 0.16592184E-01 0.13982406E+03</pdfrwt>
<pdfrwt beam="2">  1       -2 0.22494062E-01 0.13982406E+03</pdfrwt>
<totfact> 0.56407885E+03</totfact>
</mgrwt>
</event>
<event>
 6    1  0.7457796E-006  0.2589926E+03  0.7546771E-02  0.1110132E+00
         -2   -1    0    0    0  501 -0.00000000000E+00  0.00000000000E+00  0.16692606295E+04  0.16692606295E+04  0.00000000000E+00 0.  1.
          2   -1    0    0  501    0  0.00000000000E+00 -0.00000000000E+00 -0.38322358535E+02  0.38322358535E+02  0.00000000000E+00 0. -1.
          5    1    1    2  502    0  0.93561882760E+02 -0.89038235105E+02  0.69913483192E+03  0.71098047541E+03  0.47000000000E+01 0. -1.
         -5    1    1    2    0  502  0.10564424866E+03 -0.19451142820E+02  0.23568575979E+03  0.25905389710E+03  0.47000000000E+01 0. -1.
        -11    1    1    2    0    0 -0.71185813203E+02  0.31106716695E+02  0.12507136433E+03  0.14723414686E+03  0.00000000000E+00 0.  1.
         11    1    1    2    0    0 -0.12802031822E+03  0.77382661231E+02  0.57104631492E+03  0.59031446867E+03  0.00000000000E+00 0. -1.
<mgrwt>
<rscale>  0 0.25508626E+03</rscale>
<asrwt>0</asrwt>
<pdfrwt beam="2">  1        2 0.58957488E-02 0.25899256E+03</pdfrwt>
<pdfrwt beam="1">  1       -2 0.25680927E+00 0.25899256E+03</pdfrwt>
<totfact> 0.82610380E+01</totfact>
</mgrwt>
</event>
<event>
 6    1  0.7457796E-006  0.1580083E+03  0.7546771E-02  0.1198869E+00
         -2   -1    0    0    0  501 -0.00000000000E+00  0.00000000000E+00  0.41738793142E+03  0.41738793142E+03  0.00000000000E+00 0.  1.
          2   -1    0    0  501    0  0.00000000000E+00 -0.00000000000E+00 -0.55602762832E+02  0.55602762832E+02  0.00000000000E+00 0. -1.
          5    1    1    2  502    0 -0.10282053570E+03 -0.25269691270E+02  0.15154373313E+03  0.18492758829E+03  0.47000000000E+01 0.  1.
         -5    1    1    2    0  502  0.30096411964E+02 -0.38392950179E+02  0.11370794510E+03  0.12382002833E+03  0.47000000000E+01 0.  1.
        -11    1    1    2    0    0  0.21455416471E+02  0.39181353003E+02 -0.78919541783E+01  0.45362939277E+02  0.00000000000E+00 0. -1.
         11    1    1    2    0    0  0.51268707269E+02  0.24481288446E+02  0.10442544453E+03  0.11888013835E+03  0.00000000000E+00 0.  1.
<mgrwt>
<rscale>  0 0.15131252E+03</rscale>
<asrwt>0</asrwt>
<pdfrwt beam="2">  1        2 0.85542715E-02 0.15800835E+03</pdfrwt>
<pdfrwt beam="1">  1       -2 0.64213526E-01 0.15800835E+03</pdfrwt>
<totfact> 0.17444719E+03</totfact>
</mgrwt>
</event>
<event>
 6    1  0.7457796E-006  0.1269981E+03  0.7546771E-02  0.1249046E+00
          1   -1    0    0  501    0  0.00000000000E+00  0.00000000000E+00  0.34772792729E+02  0.34772792729E+02  0.00000000000E+00 0. -1.
         -1   -1    0    0    0  501 -0.00000000000E+00 -0.00000000000E+00 -0.36824966218E+03  0.36824966218E+03  0.00000000000E+00 0.  1.
          5    1    1    2  502    0  0.17657455021E+02  0.48814865510E+02 -0.13197526375E+03  0.14189516220E+03  0.47000000000E+01 0. -1.
         -5    1    1    2    0  502 -0.14273010346E+02 -0.70920191807E+02 -0.11798651999E+03  0.13847852299E+03  0.47000000000E+01 0. -1.
        -11    1    1    2    0    0  0.13642413449E+02 -0.27812540923E+02 -0.53881598751E+02  0.62152068037E+02  0.00000000000E+00 0.  1.
         11    1    1    2    0    0 -0.17026858124E+02  0.49917867220E+02 -0.29633486957E+02  0.60496701683E+02  0.00000000000E+00 0. -1.
<mgrwt>
<rscale>  0 0.11646442E+03</rscale>
<asrwt>0</asrwt>
<pdfrwt beam="1">  1        1 0.53496602E-02 0.12699807E+03</pdfrwt>
<pdfrwt beam="2">  1       -1 0.56653796E-01 0.12699807E+03</pdfrwt>
<totfact> 0.46769607E+03</totfact>
</mgrwt>
</event>
<event>
 6    1  0.7457796E-006  0.2723660E+03  0.7546771E-02  0.1099933E+00
         -1   -1    0    0    0  501 -0.00000000000E+00  0.00000000000E+00  0.39906393651E+02  0.39906393651E+02  0.00000000000E+00 0.  1.
          1   -1    0    0  501    0  0.00000000000E+00 -0.00000000000E+00 -0.46473274528E+03  0.46473274528E+03  0.00000000000E+00 0. -1.
          5    1    1    2  502    0  0.34612484750E+02 -0.96864941428E+02 -0.15791083293E+03  0.18851727278E+03  0.47000000000E+01 0. -1.
         -5    1    1    2    0  502 -0.26724788577E+02  0.21431426154E+02 -0.14384254466E+02  0.37450195301E+02  0.47000000000E+01 0. -1.
        -11    1    1    2    0    0  0.33811542806E+02  0.28294948555E+02 -0.50366971374E+02  0.66937704965E+02  0.00000000000E+00 0. -1.
         11    1    1    2    0    0 -0.41699238979E+02  0.47138566719E+02 -0.20216429286E+03  0.21173396589E+03  0.00000000000E+00 0.  1.
<mgrwt>
<rscale>  0 0.27236599E+03</rscale>
<asrwt>0</asrwt>
<pdfrwt beam="2">  1        1 0.71497349E-01 0.27236599E+03</pdfrwt>
<pdfrwt beam="1">  1       -1 0.61394449E-02 0.27236599E+03</pdfrwt>
<totfact> 0.63875682E+03</totfact>
</mgrwt>
</event>
<event>
 6    1  0.7457796E-006  0.1731647E+03  0.7546771E-02  0.1180667E+00
         -1   -1    0    0    0  501 -0.00000000000E+00  0.00000000000E+00  0.28695232767E+02  0.28695232767E+02  0.00000000000E+00 0.  1.
          1   -1    0    0  501    0  0.00000000000E+00 -0.00000000000E+00 -0.11018897768E+04  0.11018897768E+04  0.00000000000E+00 0. -1.
          5    1    1    2  502    0 -0.34416079762E+02  0.56903312759E+02 -0.46021522745E+02  0.81009407509E+02  0.47000000000E+01 0.  1.
         -5    1    1    2    0  502  0.18036175339E+02  0.61816331387E+02 -0.28893237773E+03  0.29605839179E+03  0.47000000000E+01 0.  1.
        -11    1    1    2    0    0 -0.14108785153E+02 -0.11845951193E+03 -0.62249362197E+03  0.63382175979E+03  0.00000000000E+00 0. -1.
         11    1    1    2    0    0  0.30488689576E+02 -0.26013222034E+00 -0.11574702161E+03  0.11969545051E+03  0.00000000000E+00 0.  1.
<mgrwt>
<rscale>  0 0.16732469E+03</rscale>
<asrwt>0</asrwt>
<pdfrwt beam="2">  1        1 0.16952150E+00 0.17316469E+03</pdfrwt>
<pdfrwt beam="1">  1       -1 0.44146514E-02 0.17316469E+03</pdfrwt>
<totfact> 0.28326047E+03</totfact>
</mgrwt>
</event>
<event>
 6    1  0.7457796E-006  0.1289458E+03  0.7546771E-02  0.1243241E+00
          1   -1    0    0  501    0  0.00000000000E+00  0.00000000000E+00  0.79553646855E+02  0.79553646855E+02  0.00000000000E+00 0. -1.
         -1   -1    0    0    0  501 -0.00000000000E+00 -0.00000000000E+00 -0.19143988414E+03  0.19143988414E+03  0.00000000000E+00 0.  1.
          5    1    1    2  502    0 -0.61241407241E+01  0.53452474145E+02  0.63224848087E+00  0.54010756614E+02  0.47000000000E+01 0.  1.
         -5    1    1    2    0  502  0.76949557059E+01 -0.21798772187E+02 -0.11805402170E+03  0.12038787668E+03  0.47000000000E+01 0.  1.
        -11    1    1    2    0    0  0.59826194745E+01 -0.24305438412E+02  0.47303577030E+02  0.53517982697E+02  0.00000000000E+00 0. -1.
         11    1    1    2    0    0 -0.75534344563E+01 -0.73482635462E+01 -0.41768041093E+02  0.43076915001E+02  0.00000000000E+00 0.  1.
<mgrwt>
<rscale>  0 0.11991273E+03</rscale>
<asrwt>0</asrwt>
<pdfrwt beam="1">  1        1 0.12239023E-01 0.12894577E+03</pdfrwt>
<pdfrwt beam="2">  1       -1 0.29452289E-01 0.12894577E+03</pdfrwt>
<totfact> 0.49016616E+03</totfact>
</mgrwt>
</event>
<event>
 6    1  0.7457796E-006  0.1495128E+03  0.7546771E-02  0.1210041E+00
         -2   -1    0    0    0  501 -0.00000000000E+00  0.00000000000E+00  0.41170011933E+02  0.41170011933E+02  0.00000000000E+00 0. -1.
          2   -1    0    0  501    0  0.00000000000E+00 -0.00000000000E+00 -0.47567661390E+03  0.47567661390E+03  0.00000000000E+00 0.  1.
          5    1    1    2  502    0  0.26589141217E+02  0.19974604806E+02 -0.61170762400E+02  0.69784808092E+02  0.47000000000E+01 0.  1.
         -5    1    1    2    0  502 -0.66381323852E+02 -0.91703526430E+02 -0.11837818837E+03  0.16386428042E+03  0.47000000000E+01 0.  1.
        -11    1    1    2    0    0  0.57964386919E+01  0.85186741400E+02 -0.19647714990E+03  0.21422803282E+03  0.00000000000E+00 0.  1.
         11    1    1    2    0    0  0.33995743943E+02 -0.13457819776E+02 -0.58480501301E+02  0.68969504506E+02  0.00000000000E+00 0. -1.
<mgrwt>
<rscale>  0 0.14247217E+03</rscale>
<asrwt>0</asrwt>
<pdfrwt beam="2">  1        2 0.73181018E-01 0.14951278E+03</pdfrwt>
<pdfrwt beam="1">  1       -2 0.63338479E-02 0.14951278E+03</pdfrwt>
<totfact> 0.86063363E+03</totfact>
</mgrwt>
</event>
<event>
 6    1  0.7457796E-006  0.2011475E+03  0.7546771E-02  0.1154546E+00
          2   -1    0    0  501    0  0.00000000000E+00  0.00000000000E+00  0.10766084616E+04  0.10766084616E+04  0.00000000000E+00 0. -1.
         -2   -1    0    0    0  501 -0.00000000000E+00 -0.00000000000E+00 -0.33296701716E+02  0.33296701716E+02  0.00000000000E+00 0.  1.
          5    1    1    2  502    0  0.23753512812E+02 -0.74665671623E+02  0.12625229735E+03  0.14866379679E+03  0.47000000000E+01 0.  1.
         -5    1    1    2    0  502 -0.88353948960E+02 -0.69340565663E+02  0.37350864738E+03  0.39005811620E+03  0.47000000000E+01 0.  1.
        -11    1    1    2    0    0  0.52782608826E+02  0.29969323193E+02  0.19999707230E+03  0.20900476802E+03  0.00000000000E+00 0.  1.
         11    1    1    2    0    0  0.11817827322E+02  0.11403691409E+03  0.34355374286E+03  0.36217848231E+03  0.00000000000E+00 0. -1.
<mgrwt>
<rscale>  0 0.19440602E+03</rscale>
<asrwt>0</asrwt>
<pdfrwt beam="1">  1        2 0.16563204E+00 0.20114745E+03</pdfrwt>
<pdfrwt beam="2">  1       -2 0.51225703E-02 0.20114745E+03</pdfrwt>
<totfact> 0.44122431E+03</totfact>
</mgrwt>
</event>
<event>
 6    1  0.7457796E-006  0.2859683E+03  0.7546771E-02  0.1127971E+00
         -1   -1    0    0    0  501 -0.00000000000E+00  0.00000000000E+00  0.17651084000E+03  0.17651084000E+03  0.00000000000E+00 0.  1.
          1   -1    0    0  501    0  0.00000000000E+00 -0.00000000000E+00 -0.22940474876E+03  0.22940474876E+03  0.00000000000E+00 0. -1.
          5    1    1    2  502    0  0.21074554792E+02 -0.45083678628E+02 -0.13206830116E+03  0.14121190144E+03  0.47000000000E+01 0. -1.
         -5    1    1    2    0  502  0.27749667703E+02  0.97217310878E+02  0.10524310401E+03  0.14601181642E+03  0.47000000000E+01 0.  1.
        -11    1    1    2    0    0 -0.12838276320E+01 -0.60425122880E+02  0.60219478374E+01  0.60738023875E+02  0.00000000000E+00 0.  1.
         11    1    1    2    0    0 -0.47540394863E+02  0.82914906302E+01 -0.32090659455E+02  0.57953847024E+02  0.00000000000E+00 0. -1.
<mgrwt>
<rscale>  0 0.22811806E+03</rscale>
<asrwt>0</asrwt>
<pdfrwt beam="2">  1        1 0.35293038E-01 0.28596831E+03</pdfrwt>
<pdfrwt beam="1">  1       -1 0.27155514E-01 0.28596831E+03</pdfrwt>
<totfact> 0.14916195E+03</totfact>
</mgrwt>
</event>
<event>
 6    1  0.7457796E-006  0.1260308E+03  0.7546771E-02  0.1248791E+00
          1   -1    0    0  501    0  0.00000000000E+00  0.00000000000E+00  0.29923928019E+03  0.29923928019E+03  0.00000000000E+00 0. -1.
         -1   -1    0    0    0  501 -0.00000000000E+00 -0.00000000000E+00 -0.42979068492E+02  0.42979068492E+02  0.00000000000E+00 0.  1.
          5    1    1    2  502    0 -0.26998991197E+02 -0.45338086904E+02  0.68004665186E+02  0.86204478636E+02  0.47000000000E+01 0.  1.
         -5    1    1    2    0  502  0.40606070471E+02  0.53900496755E+02  0.32793864926E+02  0.75177417395E+02  0.47000000000E+01 0.  1.
        -11    1    1    2    0    0 -0.48882973191E+02  0.13418286725E+02  0.80777965046E+02  0.95366006121E+02  0.00000000000E+00 0. -1.
         11    1    1    2    0    0  0.35275893917E+02 -0.21980696575E+02  0.74683716545E+02  0.85470446533E+02  0.00000000000E+00 0.  1.
<mgrwt>
<rscale>  0 0.11661340E+03</rscale>
<asrwt>0</asrwt>
<pdfrwt beam="1">  1        1 0.46036811E-01 0.12603084E+03</pdfrwt>
<pdfrwt beam="2">  1       -1 0.66121646E-02 0.12603084E+03</pdfrwt>
<totfact> 0.95371071E+03</totfact>
</mgrwt>
</event>
<event>
 6    1  0.7457796E-006  0.1307590E+03  0.7546771E-02  0.1242368E+00
         -3   -1    0    0    0  501 -0.00000000000E+00  0.00000000000E+00  0.36001038525E+02  0.36001038525E+02  0.00000000000E+00 0.  1.
          3   -1    0    0  501    0  0.00000000000E+00 -0.00000000000E+00 -0.35467946492E+03  0.35467946492E+03  0.00000000000E+00 0. -1.
          5    1    1    2  502    0 -0.13653203344E+02  0.19064618475E+02 -0.15136243894E+03  0.15324016301E+03  0.47000000000E+01 0. -1.
         -5    1    1    2    0  502  0.52002662209E+02 -0.20686998596E+02 -0.14571749354E+02  0.58022880547E+02  0.47000000000E+01 0. -1.
        -11    1    1    2    0    0 -0.12228256086E+02 -0.22037921571E+02 -0.27667710178E+01  0.25354590431E+02  0.00000000000E+00 0.  1.
         11    1    1    2    0    0 -0.26121202779E+02  0.23660301691E+02 -0.14997746709E+03  0.15406286945E+03  0.00000000000E+00 0. -1.
<mgrwt>
<rscale>  0 0.12044308E+03</rscale>
<asrwt>0</asrwt>
<pdfrwt beam="2">  1        3 0.54566069E-01 0.13075901E+03</pdfrwt>
<pdfrwt beam="1">  1       -3 0.55386215E-02 0.13075901E+03</pdfrwt>
<totfact> 0.14812270E+03</totfact>
</mgrwt>
</event>
<event>
 6    1  0.7457796E-006  0.1336806E+03  0.7546771E-02  0.1234194E+00
         -1   -1    0    0    0  501 -0.00000000000E+00  0.00000000000E+00  0.46850417883E+02  0.46850417883E+02  0.00000000000E+00 0.  1.
          1   -1    0    0  501    0  0.00000000000E+00 -0.00000000000E+00 -0.47322699475E+03  0.47322699475E+03  0.00000000000E+00 0. -1.
          5    1    1    2  502    0 -0.80680544885E+02  0.30443859285E+02 -0.61949229470E+02  0.10628252878E+03  0.47000000000E+01 0. -1.
         -5    1    1    2    0  502  0.29371667912E+02 -0.33754270321E+02 -0.12333969774E+02  0.46650428199E+02  0.47000000000E+01 0.  1.
        -11    1    1    2    0    0 -0.85743905165E+01 -0.32927100834E+02 -0.11138750051E+03  0.11646840521E+03  0.00000000000E+00 0.  1.
         11    1    1    2    0    0  0.59883267490E+02  0.36237511870E+02 -0.24070587711E+03  0.25067605045E+03  0.00000000000E+00 0. -1.
<mgrwt>
<rscale>  0 0.12556143E+03</rscale>
<asrwt>0</asrwt>
<pdfrwt beam="2">  1        1 0.72804156E-01 0.13368057E+03</pdfrwt>
<pdfrwt beam="1">  1       -1 0.72077563E-02 0.13368057E+03</pdfrwt>
<totfact> 0.47329463E+03</totfact>
</mgrwt>
</event>
<event>
 6    1  0.7457796E-006  0.8551383E+03  0.7546771E-02  0.1000416E+00
         -2   -1    0    0    0  501 -0.00000000000E+00  0.00000000000E+00  0.17280474532E+03  0.17280474532E+03  0.00000000000E+00 0.  1.
          2   -1    0    0  501    0  0.00000000000E+00 -0.00000000000E+00 -0.15009668826E+04  0.15009668826E+04  0.00000000000E+00 0. -1.
          5    1    1    2  502    0  0.31564999365E+03  0.57567680955E+02 -0.10782116679E+04  0.11249495309E+04  0.47000000000E+01 0. -1.
         -5    1    1    2    0  502 -0.20207344487E+03 -0.15345921346E+02  0.53550181735E+02  0.20966374600E+03  0.47000000000E+01 0.  1.
        -11    1    1    2    0    0 -0.98059932858E+02 -0.68577913993E+02 -0.25712902170E+03  0.28360891122E+03  0.00000000000E+00 0.  1.
         11    1    1    2    0    0 -0.15516615923E+02  0.26356154384E+02 -0.46371629455E+02  0.55549439798E+02  0.00000000000E+00 0. -1.
<mgrwt>
<rscale>  0 0.55468190E+03</rscale>
<asrwt>0</asrwt>
<pdfrwt beam="2">  1        2 0.23091798E+00 0.85513826E+03</pdfrwt>
<pdfrwt beam="1">  1       -2 0.26585346E-01 0.85513826E+03</pdfrwt>
<totfact> 0.16372784E+02</totfact>
</mgrwt>
</event>
<event>
 6    1  0.7457796E-006  0.2939271E+03  0.7546771E-02  0.1096660E+00
          1   -1    0    0  501    0  0.00000000000E+00  0.00000000000E+00  0.60179282161E+03  0.60179282161E+03  0.00000000000E+00 0. -1.
         -1   -1    0    0    0  501 -0.00000000000E+00 -0.00000000000E+00 -0.12188150731E+03  0.12188150731E+03  0.00000000000E+00 0.  1.
          5    1    1    2  502    0 -0.45052811502E+02  0.60937720438E+02  0.80140139916E+00  0.75933483001E+02  0.47000000000E+01 0. -1.
         -5    1    1    2    0  502 -0.16837593550E+03 -0.10436695841E+03  0.18976665123E+03  0.27436543073E+03  0.47000000000E+01 0.  1.
        -11    1    1    2    0    0  0.44802585178E+02 -0.75798968579E+01  0.15991654378E+02  0.48171147846E+02  0.00000000000E+00 0.  1.
         11    1    1    2    0    0  0.16862616182E+03  0.51009134827E+02  0.27335160729E+03  0.32520426734E+03  0.00000000000E+00 0. -1.
<mgrwt>
<rscale>  0 0.27822847E+03</rscale>
<asrwt>0</asrwt>
<pdfrwt beam="1">  1        1 0.92583510E-01 0.29392711E+03</pdfrwt>
<pdfrwt beam="2">  1       -1 0.18751001E-01 0.29392711E+03</pdfrwt>
<totfact> 0.78687838E+02</totfact>
</mgrwt>
</event>
<event>
 6    1  0.7457796E-006  0.1307368E+03  0.7546771E-02  0.1239243E+00
         -3   -1    0    0    0  501 -0.00000000000E+00  0.00000000000E+00  0.24491332303E+03  0.24491332303E+03  0.00000000000E+00 0.  1.
          3   -1    0    0  501    0  0.00000000000E+00 -0.00000000000E+00 -0.54535832095E+02  0.54535832095E+02  0.00000000000E+00 0. -1.
          5    1    1    2  502    0  0.45992927406E+02 -0.44110799927E+02  0.33313433197E+02  0.72062381815E+02  0.47000000000E+01 0.  1.
         -5    1    1    2    0  502 -0.11501648580E+02  0.60753340488E+02  0.77978061586E+02  0.99628933495E+02  0.47000000000E+01 0.  1.
        -11    1    1    2    0    0 -0.54241363656E+02 -0.37476222914E+02  0.33667856537E+02  0.74027814901E+02  0.00000000000E+00 0. -1.
         11    1    1    2    0    0  0.19750084830E+02  0.20833682353E+02  0.45418139611E+02  0.53730024910E+02  0.00000000000E+00 0.  1.
<mgrwt>
<rscale>  0 0.12236675E+03</rscale>
<asrwt>0</asrwt>
<pdfrwt beam="2">  1        3 0.83901281E-02 0.13073680E+03</pdfrwt>
<pdfrwt beam="1">  1       -3 0.37678972E-01 0.13073680E+03</pdfrwt>
<totfact> 0.15701623E+03</totfact>
</mgrwt>
</event>
<event>
 6    1  0.7457796E-006  0.1364700E+03  0.7546771E-02  0.1229974E+00
         -1   -1    0    0    0  501 -0.00000000000E+00  0.00000000000E+00  0.40739017288E+03  0.40739017288E+03  0.00000000000E+00 0.  1.
          1   -1    0    0  501    0  0.00000000000E+00 -0.00000000000E+00 -0.50562315694E+02  0.50562315694E+02  0.00000000000E+00 0. -1.
          5    1    1    2  502    0 -0.85556655504E+01  0.93823781921E+01 -0.91673489779E+01  0.16351107633E+02  0.47000000000E+01 0.  1.
         -5    1    1    2    0  502 -0.24359752121E+02  0.34387971045E+02  0.32432347012E+03  0.32708367943E+03  0.47000000000E+01 0.  1.
        -11    1    1    2    0    0  0.63602749407E+02 -0.27506344299E+02  0.39397650531E+02  0.79712505770E+02  0.00000000000E+00 0.  1.
         11    1    1    2    0    0 -0.30687331735E+02 -0.16264004938E+02  0.22740855082E+01  0.34805195741E+02  0.00000000000E+00 0. -1.
<mgrwt>
<rscale>  0 0.12831728E+03</rscale>
<asrwt>0</asrwt>
<pdfrwt beam="2">  1        1 0.77788181E-02 0.13647004E+03</pdfrwt>
<pdfrwt beam="1">  1       -1 0.62675409E-01 0.13647004E+03</pdfrwt>
<totfact> 0.23374970E+03</totfact>
</mgrwt>
</event>
<event>
 6    1  0.7457796E-006  0.1470032E+03  0.7546771E-02  0.1213420E+00
          1   -1    0    0  501    0  0.00000000000E+00  0.00000000000E+00  0.48470865789E+02  0.48470865789E+02  0.00000000000E+00 0. -1.
         -1   -1    0    0    0  501 -0.00000000000E+00 -0.00000000000E+00 -0.40025700896E+03  0.40025700896E+03  0.00000000000E+00 0.  1.
          5    1    1    2  502    0  0.65667444007E+02 -0.58242662225E+02 -0.11561382602E+03  0.14523452645E+03  0.47000000000E+01 0. -1.
         -5    1    1    2    0  502  0.13402613918E+02  0.51272386012E+02 -0.13804375192E+03  0.14794139067E+03  0.47000000000E+01 0.  1.
        -11    1    1    2    0    0 -0.24151729076E+02  0.40795299865E+02 -0.13783139930E+02  0.49371423463E+02  0.00000000000E+00 0.  1.
         11    1    1    2    0    0 -0.54918328849E+02 -0.33825023651E+02 -0.84345425293E+02  0.10618053417E+03  0.00000000000E+00 0. -1.
<mgrwt>
<rscale>  0 0.13993204E+03</rscale>
<asrwt>0</asrwt>
<pdfrwt beam="1">  1        1 0.74570560E-02 0.14700324E+03</pdfrwt>
<pdfrwt beam="2">  1       -1 0.61578003E-01 0.14700324E+03</pdfrwt>
<totfact> 0.25685698E+03</totfact>
</mgrwt>
</event>
<event>
 6    1  0.7457796E-006  0.1545702E+03  0.7546771E-02  0.1204771E+00
          1   -1    0    0  501    0  0.00000000000E+00  0.00000000000E+00  0.52861618111E+02  0.52861618111E+02  0.00000000000E+00 0. -1.
         -1   -1    0    0    0  501 -0.00000000000E+00 -0.00000000000E+00 -0.43537235309E+03  0.43537235309E+03  0.00000000000E+00 0.  1.
          5    1    1    2  502    0 -0.31326726461E+02 -0.14318963168E+02 -0.51082235253E+02  0.61789005943E+02  0.47000000000E+01 0. -1.
         -5    1    1    2    0  502  0.94549849247E+02  0.71129599280E+02 -0.25194599203E+03  0.27838456636E+03  0.47000000000E+01 0.  1.
        -11    1    1    2    0    0 -0.81629776957E+02 -0.50971926603E+02 -0.40214817822E+02  0.10430143508E+03  0.00000000000E+00 0. -1.
         11    1    1    2    0    0  0.18406654171E+02 -0.58387095084E+01 -0.39267689879E+02  0.43758963823E+02  0.00000000000E+00 0.  1.
<mgrwt>
<rscale>  0 0.14655488E+03</rscale>
<asrwt>0</asrwt>
<pdfrwt beam="1">  1        1 0.81325564E-02 0.15457022E+03</pdfrwt>
<pdfrwt beam="2">  1       -1 0.66980364E-01 0.15457022E+03</pdfrwt>
<totfact> 0.19465229E+03</totfact>
</mgrwt>
</event>
<event>
 6    1  0.7457796E-006  0.1498769E+03  0.7546771E-02  0.1206240E+00
          2   -1    0    0  501    0  0.00000000000E+00  0.00000000000E+00  0.75920588992E+03  0.75920588992E+03  0.00000000000E+00 0. -1.
         -2   -1    0    0    0  501 -0.00000000000E+00 -0.00000000000E+00 -0.29447602115E+02  0.29447602115E+02  0.00000000000E+00 0.  1.
          5    1    1    2  502    0 -0.51712680426E+01  0.15727383303E+02  0.13632390678E+03  0.13740593203E+03  0.47000000000E+01 0. -1.
         -5    1    1    2    0  502 -0.40081846390E+02 -0.96989897757E+02  0.11969095330E+03  0.15925328562E+03  0.47000000000E+01 0.  1.
        -11    1    1    2    0    0  0.64788533226E+02  0.88436581264E+02  0.35853254997E+03  0.37491888767E+03  0.00000000000E+00 0. -1.
         11    1    1    2    0    0 -0.19535418794E+02 -0.71740668101E+01  0.11521087775E+03  0.11707538671E+03  0.00000000000E+00 0.  1.
<mgrwt>
<rscale>  0 0.14540147E+03</rscale>
<asrwt>0</asrwt>
<pdfrwt beam="1">  1        2 0.11680089E+00 0.14987689E+03</pdfrwt>
<pdfrwt beam="2">  1       -2 0.45304009E-02 0.14987689E+03</pdfrwt>
<totfact> 0.83480688E+03</totfact>
</mgrwt>
</event>
<event>
 6    1  0.7457796E-006  0.2903180E+03  0.7546771E-02  0.1091843E+00
         -1   -1    0    0    0  501 -0.00000000000E+00  0.00000000000E+00  0.68443981092E+03  0.68443981092E+03  0.00000000000E+00 0.  1.
          1   -1    0    0  501    0  0.00000000000E+00 -0.00000000000E+00 -0.14406319968E+03  0.14406319968E+03  0.00000000000E+00 0. -1.
          5    1    1    2  502    0  0.57880328019E+02  0.16433334737E+03  0.35373876267E+03  0.39434602020E+03  0.47000000000E+01 0. -1.
         -5    1    1    2    0  502  0.89122991104E+02  0.52574128369E+02  0.97711214930E+02  0.14239563912E+03  0.47000000000E+01 0. -1.
        -11    1    1    2    0    0 -0.10760788949E+03 -0.20922529583E+03  0.89215342841E+02  0.25162285209E+03  0.00000000000E+00 0. -1.
         11    1    1    2    0    0 -0.39395429635E+02 -0.76821799085E+01 -0.28870920326E+00  0.40138499191E+02  0.00000000000E+00 0.  1.
<mgrwt>
<rscale>  0 0.28715698E+03</rscale>
<asrwt>0</asrwt>
<pdfrwt beam="2">  1        1 0.22163570E-01 0.29031797E+03</pdfrwt>
<pdfrwt beam="1">  1       -1 0.10529843E+00 0.29031797E+03</pdfrwt>
<totfact> 0.20113799E+02</totfact>
</mgrwt>
</event>
<event>
 6    1  0.7457796E-006  0.1291036E+03  0.7546771E-02  0.1244669E+00
         -2   -1    0    0    0  501 -0.00000000000E+00  0.00000000000E+00  0.53843171329E+02  0.53843171329E+02  0.00000000000E+00 0.  1.
          2   -1    0    0  501    0  0.00000000000E+00 -0.00000000000E+00 -0.24687570606E+03  0.24687570606E+03  0.00000000000E+00 0. -1.
          5    1    1    2  502    0 -0.42674248333E+02 -0.41554116779E+02 -0.16193305154E+02  0.61904355452E+02  0.47000000000E+01 0. -1.
         -5    1    1    2    0  502  0.18183180903E+02  0.62601281703E+02 -0.55664583355E+02  0.85849777977E+02  0.47000000000E+01 0. -1.
        -11    1    1    2    0    0  0.33564766921E+02  0.16832709930E+01 -0.46851638049E+01  0.33931957497E+02  0.00000000000E+00 0.  1.
         11    1    1    2    0    0 -0.90736994906E+01 -0.22730435918E+02 -0.11648948242E+03  0.11903278647E+03  0.00000000000E+00 0. -1.
<mgrwt>
<rscale>  0 0.11905196E+03</rscale>
<asrwt>0</asrwt>
<pdfrwt beam="2">  1        2 0.37980878E-01 0.12910355E+03</pdfrwt>
<pdfrwt beam="1">  1       -2 0.82835647E-02 0.12910355E+03</pdfrwt>
<totfact> 0.11358428E+04</totfact>
</mgrwt>
</event>
<event>
 6    1  0.7457796E-006  0.2355703E+03  0.7546771E-02  0.1125529E+00
          2   -1    0    0  501    0  0.00000000000E+00  0.00000000000E+00  0.14978719160E+04  0.14978719160E+04  0.00000000000E+00 0.  1.
         -2   -1    0    0    0  501 -0.00000000000E+00 -0.00000000000E+00 -0.36549603895E+02  0.36549603895E+02  0.00000000000E+00 0. -1.
          5    1    1    2  502    0  0.19680363661E+03  0.79786959424E+02  0.57147799719E+03  0.60967763740E+03  0.47000000000E+01 0. -1.
         -5    1    1    2    0  502 -0.11506154659E+02 -0.54163934795E+01  0.77399000205E+01  0.15611693236E+02  0.47000000000E+01 0. -1.
        -11    1    1    2    0    0 -0.61200581819E+02 -0.60598337925E+02  0.49358323208E+03  0.50104099310E+03  0.00000000000E+00 0.  1.
         11    1    1    2    0    0 -0.12409690013E+03 -0.13772228020E+02  0.38852118284E+03  0.40809119618E+03  0.00000000000E+00 0. -1.
<mgrwt>
<rscale>  0 0.23158522E+03</rscale>
<asrwt>0</asrwt>
<pdfrwt beam="1">  1        2 0.23044179E+00 0.23557032E+03</pdfrwt>
<pdfrwt beam="2">  1       -2 0.56230171E-02 0.23557032E+03</pdfrwt>
<totfact> 0.22387362E+03</totfact>
</mgrwt>
</event>
<event>
 6    1  0.7457796E-006  0.1346264E+03  0.7546771E-02  0.1233536E+00
          1   -1    0    0  501    0  0.00000000000E+00  0.00000000000E+00  0.65120476135E+02  0.65120476135E+02  0.00000000000E+00 0. -1.
         -1   -1    0    0    0  501 -0.00000000000E+00 -0.00000000000E+00 -0.22303454761E+03  0.22303454761E+03  0.00000000000E+00 0.  1.
          5    1    1    2  502    0 -0.21043284619E+02 -0.32363457741E+02 -0.13731182239E+03  0.14271243741E+03  0.47000000000E+01 0. -1.
         -5    1    1    2    0  502 -0.19702623720E+02  0.34377240487E+01  0.25178090912E+02  0.32496731990E+02  0.47000000000E+01 0. -1.
        -11    1    1    2    0    0  0.19001445859E+02  0.37412719121E+01 -0.69458598359E+02  0.72107897946E+02  0.00000000000E+00 0.  1.
         11    1    1    2    0    0  0.21744462480E+02  0.25184461781E+02  0.23678258360E+02  0.40837956397E+02  0.00000000000E+00 0. -1.
<mgrwt>
<rscale>  0 0.12598596E+03</rscale>
<asrwt>0</asrwt>
<pdfrwt beam="1">  1        1 0.10018535E-01 0.13462644E+03</pdfrwt>
<pdfrwt beam="2">  1       -1 0.34313008E-01 0.13462644E+03</pdfrwt>
<totfact> 0.49415542E+03</totfact>
</mgrwt>
</event>
<event>
 6    1  0.7457796E-006  0.1256317E+03  0.7546771E-02  0.1245051E+00
          1   -1    0    0  501    0  0.00000000000E+00  0.00000000000E+00  0.10788948289E+03  0.10788948289E+03  0.00000000000E+00 0. -1.
         -1   -1    0    0    0  501 -0.00000000000E+00 -0.00000000000E+00 -0.11858844951E+03  0.11858844951E+03  0.00000000000E+00 0.  1.
          5    1    1    2  502    0 -0.24706566394E+02  0.65346340038E+02  0.28630277950E+02  0.75646159155E+02  0.47000000000E+01 0. -1.
         -5    1    1    2    0  502  0.51080861175E+01 -0.33129397694E+02 -0.37174075075E+02  0.50275753531E+02  0.47000000000E+01 0.  1.
        -11    1    1    2    0    0  0.17213310276E+02 -0.63832075062E+02 -0.12342597240E+02  0.67254528204E+02  0.00000000000E+00 0.  1.
         11    1    1    2    0    0  0.23851700007E+01  0.31615132718E+02  0.10187427749E+02  0.33301491511E+02  0.00000000000E+00 0. -1.
<mgrwt>
<rscale>  0 0.11882329E+03</rscale>
<asrwt>0</asrwt>
<pdfrwt beam="1">  1        1 0.16598382E-01 0.12563173E+03</pdfrwt>
<pdfrwt beam="2">  1       -1 0.18244377E-01 0.12563173E+03</pdfrwt>
<totfact> 0.71894287E+03</totfact>
</mgrwt>
</event>
<event>
 6    1  0.7457796E-006  0.6241724E+03  0.7546771E-02  0.9856487E-01
         -2   -1    0    0    0  501 -0.00000000000E+00  0.00000000000E+00  0.18598625448E+03  0.18598625448E+03  0.00000000000E+00 0.  1.
          2   -1    0    0  501    0  0.00000000000E+00 -0.00000000000E+00 -0.52368271163E+03  0.52368271163E+03  0.00000000000E+00 0. -1.
          5    1    1    2  502    0 -0.53352900633E+02 -0.10827980256E+03  0.47712447972E+02  0.12988308335E+03  0.47000000000E+01 0.  1.
         -5    1    1    2    0  502 -0.33947244424E+02  0.17399208207E+02  0.80101578877E+02  0.88845375731E+02  0.47000000000E+01 0.  1.
        -11    1    1    2    0    0  0.56375602201E+01  0.68247089690E+02 -0.16338074471E+03  0.17715167253E+03  0.00000000000E+00 0.  1.
         11    1    1    2    0    0  0.81662584836E+02  0.22633504661E+02 -0.30212973929E+03  0.31378883451E+03  0.00000000000E+00 0. -1.
<mgrwt>
<rscale>  0 0.62417237E+03</rscale>
<asrwt>0</asrwt>
<pdfrwt beam="2">  1        2 0.80566571E-01 0.62417237E+03</pdfrwt>
<pdfrwt beam="1">  1       -2 0.28613270E-01 0.62417237E+03</pdfrwt>
<totfact> 0.65677740E+02</totfact>
</mgrwt>
</event>
<event>
 6    1  0.7457796E-006  0.1311966E+03  0.7546771E-02  0.1238689E+00
         -1   -1    0    0    0  501 -0.00000000000E+00  0.00000000000E+00  0.27112047997E+03  0.27112047997E+03  0.00000000000E+00 0.  1.
          1   -1    0    0  501    0  0.00000000000E+00 -0.00000000000E+00 -0.62351224358E+02  0.62351224358E+02  0.00000000000E+00 0. -1.
          5    1    1    2  502    0 -0.57788892138E+02 -0.78763804875E+01  0.99180015556E+02  0.11515363177E+03  0.47000000000E+01 0. -1.
         -5    1    1    2    0  502  0.64375157639E+02 -0.31422610516E+02  0.91484864540E+02  0.11628891526E+03  0.47000000000E+01 0. -1.
        -11    1    1    2    0    0  0.36799907001E+02 -0.56133327556E+01  0.81656775561E+00  0.37234519505E+02  0.00000000000E+00 0.  1.
         11    1    1    2    0    0 -0.43386172501E+02  0.44912323759E+02  0.17287807763E+02  0.64794637795E+02  0.00000000000E+00 0. -1.
<mgrwt>
<rscale>  0 0.12271180E+03</rscale>
<asrwt>0</asrwt>
<pdfrwt beam="2">  1        1 0.95924962E-02 0.13119663E+03</pdfrwt>
<pdfrwt beam="1">  1       -1 0.41710842E-01 0.13119663E+03</pdfrwt>
<totfact> 0.37237868E+03</totfact>
</mgrwt>
</event>
<event>
 6    1  0.7457796E-006  0.1898800E+03  0.7546771E-02  0.1163278E+00
          2   -1    0    0  501    0  0.00000000000E+00  0.00000000000E+00  0.81294991210E+03  0.81294991210E+03  0.00000000000E+00 0. -1.
         -2   -1    0    0    0  501 -0.00000000000E+00 -0.00000000000E+00 -0.47839513006E+02  0.47839513006E+02  0.00000000000E+00 0.  1.
          5    1    1    2  502    0 -0.14740502292E+03  0.43987185300E+02  0.18811507781E+03  0.24304831979E+03  0.47000000000E+01 0. -1.
         -5    1    1    2    0  502  0.23204968294E+02  0.26743024307E+02  0.36445348915E+02  0.51029534194E+02  0.47000000000E+01 0. -1.
        -11    1    1    2    0    0  0.56315084715E+01 -0.40234898421E+02  0.74590633417E+02  0.84937174030E+02  0.00000000000E+00 0. -1.
         11    1    1    2    0    0  0.11856854615E+03 -0.30495311185E+02  0.46595933895E+03  0.48177439709E+03  0.00000000000E+00 0.  1.
<mgrwt>
<rscale>  0 0.18475605E+03</rscale>
<asrwt>0</asrwt>
<pdfrwt beam="1">  1        2 0.12506921E+00 0.18987996E+03</pdfrwt>
<pdfrwt beam="2">  1       -2 0.73599257E-02 0.18987996E+03</pdfrwt>
<totfact> 0.36997116E+03</totfact>
</mgrwt>
</event>
<event>
 6    1  0.7457796E-006  0.1526932E+03  0.7546771E-02  0.1205670E+00
         -3   -1    0    0    0  501 -0.00000000000E+00  0.00000000000E+00  0.31813643112E+03  0.31813643112E+03  0.00000000000E+00 0.  1.
          3   -1    0    0  501    0  0.00000000000E+00 -0.00000000000E+00 -0.13213833339E+03  0.13213833339E+03  0.00000000000E+00 0. -1.
          5    1    1    2  502    0 -0.21641491736E+02 -0.15166071932E+02  0.19582194553E+03  0.19765294902E+03  0.47000000000E+01 0.  1.
         -5    1    1    2    0  502 -0.51329895080E+02  0.63836270450E+02  0.65405440082E+02  0.10492754236E+03  0.47000000000E+01 0.  1.
        -11    1    1    2    0    0  0.88198873917E+02 -0.16947930450E+02 -0.41446236645E+02  0.98914428870E+02  0.00000000000E+00 0.  1.
         11    1    1    2    0    0 -0.15227487100E+02 -0.31722268068E+02 -0.33783051239E+02  0.48779844257E+02  0.00000000000E+00 0. -1.
<mgrwt>
<rscale>  0 0.14584792E+03</rscale>
<asrwt>0</asrwt>
<pdfrwt beam="2">  1        3 0.20328974E-01 0.15269318E+03</pdfrwt>
<pdfrwt beam="1">  1       -3 0.48944066E-01 0.15269318E+03</pdfrwt>
<totfact> 0.21542505E+02</totfact>
</mgrwt>
</event>
<event>
 6    1  0.7457796E-006  0.2256808E+03  0.7546771E-02  0.1147405E+00
          1   -1    0    0  501    0  0.00000000000E+00  0.00000000000E+00  0.39205484460E+03  0.39205484460E+03  0.00000000000E+00 0. -1.
         -1   -1    0    0    0  501 -0.00000000000E+00 -0.00000000000E+00 -0.12197977434E+03  0.12197977434E+03  0.00000000000E+00 0.  1.
          5    1    1    2  502    0 -0.53855294699E+02 -0.32673656187E+02  0.81353220481E+02  0.10299707306E+03  0.47000000000E+01 0. -1.
         -5    1    1    2    0  502 -0.92280006904E+01  0.10908026972E+03 -0.57849279419E+02  0.12390435976E+03  0.47000000000E+01 0.  1.
        -11    1    1    2    0    0  0.48538286578E+02 -0.91095712551E+02  0.24563368737E+03  0.26644005420E+03  0.00000000000E+00 0. -1.
         11    1    1    2    0    0  0.14545008812E+02  0.14689099020E+02  0.93744182857E+00  0.20693131917E+02  0.00000000000E+00 0.  1.
<mgrwt>
<rscale>  0 0.20279094E+03</rscale>
<asrwt>0</asrwt>
<pdfrwt beam="1">  1        1 0.60316129E-01 0.22568080E+03</pdfrwt>
<pdfrwt beam="2">  1       -1 0.18766119E-01 0.22568080E+03</pdfrwt>
<totfact> 0.13879061E+03</totfact>
</mgrwt>
</event>
<event>
 6    1  0.7457796E-006  0.2147089E+03  0.7546771E-02  0.1141360E+00
         -2   -1    0    0    0  501 -0.00000000000E+00  0.00000000000E+00  0.98542297138E+02  0.98542297138E+02  0.00000000000E+00 0.  1.
          2   -1    0    0  501    0  0.00000000000E+00 -0.00000000000E+00 -0.44671879252E+03  0.44671879252E+03  0.00000000000E+00 0. -1.
          5    1    1    2  502    0 -0.66534502306E+02 -0.35782665791E+02 -0.12974599533E+03  0.15021102647E+03  0.47000000000E+01 0.  1.
         -5    1    1    2    0  502 -0.72245184676E+02 -0.70121861350E+02 -0.25993462985E+00  0.10078987903E+03  0.47000000000E+01 0.  1.
        -11    1    1    2    0    0  0.95094966229E+02  0.11524725456E+03 -0.14300834086E+03  0.20682448560E+03  0.00000000000E+00 0.  1.
         11    1    1    2    0    0  0.43684720754E+02 -0.93427274205E+01 -0.75162224555E+02  0.87435698563E+02  0.00000000000E+00 0. -1.
<mgrwt>
<rscale>  0 0.21026046E+03</rscale>
<asrwt>0</asrwt>
<pdfrwt beam="2">  1        2 0.68725968E-01 0.21470890E+03</pdfrwt>
<pdfrwt beam="1">  1       -2 0.15160353E-01 0.21470890E+03</pdfrwt>
<totfact> 0.23553155E+03</totfact>
</mgrwt>
</event>
<event>
 6    1  0.7457796E-006  0.1421465E+03  0.7546771E-02  0.1223858E+00
          2   -1    0    0  501    0  0.00000000000E+00  0.00000000000E+00  0.13621753800E+03  0.13621753800E+03  0.00000000000E+00 0. -1.
         -2   -1    0    0    0  501 -0.00000000000E+00 -0.00000000000E+00 -0.11502364046E+03  0.11502364046E+03  0.00000000000E+00 0.  1.
          5    1    1    2  502    0  0.30506783976E+02  0.91391119629E+02 -0.21283754881E+02  0.98783039220E+02  0.47000000000E+01 0. -1.
         -5    1    1    2    0  502  0.48153966642E+01 -0.36717052052E+02  0.22071711777E+02  0.43365659423E+02  0.47000000000E+01 0.  1.
        -11    1    1    2    0    0  0.12395697793E+02  0.15629539317E+02 -0.46966434450E+01  0.20493762043E+02  0.00000000000E+00 0. -1.
         11    1    1    2    0    0 -0.47717878434E+02 -0.70303606894E+02  0.25102584089E+02  0.88598717781E+02  0.00000000000E+00 0.  1.
<mgrwt>
<rscale>  0 0.13245472E+03</rscale>
<asrwt>0</asrwt>
<pdfrwt beam="1">  1        2 0.20956544E-01 0.14214651E+03</pdfrwt>
<pdfrwt beam="2">  1       -2 0.17695945E-01 0.14214651E+03</pdfrwt>
<totfact> 0.64935798E+03</totfact>
</mgrwt>
</event>
<event>
 6    1  0.7457796E-006  0.1283383E+03  0.7546771E-02  0.1243191E+00
          1   -1    0    0  501    0  0.00000000000E+00  0.00000000000E+00  0.33089129516E+03  0.33089129516E+03  0.00000000000E+00 0. -1.
         -1   -1    0    0    0  501 -0.00000000000E+00 -0.00000000000E+00 -0.46332985319E+02  0.46332985319E+02  0.00000000000E+00 0.  1.
          5    1    1    2  502    0  0.38382950170E+02 -0.88497722778E+00  0.75742405282E+02  0.85047257489E+02  0.47000000000E+01 0. -1.
         -5    1    1    2    0  502 -0.66247153254E+02  0.90492599819E+01  0.64103409185E+01  0.67333178234E+02  0.47000000000E+01 0. -1.
        -11    1    1    2    0    0  0.43749863554E+02 -0.37678576364E+02  0.85060675693E+02  0.10280585697E+03  0.00000000000E+00 0.  1.
         11    1    1    2    0    0 -0.15885660470E+02  0.29514293610E+02  0.11734488794E+03  0.12203798778E+03  0.00000000000E+00 0. -1.
<mgrwt>
<rscale>  0 0.11994334E+03</rscale>
<asrwt>0</asrwt>
<pdfrwt beam="1">  1        1 0.50906352E-01 0.12833832E+03</pdfrwt>
<pdfrwt beam="2">  1       -1 0.71281518E-02 0.12833832E+03</pdfrwt>
<totfact> 0.75362323E+03</totfact>
</mgrwt>
</event>
<event>
 6    1  0.7457796E-006  0.1295623E+03  0.7546771E-02  0.1241480E+00
          1   -1    0    0  501    0  0.00000000000E+00  0.00000000000E+00  0.21698371522E+03  0.21698371522E+03  0.00000000000E+00 0. -1.
         -1   -1    0    0    0  501 -0.00000000000E+00 -0.00000000000E+00 -0.73345334040E+02  0.73345334040E+02  0.00000000000E+00 0.  1.
          5    1    1    2  502    0  0.46159088196E+02 -0.55870708061E+02 -0.52788088330E+01  0.72815886076E+02  0.47000000000E+01 0. -1.
         -5    1    1    2    0  502 -0.12380070498E+02  0.51374560795E+02  0.23484962508E+02  0.58019351138E+02  0.47000000000E+01 0. -1.
        -11    1    1    2    0    0 -0.31484806241E+02 -0.10864667560E+02  0.13644699028E+03  0.14045324910E+03  0.00000000000E+00 0. -1.
         11    1    1    2    0    0 -0.22942114576E+01  0.15360814825E+02 -0.11014762778E+02  0.19040562948E+02  0.00000000000E+00 0.  1.
<mgrwt>
<rscale>  0 0.12098560E+03</rscale>
<asrwt>0</asrwt>
<pdfrwt beam="1">  1        1 0.33382110E-01 0.12956232E+03</pdfrwt>
<pdfrwt beam="2">  1       -1 0.11283898E-01 0.12956232E+03</pdfrwt>
<totfact> 0.63317626E+03</totfact>
</mgrwt>
</event>
<event>
 6    1  0.7457796E-006  0.1306319E+03  0.7546771E-02  0.1236362E+00
         -1   -1    0    0    0  501 -0.00000000000E+00  0.00000000000E+00  0.27297632930E+03  0.27297632930E+03  0.00000000000E+00 0.  1.
          1   -1    0    0  501    0  0.00000000000E+00 -0.00000000000E+00 -0.10772196877E+03  0.10772196877E+03  0.00000000000E+00 0. -1.
          5    1    1    2  502    0 -0.67715784777E+02 -0.24355554429E+01  0.79554787557E+02  0.10460599247E+03  0.47000000000E+01 0. -1.
         -5    1    1    2    0  502  0.54595387634E+02 -0.84665705883E+01  0.14416267458E+03  0.15445810406E+03  0.47000000000E+01 0.  1.
        -11    1    1    2    0    0  0.28412361096E+02  0.26298595083E+02  0.17605910285E+02  0.42530535423E+02  0.00000000000E+00 0.  1.
         11    1    1    2    0    0 -0.15291963953E+02 -0.15396469052E+02 -0.76069011893E+02  0.79103666105E+02  0.00000000000E+00 0. -1.
<mgrwt>
<rscale>  0 0.12417673E+03</rscale>
<asrwt>0</asrwt>
<pdfrwt beam="2">  1        1 0.16572611E-01 0.13063194E+03</pdfrwt>
<pdfrwt beam="1">  1       -1 0.41996358E-01 0.13063194E+03</pdfrwt>
<totfact> 0.18004993E+03</totfact>
</mgrwt>
</event>
<event>
 6    1  0.7457796E-006  0.1381306E+03  0.7546771E-02  0.1227724E+00
         -2   -1    0    0    0  501 -0.00000000000E+00  0.00000000000E+00  0.25434875562E+02  0.25434875562E+02  0.00000000000E+00 0.  1.
          2   -1    0    0  501    0  0.00000000000E+00 -0.00000000000E+00 -0.62788759905E+03  0.62788759905E+03  0.00000000000E+00 0. -1.
          5    1    1    2  502    0  0.23740255019E+02 -0.24766525497E+02 -0.24487408769E+02  0.42411126863E+02  0.47000000000E+01 0. -1.
         -5    1    1    2    0  502 -0.33873886341E+02  0.82658095342E+02 -0.23696645131E+03  0.25328835336E+03  0.47000000000E+01 0. -1.
        -11    1    1    2    0    0 -0.37688198876E+02 -0.20915096170E+02 -0.19300532225E+03  0.19775969255E+03  0.00000000000E+00 0.  1.
         11    1    1    2    0    0  0.47821830197E+02 -0.36976473675E+02 -0.14799354116E+03  0.15986330184E+03  0.00000000000E+00 0. -1.
<mgrwt>
<rscale>  0 0.12981954E+03</rscale>
<asrwt>0</asrwt>
<pdfrwt beam="2">  1        2 0.96598093E-01 0.13813060E+03</pdfrwt>
<pdfrwt beam="1">  1       -2 0.39130578E-02 0.13813060E+03</pdfrwt>
<totfact> 0.12944251E+04</totfact>
</mgrwt>
</event>
<event>
 6    1  0.7457796E-006  0.1704319E+03  0.7546771E-02  0.1183974E+00
          1   -1    0    0  501    0  0.00000000000E+00  0.00000000000E+00  0.99270381318E+03  0.99270381318E+03  0.00000000000E+00 0. -1.
         -1   -1    0    0    0  501 -0.00000000000E+00 -0.00000000000E+00 -0.26058953423E+02  0.26058953423E+02  0.00000000000E+00 0.  1.
          5    1    1    2  502    0  0.11124902755E+03 -0.34354809114E-01  0.26002280658E+03  0.28286091504E+03  0.47000000000E+01 0.  1.
         -5    1    1    2    0  502 -0.10294569204E+02 -0.56803436143E+02  0.17611004154E+03  0.18538998151E+03  0.47000000000E+01 0.  1.
        -11    1    1    2    0    0 -0.11098479625E+03  0.25888199468E+02  0.39199030928E+03  0.40822080599E+03  0.00000000000E+00 0. -1.
         11    1    1    2    0    0  0.10030337911E+02  0.30949591485E+02  0.13852170235E+03  0.14229106407E+03  0.00000000000E+00 0.  1.
<mgrwt>
<rscale>  0 0.16425590E+03</rscale>
<asrwt>0</asrwt>
<pdfrwt beam="1">  1        1 0.15272363E+00 0.17043192E+03</pdfrwt>
<pdfrwt beam="2">  1       -1 0.40090705E-02 0.17043192E+03</pdfrwt>
<totfact> 0.39181754E+03</totfact>
</mgrwt>
</event>
<event>
 6    1  0.7457796E-006  0.1474350E+03  0.7546771E-02  0.1224399E+00
         -1   -1    0    0    0  501 -0.00000000000E+00  0.00000000000E+00  0.60083859856E+02  0.60083859856E+02  0.00000000000E+00 0.  1.
          1   -1    0    0  501    0  0.00000000000E+00 -0.00000000000E+00 -0.31624476233E+03  0.31624476233E+03  0.00000000000E+00 0. -1.
          5    1    1    2  502    0  0.34898976643E+02 -0.58131901845E+02 -0.30492960841E+02  0.74492732824E+02  0.47000000000E+01 0. -1.
         -5    1    1    2    0  502 -0.65596646757E+02  0.44520004965E+02 -0.31025327803E+02  0.85262018937E+02  0.47000000000E+01 0.  1.
        -11    1    1    2    0    0 -0.23717759727E+02  0.61672732265E+01 -0.15022206488E+02  0.28744287664E+02  0.00000000000E+00 0.  1.
         11    1    1    2    0    0  0.54415429842E+02  0.74446236531E+01 -0.17962040734E+03  0.18782958276E+03  0.00000000000E+00 0. -1.
<mgrwt>
<rscale>  0 0.13208157E+03</rscale>
<asrwt>0</asrwt>
<pdfrwt beam="2">  1        1 0.48653041E-01 0.14743501E+03</pdfrwt>
<pdfrwt beam="1">  1       -1 0.92436707E-02 0.14743501E+03</pdfrwt>
<totfact> 0.54311508E+03</totfact>
</mgrwt>
</event>
<event>
 6    1  0.7457796E-006  0.1485810E+03  0.7546771E-02  0.1212062E+00
          4   -1    0    0  501    0  0.00000000000E+00  0.00000000000E+00  0.89167479234E+03  0.89167479234E+03  0.00000000000E+00 0. -1.
         -4   -1    0    0    0  501 -0.00000000000E+00 -0.00000000000E+00 -0.20694968619E+02  0.20694968619E+02  0.00000000000E+00 0.  1.
          5    1    1    2  502    0  0.89455893881E+02 -0.45681736521E+02  0.24216020190E+03  0.26220761123E+03  0.47000000000E+01 0. -1.
         -5    1    1    2    0  502 -0.40770835619E+02 -0.18204285032E+02  0.17332260803E+03  0.17904321680E+03  0.47000000000E+01 0. -1.
        -11    1    1    2    0    0 -0.26929736026E+02  0.84817053400E+02  0.36616886840E+03  0.37682725939E+03  0.00000000000E+00 0. -1.
         11    1    1    2    0    0 -0.21755322237E+02 -0.20931031848E+02  0.89328145392E+02  0.94291673540E+02  0.00000000000E+00 0.  1.
<mgrwt>
<rscale>  0 0.14094570E+03</rscale>
<asrwt>0</asrwt>
<pdfrwt beam="1">  1        4 0.13718071E+00 0.14858105E+03</pdfrwt>
<pdfrwt beam="2">  1       -4 0.31838420E-02 0.14858105E+03</pdfrwt>
<totfact> 0.33251554E+02</totfact>
</mgrwt>
</event>
<event>
 6    1  0.7457796E-006  0.3208817E+03  0.7546771E-02  0.1075244E+00
          1   -1    0    0  501    0  0.00000000000E+00  0.00000000000E+00  0.10441820032E+03  0.10441820032E+03  0.00000000000E+00 0. -1.
         -1   -1    0    0    0  501 -0.00000000000E+00 -0.00000000000E+00 -0.24652093990E+03  0.24652093990E+03  0.00000000000E+00 0.  1.
          5    1    1    2  502    0 -0.70898485737E+01  0.29745500894E+02 -0.42398660658E+01  0.31227027404E+02  0.47000000000E+01 0.  1.
         -5    1    1    2    0  502 -0.49502616238E+02 -0.94137042527E+02 -0.16084276518E+03  0.19288539836E+03  0.47000000000E+01 0.  1.
        -11    1    1    2    0    0  0.23985503548E+02  0.55171429803E+02 -0.27404601037E+02  0.66107512469E+02  0.00000000000E+00 0.  1.
         11    1    1    2    0    0  0.32606961264E+02  0.92201118305E+01  0.50384492703E+02  0.60719201987E+02  0.00000000000E+00 0. -1.
<mgrwt>
<rscale>  0 0.32088174E+03</rscale>
<asrwt>0</asrwt>
<pdfrwt beam="1">  1        1 0.16064339E-01 0.32088174E+03</pdfrwt>
<pdfrwt beam="2">  1       -1 0.37926298E-01 0.32088174E+03</pdfrwt>
<totfact> 0.23135568E+03</totfact>
</mgrwt>
</event>
<event>
 6    1  0.7457796E-006  0.1392297E+03  0.7546771E-02  0.1225689E+00
          3   -1    0    0  501    0  0.00000000000E+00  0.00000000000E+00  0.12929297919E+03  0.12929297919E+03  0.00000000000E+00 0. -1.
         -3   -1    0    0    0  501 -0.00000000000E+00 -0.00000000000E+00 -0.12000821452E+03  0.12000821452E+03  0.00000000000E+00 0.  1.
          5    1    1    2  502    0  0.35181309001E+02  0.29632473094E+02 -0.24642698976E+02  0.52394280007E+02  0.47000000000E+01 0.  1.
         -5    1    1    2    0  502 -0.79133069608E+02  0.13092539519E+02  0.33706078377E+02  0.87130058052E+02  0.47000000000E+01 0.  1.
        -11    1    1    2    0    0  0.52148324465E+02 -0.53045297822E+02 -0.27320352796E+02  0.79244261890E+02  0.00000000000E+00 0.  1.
         11    1    1    2    0    0 -0.81965638584E+01  0.10320285210E+02  0.27541738062E+02  0.30532593754E+02  0.00000000000E+00 0. -1.
<mgrwt>
<rscale>  0 0.13119772E+03</rscale>
<asrwt>0</asrwt>
<pdfrwt beam="1">  1        3 0.19891228E-01 0.13922965E+03</pdfrwt>
<pdfrwt beam="2">  1       -3 0.18462802E-01 0.13922965E+03</pdfrwt>
<totfact> 0.13528390E+03</totfact>
</mgrwt>
</event>
<event>
 6    1  0.7457796E-006  0.1421653E+03  0.7546771E-02  0.1222605E+00
          2   -1    0    0  501    0  0.00000000000E+00  0.00000000000E+00  0.73212329206E+02  0.73212329206E+02  0.00000000000E+00 0. -1.
         -2   -1    0    0    0  501 -0.00000000000E+00 -0.00000000000E+00 -0.23602695966E+03  0.23602695966E+03  0.00000000000E+00 0.  1.
          5    1    1    2  502    0 -0.55051145942E+02 -0.82598359150E+02 -0.10260366337E+03  0.14283808785E+03  0.47000000000E+01 0.  1.
         -5    1    1    2    0  502  0.38294643825E+02  0.16993227284E+02 -0.31850619482E+02  0.52837500703E+02  0.47000000000E+01 0.  1.
        -11    1    1    2    0    0 -0.70770713563E+01  0.80723934482E+02 -0.26586788988E+02  0.85283620267E+02  0.00000000000E+00 0.  1.
         11    1    1    2    0    0  0.23833573473E+02 -0.15118802615E+02 -0.17735586100E+01  0.28280080042E+02  0.00000000000E+00 0. -1.
<mgrwt>
<rscale>  0 0.13332432E+03</rscale>
<asrwt>0</asrwt>
<pdfrwt beam="1">  1        2 0.11263435E-01 0.14216533E+03</pdfrwt>
<pdfrwt beam="2">  1       -2 0.36311840E-01 0.14216533E+03</pdfrwt>
<totfact> 0.37977027E+03</totfact>
</mgrwt>
</event>
<event>
 6    1  0.7457796E-006  0.1794506E+03  0.7546771E-02  0.1174278E+00
          3   -1    0    0  501    0  0.00000000000E+00  0.00000000000E+00  0.45116104004E+03  0.45116104004E+03  0.00000000000E+00 0. -1.
         -3   -1    0    0    0  501 -0.00000000000E+00 -0.00000000000E+00 -0.99738176357E+02  0.99738176357E+02  0.00000000000E+00 0.  1.
          5    1    1    2  502    0 -0.52008036631E+00  0.58163891565E+02 -0.10344869964E+01  0.58364963197E+02  0.47000000000E+01 0.  1.
         -5    1    1    2    0  502  0.12009106982E+03 -0.10404715900E+02  0.16401170682E+02  0.12174239838E+03  0.47000000000E+01 0.  1.
        -11    1    1    2    0    0 -0.54634836958E+02 -0.47805273711E+02  0.26396894628E+03  0.27376981975E+03  0.00000000000E+00 0. -1.
         11    1    1    2    0    0 -0.64936152492E+02  0.46098045953E-01  0.72087233719E+02  0.97022035079E+02  0.00000000000E+00 0.  1.
<mgrwt>
<rscale>  0 0.17346883E+03</rscale>
<asrwt>0</asrwt>
<pdfrwt beam="1">  1        3 0.69409390E-01 0.17945062E+03</pdfrwt>
<pdfrwt beam="2">  1       -3 0.15344335E-01 0.17945062E+03</pdfrwt>
<totfact> 0.17480758E+02</totfact>
</mgrwt>
</event>
<event>
 6    1  0.7457796E-006  0.3480138E+03  0.7546771E-02  0.1063433E+00
          4   -1    0    0  501    0  0.00000000000E+00  0.00000000000E+00  0.20873709939E+03  0.20873709939E+03  0.00000000000E+00 0. -1.
         -4   -1    0    0    0  501 -0.00000000000E+00 -0.00000000000E+00 -0.14505516451E+03  0.14505516451E+03  0.00000000000E+00 0.  1.
          5    1    1    2  502    0 -0.86423606423E+01  0.25527179842E+02  0.46399827994E+02  0.53864286369E+02  0.47000000000E+01 0.  1.
         -5    1    1    2    0  502 -0.12266967892E+03  0.65989112793E+00 -0.40904713248E+02  0.12939695186E+03  0.47000000000E+01 0.  1.
        -11    1    1    2    0    0  0.50949030038E+02 -0.54661437120E+02  0.21857845647E+02  0.77855261775E+02  0.00000000000E+00 0. -1.
         11    1    1    2    0    0  0.80363009530E+02  0.28474366150E+02  0.36328974485E+02  0.92675763906E+02  0.00000000000E+00 0.  1.
<mgrwt>
<rscale>  0 0.34801376E+03</rscale>
<asrwt>0</asrwt>
<pdfrwt beam="1">  1        4 0.32113400E-01 0.34801376E+03</pdfrwt>
<pdfrwt beam="2">  1       -4 0.22316179E-01 0.34801376E+03</pdfrwt>
<totfact> 0.33174708E+02</totfact>
</mgrwt>
</event>
<event>
 6    1  0.7457796E-006  0.3061368E+03  0.7546771E-02  0.1082213E+00
         -2   -1    0    0    0  501 -0.00000000000E+00  0.00000000000E+00  0.53155792383E+02  0.53155792383E+02  0.00000000000E+00 0.  1.
          2   -1    0    0  501    0  0.00000000000E+00 -0.00000000000E+00 -0.44077844437E+03  0.44077844437E+03  0.00000000000E+00 0. -1.
          5    1    1    2  502    0  0.21743640896E+02  0.71081533297E+01  0.79440316148E+01  0.24667983328E+02  0.47000000000E+01 0.  1.
         -5    1    1    2    0  502 -0.79218441508E+02 -0.83468772732E+02 -0.13593856560E+03  0.17816840661E+03  0.47000000000E+01 0.  1.
        -11    1    1    2    0    0  0.32839369933E+01  0.48963433799E+02 -0.20022442633E+03  0.20615048627E+03  0.00000000000E+00 0. -1.
         11    1    1    2    0    0  0.54190863619E+02  0.27397185603E+02 -0.59403691673E+02  0.84947360543E+02  0.00000000000E+00 0.  1.
<mgrwt>
<rscale>  0 0.30613675E+03</rscale>
<asrwt>0</asrwt>
<pdfrwt beam="2">  1        2 0.67812068E-01 0.30613675E+03</pdfrwt>
<pdfrwt beam="1">  1       -2 0.81778143E-02 0.30613675E+03</pdfrwt>
<totfact> 0.65424230E+03</totfact>
</mgrwt>
</event>
<event>
 6    1  0.7457796E-006  0.1776423E+03  0.7546771E-02  0.1175568E+00
         -1   -1    0    0    0  501 -0.00000000000E+00  0.00000000000E+00  0.27246693994E+03  0.27246693994E+03  0.00000000000E+00 0.  1.
          1   -1    0    0  501    0  0.00000000000E+00 -0.00000000000E+00 -0.11590303152E+03  0.11590303152E+03  0.00000000000E+00 0. -1.
          5    1    1    2  502    0  0.45553877929E+02 -0.71233142992E+02  0.29446252757E+02  0.89657616833E+02  0.47000000000E+01 0.  1.
         -5    1    1    2    0  502 -0.54477409361E+02 -0.54673997636E+02  0.11863654376E+03  0.14161127661E+03  0.47000000000E+01 0.  1.
        -11    1    1    2    0    0 -0.22759988183E+02  0.46296160696E+02 -0.33676742290E+02  0.61607422674E+02  0.00000000000E+00 0. -1.
         11    1    1    2    0    0  0.31683519616E+02  0.79610979931E+02  0.42157854194E+02  0.95493655345E+02  0.00000000000E+00 0.  1.
<mgrwt>
<rscale>  0 0.17220515E+03</rscale>
<asrwt>0</asrwt>
<pdfrwt beam="2">  1        1 0.17831236E-01 0.17764230E+03</pdfrwt>
<pdfrwt beam="1">  1       -1 0.41917991E-01 0.17764230E+03</pdfrwt>
<totfact> 0.16612314E+03</totfact>
</mgrwt>
</event>
<event>
 6    1  0.7457796E-006  0.1287136E+03  0.7546771E-02  0.1244924E+00
         -1   -1    0    0    0  501 -0.00000000000E+00  0.00000000000E+00  0.12930232699E+03  0.12930232699E+03  0.00000000000E+00 0.  1.
          1   -1    0    0  501    0  0.00000000000E+00 -0.00000000000E+00 -0.98248095799E+02  0.98248095799E+02  0.00000000000E+00 0. -1.
          5    1    1    2  502    0  0.69212250420E+02 -0.10287658561E+02  0.20936028998E+02  0.73188652379E+02  0.47000000000E+01 0. -1.
         -5    1    1    2    0  502 -0.55712108586E+02 -0.17419602422E+02  0.15199959888E+02  0.60501325376E+02  0.47000000000E+01 0. -1.
        -11    1    1    2    0    0  0.65923909660E+01 -0.30617387548E+02 -0.71982031894E+01  0.32135621483E+02  0.00000000000E+00 0.  1.
         11    1    1    2    0    0 -0.20092532799E+02  0.58324648532E+02  0.21164454932E+01  0.61724823549E+02  0.00000000000E+00 0. -1.
<mgrwt>
<rscale>  0 0.11889941E+03</rscale>
<asrwt>0</asrwt>
<pdfrwt beam="2">  1        1 0.15115092E-01 0.12871364E+03</pdfrwt>
<pdfrwt beam="1">  1       -1 0.19892666E-01 0.12871364E+03</pdfrwt>
<totfact> 0.70777219E+03</totfact>
</mgrwt>
</event>
<event>
 6    1  0.7457796E-006  0.1250684E+03  0.7546771E-02  0.1250305E+00
          1   -1    0    0  501    0  0.00000000000E+00  0.00000000000E+00  0.16948393171E+03  0.16948393171E+03  0.00000000000E+00 0. -1.
         -1   -1    0    0    0  501 -0.00000000000E+00 -0.00000000000E+00 -0.76509579735E+02  0.76509579735E+02  0.00000000000E+00 0.  1.
          5    1    1    2  502    0  0.28010721450E+02  0.52482186994E+02 -0.59729737711E+01  0.59972884569E+02  0.47000000000E+01 0. -1.
         -5    1    1    2    0  502 -0.32269747375E+02 -0.53236343753E+02  0.21633128872E+02  0.66072136008E+02  0.47000000000E+01 0. -1.
        -11    1    1    2    0    0 -0.41789217086E+02  0.13852866665E+01  0.19785036410E+02  0.46256949203E+02  0.00000000000E+00 0.  1.
         11    1    1    2    0    0  0.46048243011E+02 -0.63112990725E+00  0.57529160465E+02  0.73691541666E+02  0.00000000000E+00 0. -1.
<mgrwt>
<rscale>  0 0.11573407E+03</rscale>
<asrwt>0</asrwt>
<pdfrwt beam="1">  1        1 0.26074451E-01 0.12506841E+03</pdfrwt>
<pdfrwt beam="2">  1       -1 0.11770705E-01 0.12506841E+03</pdfrwt>
<totfact> 0.80457160E+03</totfact>
</mgrwt>
</event>
<event>
 6    1  0.7457796E-006  0.1278134E+03  0.7546771E-02  0.1245372E+00
          2   -1    0    0  501    0  0.00000000000E+00  0.00000000000E+00  0.13985053188E+03  0.13985053188E+03  0.00000000000E+00 0. -1.
         -2   -1    0    0    0  501 -0.00000000000E+00 -0.00000000000E+00 -0.95892582417E+02  0.95892582417E+02  0.00000000000E+00 0.  1.
          5    1    1    2  502    0 -0.49161544797E+01 -0.87896266678E+01 -0.61561237604E+02  0.62556391258E+02  0.47000000000E+01 0. -1.
         -5    1    1    2    0  502  0.65314408096E+01  0.35428235353E+02  0.54446543634E+02  0.65454837048E+02  0.47000000000E+01 0. -1.
        -11    1    1    2    0    0 -0.53611778634E+00 -0.37537631814E+02  0.73634450148E+02  0.82652244211E+02  0.00000000000E+00 0. -1.
         11    1    1    2    0    0 -0.10791685436E+01  0.10899023129E+02 -0.22561806712E+02  0.25079641784E+02  0.00000000000E+00 0.  1.
<mgrwt>
<rscale>  0 0.11863119E+03</rscale>
<asrwt>0</asrwt>
<pdfrwt beam="1">  1        2 0.21515466E-01 0.12781336E+03</pdfrwt>
<pdfrwt beam="2">  1       -2 0.14752705E-01 0.12781336E+03</pdfrwt>
<totfact> 0.84418817E+03</totfact>
</mgrwt>
</event>
<event>
 6    1  0.7457796E-006  0.1511833E+03  0.7546771E-02  0.1208241E+00
          2   -1    0    0  501    0  0.00000000000E+00  0.00000000000E+00  0.15354909881E+03  0.15354909881E+03  0.00000000000E+00 0. -1.
         -2   -1    0    0    0  501 -0.00000000000E+00 -0.00000000000E+00 -0.12464958943E+03  0.12464958943E+03  0.00000000000E+00 0.  1.
          5    1    1    2  502    0  0.56272182278E+02  0.17944168206E+02  0.25327273904E+02  0.64436887528E+02  0.47000000000E+01 0.  1.
         -5    1    1    2    0  502 -0.16600151947E+01 -0.83125197668E+02 -0.24308281604E+02  0.86749851252E+02  0.47000000000E+01 0.  1.
        -11    1    1    2    0    0 -0.32733549200E+02 -0.13102070098E+02 -0.10964614672E+02  0.36923871127E+02  0.00000000000E+00 0.  1.
         11    1    1    2    0    0 -0.21878617882E+02  0.78283099560E+02  0.38845131756E+02  0.90088078336E+02  0.00000000000E+00 0. -1.
<mgrwt>
<rscale>  0 0.14384941E+03</rscale>
<asrwt>0</asrwt>
<pdfrwt beam="1">  1        2 0.23622938E-01 0.15118330E+03</pdfrwt>
<pdfrwt beam="2">  1       -2 0.19176860E-01 0.15118330E+03</pdfrwt>
<totfact> 0.49826203E+03</totfact>
</mgrwt>
</event>
<event>
 6    1  0.7457796E-006  0.2795076E+03  0.7546771E-02  0.1095958E+00
          3   -1    0    0  501    0  0.00000000000E+00  0.00000000000E+00  0.50015821692E+02  0.50015821692E+02  0.00000000000E+00 0. -1.
         -3   -1    0    0    0  501 -0.00000000000E+00 -0.00000000000E+00 -0.39049894564E+03  0.39049894564E+03  0.00000000000E+00 0.  1.
          5    1    1    2  502    0 -0.72433270360E+02  0.91385782173E+02 -0.13570042081E+03  0.17898221712E+03  0.47000000000E+01 0. -1.
         -5    1    1    2    0  502  0.21839192150E+02 -0.21193880007E+02 -0.72959860677E+02  0.79191932250E+02  0.47000000000E+01 0. -1.
        -11    1    1    2    0    0  0.49131921842E+02  0.62352816497E+01 -0.53078184401E+02  0.72595579345E+02  0.00000000000E+00 0.  1.
         11    1    1    2    0    0  0.14621563675E+01 -0.76427183815E+02 -0.78744658061E+02  0.10974503861E+03  0.00000000000E+00 0. -1.
<mgrwt>
<rscale>  0 0.27950761E+03</rscale>
<asrwt>0</asrwt>
<pdfrwt beam="1">  1        3 0.76947418E-02 0.27950761E+03</pdfrwt>
<pdfrwt beam="2">  1       -3 0.60076761E-01 0.27950761E+03</pdfrwt>
<totfact> 0.79444600E+02</totfact>
</mgrwt>
</event>
<event>
 6    1  0.7457796E-006  0.1251080E+03  0.7546771E-02  0.1250196E+00
          3   -1    0    0  501    0  0.00000000000E+00  0.00000000000E+00  0.25358711985E+03  0.25358711985E+03  0.00000000000E+00 0. -1.
         -3   -1    0    0    0  501 -0.00000000000E+00 -0.00000000000E+00 -0.51200651100E+02  0.51200651100E+02  0.00000000000E+00 0.  1.
          5    1    1    2  502    0 -0.29690521258E+02 -0.14879036806E+02  0.95251480859E+02  0.10098439184E+03  0.47000000000E+01 0.  1.
         -5    1    1    2    0  502  0.26784331611E+02  0.18219872493E+02 -0.26188586353E+02  0.41920117231E+02  0.47000000000E+01 0.  1.
        -11    1    1    2    0    0 -0.31499558267E+02 -0.32381596244E+02  0.81915970123E+02  0.93546865835E+02  0.00000000000E+00 0. -1.
         11    1    1    2    0    0  0.34405747915E+02  0.29040760557E+02  0.51407604121E+02  0.68336396048E+02  0.00000000000E+00 0.  1.
<mgrwt>
<rscale>  0 0.11579741E+03</rscale>
<asrwt>0</asrwt>
<pdfrwt beam="1">  1        3 0.39013403E-01 0.12510801E+03</pdfrwt>
<pdfrwt beam="2">  1       -3 0.78770234E-02 0.12510801E+03</pdfrwt>
<totfact> 0.16158346E+03</totfact>
</mgrwt>
</event>
<event>
 6    1  0.7457796E-006  0.1375229E+03  0.7546771E-02  0.1228028E+00
          2   -1    0    0  501    0  0.00000000000E+00  0.00000000000E+00  0.60243959767E+02  0.60243959767E+02  0.00000000000E+00 0. -1.
         -2   -1    0    0    0  501 -0.00000000000E+00 -0.00000000000E+00 -0.27888349967E+03  0.27888349967E+03  0.00000000000E+00 0.  1.
          5    1    1    2  502    0 -0.23225304911E+02 -0.92299740096E+02 -0.12365274396E+03  0.15611133175E+03  0.47000000000E+01 0.  1.
         -5    1    1    2    0  502 -0.37918882281E+01  0.41733971458E+02 -0.50355645479E+02  0.65680163075E+02  0.47000000000E+01 0.  1.
        -11    1    1    2    0    0  0.34215061893E+00  0.57533612070E+02  0.78363511302E+01  0.58065841799E+02  0.00000000000E+00 0. -1.
         11    1    1    2    0    0  0.26675042520E+02 -0.69678434314E+01 -0.52467501594E+02  0.59270122820E+02  0.00000000000E+00 0.  1.
<mgrwt>
<rscale>  0 0.12961493E+03</rscale>
<asrwt>0</asrwt>
<pdfrwt beam="1">  1        2 0.92683017E-02 0.13752290E+03</pdfrwt>
<pdfrwt beam="2">  1       -2 0.42905153E-01 0.13752290E+03</pdfrwt>
<totfact> 0.35112867E+03</totfact>
</mgrwt>
</event>
<event>
 6    1  0.7457796E-006  0.1260044E+03  0.7546771E-02  0.1248972E+00
         -1   -1    0    0    0  501 -0.00000000000E+00  0.00000000000E+00  0.21130246934E+03  0.21130246934E+03  0.00000000000E+00 0.  1.
          1   -1    0    0  501    0  0.00000000000E+00 -0.00000000000E+00 -0.64895447534E+02  0.64895447534E+02  0.00000000000E+00 0. -1.
          5    1    1    2  502    0  0.80922910051E+01 -0.49572053959E+02  0.88673286872E+01  0.51221023277E+02  0.47000000000E+01 0. -1.
         -5    1    1    2    0  502 -0.20551579918E+02  0.39698573017E+02  0.12398945122E+03  0.13188562526E+03  0.47000000000E+01 0. -1.
        -11    1    1    2    0    0 -0.34956808857E+02  0.16896497975E+02  0.21686631524E+02  0.44472239838E+02  0.00000000000E+00 0.  1.
         11    1    1    2    0    0  0.47416097770E+02 -0.70230170324E+01 -0.81363896253E+01  0.48619028498E+02  0.00000000000E+00 0. -1.
<mgrwt>
<rscale>  0 0.11650756E+03</rscale>
<asrwt>0</asrwt>
<pdfrwt beam="2">  1        1 0.99839151E-02 0.12600445E+03</pdfrwt>
<pdfrwt beam="1">  1       -1 0.32508072E-01 0.12600445E+03</pdfrwt>
<totfact> 0.54180687E+03</totfact>
</mgrwt>
</event>
<event>
 6    1  0.7457796E-006  0.1276865E+03  0.7546771E-02  0.1244954E+00
          3   -1    0    0  501    0  0.00000000000E+00  0.00000000000E+00  0.46126447788E+02  0.46126447788E+02  0.00000000000E+00 0. -1.
         -3   -1    0    0    0  501 -0.00000000000E+00 -0.00000000000E+00 -0.28885265605E+03  0.28885265605E+03  0.00000000000E+00 0.  1.
          5    1    1    2  502    0  0.18280993622E+02 -0.13277008615E+02 -0.19163036226E+03  0.19301492021E+03  0.47000000000E+01 0. -1.
         -5    1    1    2    0  502 -0.18899651956E+02 -0.12745681486E+02  0.12922458217E+02  0.26621967751E+02  0.47000000000E+01 0. -1.
        -11    1    1    2    0    0 -0.26918526059E+02  0.22695263615E+02 -0.77036819551E+02  0.84701556079E+02  0.00000000000E+00 0.  1.
         11    1    1    2    0    0  0.27537184393E+02  0.33274264863E+01  0.13018515330E+02  0.30640659795E+02  0.00000000000E+00 0. -1.
<mgrwt>
<rscale>  0 0.11888159E+03</rscale>
<asrwt>0</asrwt>
<pdfrwt beam="1">  1        3 0.70963768E-02 0.12768652E+03</pdfrwt>
<pdfrwt beam="2">  1       -3 0.44438869E-01 0.12768652E+03</pdfrwt>
<totfact> 0.14915931E+03</totfact>
</mgrwt>
</event>
<event>
 6    1  0.7457796E-006  0.3693963E+03  0.7546771E-02  0.1054924E+00
         -1   -1    0    0    0  501 -0.00000000000E+00  0.00000000000E+00  0.38745450486E+03  0.38745450486E+03  0.00000000000E+00 0.  1.
          1   -1    0    0  501    0  0.00000000000E+00 -0.00000000000E+00 -0.88044918769E+02  0.88044918769E+02  0.00000000000E+00 0. -1.
          5    1    1    2  502    0 -0.50276779169E+02 -0.14300525574E+03  0.23075094710E+03  0.27612741132E+03  0.47000000000E+01 0.  1.
         -5    1    1    2    0  502  0.19296513022E+02  0.10000570344E+02  0.36097753187E+01  0.22527478773E+02  0.47000000000E+01 0.  1.
        -11    1    1    2    0    0 -0.12647696879E+02  0.98530694912E+02  0.69230402114E+02  0.12108307335E+03  0.00000000000E+00 0.  1.
         11    1    1    2    0    0  0.43627963026E+02  0.34473990486E+02 -0.41815384448E+01  0.55761460182E+02  0.00000000000E+00 0. -1.
<mgrwt>
<rscale>  0 0.36939627E+03</rscale>
<asrwt>0</asrwt>
<pdfrwt beam="2">  1        1 0.13545372E-01 0.36939627E+03</pdfrwt>
<pdfrwt beam="1">  1       -1 0.59608384E-01 0.36939627E+03</pdfrwt>
<totfact> 0.12608361E+03</totfact>
</mgrwt>
</event>
<event>
 6    1  0.7457796E-006  0.3094757E+03  0.7546771E-02  0.1080597E+00
          2   -1    0    0  501    0  0.00000000000E+00  0.00000000000E+00  0.23492968656E+03  0.23492968656E+03  0.00000000000E+00 0. -1.
         -2   -1    0    0    0  501 -0.00000000000E+00 -0.00000000000E+00 -0.10191902473E+03  0.10191902473E+03  0.00000000000E+00 0.  1.
          5    1    1    2  502    0 -0.85758178358E+02  0.10612842968E+02  0.75874750205E+02  0.11509198630E+03  0.47000000000E+01 0.  1.
         -5    1    1    2    0  502 -0.17553132207E+02 -0.15801048977E+02 -0.44090856795E+02  0.50238225008E+02  0.47000000000E+01 0.  1.
        -11    1    1    2    0    0  0.32639075467E+02  0.45099627764E+02  0.54290611963E+02  0.77760891321E+02  0.00000000000E+00 0. -1.
         11    1    1    2    0    0  0.70672235098E+02 -0.39911421755E+02  0.46936156449E+02  0.93757608664E+02  0.00000000000E+00 0.  1.
<mgrwt>
<rscale>  0 0.30947571E+03</rscale>
<asrwt>0</asrwt>
<pdfrwt beam="1">  1        2 0.36143029E-01 0.30947571E+03</pdfrwt>
<pdfrwt beam="2">  1       -2 0.15679850E-01 0.30947571E+03</pdfrwt>
<totfact> 0.45336374E+03</totfact>
</mgrwt>
</event>
