<event>
 6    1  0.4988969E-006  0.1327710E+03  0.7561462E-02  0.1223401E+00
         -1   -1    0    0    0  501 -0.00000000000E+00  0.00000000000E+00  0.43520654942E+03  0.43520654942E+03  0.00000000000E+00 0. -1.
          1   -1    0    0  501    0  0.00000000000E+00 -0.00000000000E+00 -0.56758170094E+02  0.56758170094E+02  0.00000000000E+00 0.  1.
          5    1    1    2  502    0  0.47476829810E+02  0.49130587965E+02  0.12642695431E+03  0.14376755969E+03  0.41800000000E+01 0.  1.
         -5    1    1    2    0  502  0.48960494892E+02 -0.77843994099E+02  0.16234629511E+03  0.18662960487E+03  0.41800000000E+01 0.  1.
        -11    1    1    2    0    0 -0.78289335323E+02  0.99272369171E+01  0.12257812025E+02  0.79862531977E+02  0.00000000000E+00 0.  1.
         11    1    1    2    0    0 -0.18147989378E+02  0.18786169218E+02  0.77417317878E+02  0.81705022977E+02  0.00000000000E+00 0. -1.
</event>
<event>
 6    1  0.4988969E-006  0.7557387E+02  0.7561462E-02  0.1342103E+00
         -3   -1    0    0    0  501 -0.00000000000E+00  0.00000000000E+00  0.16108195820E+03  0.16108195820E+03  0.00000000000E+00 0.  1.
          3   -1    0    0  501    0  0.00000000000E+00 -0.00000000000E+00 -0.78974802743E+02  0.78974802743E+02  0.00000000000E+00 0. -1.
          5    1    1    2  502    0  0.52459685159E+02  0.12830404857E+02 -0.18998023669E+02  0.57402396806E+02  0.41800000000E+01 0. -1.
         -5    1    1    2    0  502 -0.33935965843E+02 -0.37679912585E+02  0.58181361126E+02  0.77291453425E+02  0.41800000000E+01 0. -1.
        -11    1    1    2    0    0 -0.14676042680E+02 -0.53759736102E+01  0.65565068061E+02  0.67402266066E+02  0.00000000000E+00 0.  1.
         11    1    1    2    0    0 -0.38476766361E+01  0.30225481338E+02 -0.22641250060E+02  0.37960644646E+02  0.00000000000E+00 0. -1.
</event>
<event>
 6    1  0.4988969E-006  0.7339899E+02  0.7561462E-02  0.1348902E+00
          4   -1    0    0  501    0  0.00000000000E+00  0.00000000000E+00  0.31076878288E+02  0.31076878288E+02  0.00000000000E+00 0. -1.
         -4   -1    0    0    0  501 -0.00000000000E+00 -0.00000000000E+00 -0.42559787468E+03  0.42559787468E+03  0.00000000000E+00 0.  1.
          5    1    1    2  502    0  0.34941568150E+01 -0.36249583098E+02 -0.22164970256E+03  0.22466042030E+03  0.41800000000E+01 0. -1.
         -5    1    1    2    0  502  0.30346344987E+02  0.21999133835E+02 -0.67302435557E+01  0.38309673999E+02  0.41800000000E+01 0. -1.
        -11    1    1    2    0    0 -0.92669830263E+01 -0.24695489585E+02 -0.13630474736E+03  0.13883345539E+03  0.00000000000E+00 0.  1.
         11    1    1    2    0    0 -0.24573518776E+02  0.38945938848E+02 -0.29836302913E+02  0.54871203279E+02  0.00000000000E+00 0. -1.
</event>
<event>
 6    1  0.4988969E-006  0.9618282E+02  0.7561462E-02  0.1288534E+00
         -2   -1    0    0    0  501 -0.00000000000E+00  0.00000000000E+00  0.33620026161E+02  0.33620026161E+02  0.00000000000E+00 0. -1.
          2   -1    0    0  501    0  0.00000000000E+00 -0.00000000000E+00 -0.36125627847E+03  0.36125627847E+03  0.00000000000E+00 0.  1.
          5    1    1    2  502    0  0.31700185170E+02  0.58805238954E+02 -0.83495337232E+02  0.10701355806E+03  0.41800000000E+01 0.  1.
         -5    1    1    2    0  502 -0.41792339702E+02 -0.41578611312E+02 -0.94438904516E+02  0.11140717958E+03  0.41800000000E+01 0.  1.
        -11    1    1    2    0    0 -0.26891150117E+02 -0.97050078720E+01 -0.13146912201E+03  0.13454163361E+03  0.00000000000E+00 0.  1.
         11    1    1    2    0    0  0.36983304649E+02 -0.75216197710E+01 -0.18232888552E+02  0.41913933384E+02  0.00000000000E+00 0. -1.
</event>
<event>
 6    1  0.4988969E-006  0.2070889E+03  0.7561462E-02  0.1143892E+00
         -2   -1    0    0    0  501 -0.00000000000E+00  0.00000000000E+00  0.18260785911E+03  0.18260785911E+03  0.00000000000E+00 0.  1.
          2   -1    0    0  501    0  0.00000000000E+00 -0.00000000000E+00 -0.31974153063E+03  0.31974153063E+03  0.00000000000E+00 0. -1.
          5    1    1    2  502    0  0.79115910975E+01 -0.60977451398E+02 -0.52741646204E+02  0.81117177571E+02  0.41800000000E+01 0.  1.
         -5    1    1    2    0  502 -0.42053700359E+02 -0.13790162873E+03  0.60546629368E+02  0.15642486902E+03  0.41800000000E+01 0.  1.
        -11    1    1    2    0    0 -0.91296616843E+01  0.99580510143E+02 -0.11506619607E+03  0.15244624692E+03  0.00000000000E+00 0. -1.
         11    1    1    2    0    0  0.43271770946E+02  0.99298569985E+02 -0.29872458604E+02  0.11236109622E+03  0.00000000000E+00 0.  1.
</event>
<event>
 6    1  0.4988969E-006  0.9522350E+02  0.7561462E-02  0.1290674E+00
         -1   -1    0    0    0  501 -0.00000000000E+00  0.00000000000E+00  0.98572109557E+02  0.98572109557E+02  0.00000000000E+00 0.  1.
          1   -1    0    0  501    0  0.00000000000E+00 -0.00000000000E+00 -0.16962072052E+03  0.16962072052E+03  0.00000000000E+00 0. -1.
          5    1    1    2  502    0  0.27835338647E+02  0.82184841948E-01 -0.18317915363E+02  0.33583199001E+02  0.41800000000E+01 0. -1.
         -5    1    1    2    0  502 -0.81445752914E+02  0.27296836194E+01  0.41144960860E+02  0.91385130325E+02  0.41800000000E+01 0.  1.
        -11    1    1    2    0    0  0.80989980051E+01  0.25733661657E+02  0.79250052999E+01  0.28117980368E+02  0.00000000000E+00 0. -1.
         11    1    1    2    0    0  0.45511416262E+02 -0.28545530119E+02 -0.10180066176E+03  0.11510652038E+03  0.00000000000E+00 0.  1.
</event>
<event>
 6    1  0.4988969E-006  0.1339840E+03  0.7561462E-02  0.1221661E+00
         -1   -1    0    0    0  501 -0.00000000000E+00  0.00000000000E+00  0.23096854649E+03  0.23096854649E+03  0.00000000000E+00 0.  1.
          1   -1    0    0  501    0  0.00000000000E+00 -0.00000000000E+00 -0.10403373375E+03  0.10403373375E+03  0.00000000000E+00 0. -1.
          5    1    1    2  502    0 -0.17789318822E+02  0.39592950826E+02  0.31105719427E+02  0.53563978571E+02  0.41800000000E+01 0. -1.
         -5    1    1    2    0  502  0.10880845254E+03 -0.23760912832E+02  0.10399460316E+03  0.15243428161E+03  0.41800000000E+01 0. -1.
        -11    1    1    2    0    0 -0.69533917668E+02 -0.40284032970E+02  0.23363281551E+02  0.83687585360E+02  0.00000000000E+00 0.  1.
         11    1    1    2    0    0 -0.21485216049E+02  0.24451994976E+02 -0.31528791400E+02  0.45316434702E+02  0.00000000000E+00 0. -1.
</event>
<event>
 6    1  0.4988969E-006  0.1440832E+03  0.7561462E-02  0.1207938E+00
         -1   -1    0    0    0  501 -0.00000000000E+00  0.00000000000E+00  0.95144008030E+03  0.95144008030E+03  0.00000000000E+00 0.  1.
          1   -1    0    0  501    0  0.00000000000E+00 -0.00000000000E+00 -0.23597447134E+02  0.23597447134E+02  0.00000000000E+00 0. -1.
          5    1    1    2  502    0  0.93869602448E+02 -0.57136727212E+02  0.31082642403E+03  0.32970690944E+03  0.41800000000E+01 0.  1.
         -5    1    1    2    0  502  0.49770565013E+01  0.42208836596E+02  0.24625991820E+03  0.24993554507E+03  0.41800000000E+01 0.  1.
        -11    1    1    2    0    0 -0.94822457442E+02  0.45134153442E+02  0.25700615608E+03  0.27763384971E+03  0.00000000000E+00 0.  1.
         11    1    1    2    0    0 -0.40242015076E+01 -0.30206262826E+02  0.11375013486E+03  0.11776122321E+03  0.00000000000E+00 0. -1.
</event>
<event>
 6    1  0.4988969E-006  0.1229803E+03  0.7561462E-02  0.1238260E+00
          2   -1    0    0  501    0  0.00000000000E+00  0.00000000000E+00  0.63763774196E+02  0.63763774196E+02  0.00000000000E+00 0. -1.
         -2   -1    0    0    0  501 -0.00000000000E+00 -0.00000000000E+00 -0.32895144492E+03  0.32895144492E+03  0.00000000000E+00 0.  1.
          5    1    1    2  502    0 -0.71362779908E+02 -0.62346948338E+02 -0.62676086359E+02  0.11369059998E+03  0.41800000000E+01 0. -1.
         -5    1    1    2    0  502  0.31154467660E+02 -0.18134436057E+02 -0.11960648797E+03  0.12499057160E+03  0.41800000000E+01 0. -1.
        -11    1    1    2    0    0  0.22251096547E+02 -0.86660356624E+01  0.82602363982E+01  0.25267429173E+02  0.00000000000E+00 0. -1.
         11    1    1    2    0    0  0.17957215702E+02  0.89147420057E+02 -0.91165332793E+02  0.12876661835E+03  0.00000000000E+00 0.  1.
</event>
<event>
 6    1  0.4988969E-006  0.1525237E+03  0.7561462E-02  0.1197406E+00
         -1   -1    0    0    0  501 -0.00000000000E+00  0.00000000000E+00  0.80045742514E+02  0.80045742514E+02  0.00000000000E+00 0.  1.
          1   -1    0    0  501    0  0.00000000000E+00 -0.00000000000E+00 -0.51363812708E+03  0.51363812708E+03  0.00000000000E+00 0. -1.
          5    1    1    2  502    0  0.34840369617E+02  0.25597628508E+02 -0.19596612596E+02  0.47650703725E+02  0.41800000000E+01 0. -1.
         -5    1    1    2    0  502  0.62091303507E+02 -0.11330820390E+03 -0.33471041704E+02  0.13353599543E+03  0.41800000000E+01 0.  1.
        -11    1    1    2    0    0 -0.81916412282E+02  0.82967743175E+02 -0.37917159417E+03  0.39669263018E+03  0.00000000000E+00 0. -1.
         11    1    1    2    0    0 -0.15015260842E+02  0.47428322205E+01 -0.13531360944E+01  0.15804540263E+02  0.00000000000E+00 0.  1.
</event>
<event>
 6    1  0.4988969E-006  0.9468210E+02  0.7561462E-02  0.1291894E+00
         -2   -1    0    0    0  501 -0.00000000000E+00  0.00000000000E+00  0.54231334336E+02  0.54231334336E+02  0.00000000000E+00 0.  1.
          2   -1    0    0  501    0  0.00000000000E+00 -0.00000000000E+00 -0.25389555255E+03  0.25389555255E+03  0.00000000000E+00 0. -1.
          5    1    1    2  502    0 -0.48151257735E+02  0.56589884406E+02 -0.41924851359E+02  0.85417353038E+02  0.41800000000E+01 0. -1.
         -5    1    1    2    0  502  0.42921891580E+02 -0.30723756898E+02 -0.41000308960E+02  0.66968169675E+02  0.41800000000E+01 0. -1.
        -11    1    1    2    0    0  0.30763179440E+02 -0.12934297288E+02  0.21641777357E+01  0.33441784057E+02  0.00000000000E+00 0.  1.
         11    1    1    2    0    0 -0.25533813286E+02 -0.12931830219E+02 -0.11890323563E+03  0.12229958012E+03  0.00000000000E+00 0. -1.
</event>
<event>
 6    1  0.4988969E-006  0.9900123E+02  0.7561462E-02  0.1282410E+00
         -2   -1    0    0    0  501 -0.00000000000E+00  0.00000000000E+00  0.39736248810E+02  0.39736248810E+02  0.00000000000E+00 0.  1.
          2   -1    0    0  501    0  0.00000000000E+00 -0.00000000000E+00 -0.55581004743E+03  0.55581004743E+03  0.00000000000E+00 0. -1.
          5    1    1    2  502    0 -0.56422495365E+02 -0.13555777738E+02  0.23578458345E+01  0.58226187667E+02  0.41800000000E+01 0. -1.
         -5    1    1    2    0  502  0.38809005328E+02 -0.83543873572E+01 -0.11736297575E+03  0.12396562087E+03  0.41800000000E+01 0.  1.
        -11    1    1    2    0    0 -0.38957726582E+02  0.18781946121E+02 -0.18382936102E+03  0.18884835168E+03  0.00000000000E+00 0. -1.
         11    1    1    2    0    0  0.56571216620E+02  0.31282189748E+01 -0.21723930769E+03  0.22450613602E+03  0.00000000000E+00 0.  1.
</event>
<event>
 6    1  0.4988969E-006  0.9485991E+02  0.7561462E-02  0.1291492E+00
         -1   -1    0    0    0  501 -0.00000000000E+00  0.00000000000E+00  0.56880881027E+02  0.56880881027E+02  0.00000000000E+00 0.  1.
          1   -1    0    0  501    0  0.00000000000E+00 -0.00000000000E+00 -0.25286817443E+03  0.25286817443E+03  0.00000000000E+00 0. -1.
          5    1    1    2  502    0 -0.37117106251E+02  0.62828692610E+01 -0.10281936646E+03  0.10957394098E+03  0.41800000000E+01 0.  1.
         -5    1    1    2    0  502  0.43609387804E+02  0.49957552543E+02 -0.80946970212E+01  0.66936778236E+02  0.41800000000E+01 0.  1.
        -11    1    1    2    0    0  0.27571019707E+02 -0.37422347555E+02 -0.83727540554E+01  0.47230247032E+02  0.00000000000E+00 0.  1.
         11    1    1    2    0    0 -0.34063301260E+02 -0.18818074249E+02 -0.76700475865E+02  0.86008089208E+02  0.00000000000E+00 0. -1.
</event>
<event>
 6    1  0.4988969E-006  0.7270809E+02  0.7561462E-02  0.1351119E+00
          2   -1    0    0  501    0  0.00000000000E+00  0.00000000000E+00  0.13885418428E+03  0.13885418428E+03  0.00000000000E+00 0. -1.
         -2   -1    0    0    0  501 -0.00000000000E+00 -0.00000000000E+00 -0.12142921275E+03  0.12142921275E+03  0.00000000000E+00 0.  1.
          5    1    1    2  502    0  0.23312489359E+02  0.90531010010E+01  0.36584965105E+02  0.44512502396E+02  0.41800000000E+01 0. -1.
         -5    1    1    2    0  502 -0.27064745548E+02  0.31737882184E+02 -0.86755527567E+02  0.96352413465E+02  0.41800000000E+01 0. -1.
        -11    1    1    2    0    0 -0.16866021232E+02 -0.52004111840E+02  0.78539628955E+01  0.55232011132E+02  0.00000000000E+00 0.  1.
         11    1    1    2    0    0  0.20618277421E+02  0.11213128655E+02  0.59741571095E+02  0.64186470030E+02  0.00000000000E+00 0. -1.
</event>
<event>
 6    1  0.4988969E-006  0.7516119E+02  0.7561462E-02  0.1343373E+00
         -1   -1    0    0    0  501 -0.00000000000E+00  0.00000000000E+00  0.18863698135E+03  0.18863698135E+03  0.00000000000E+00 0.  1.
          1   -1    0    0  501    0  0.00000000000E+00 -0.00000000000E+00 -0.10281081486E+03  0.10281081486E+03  0.00000000000E+00 0. -1.
          5    1    1    2  502    0 -0.46615011420E+02 -0.11898930282E+02  0.13202962958E+03  0.14058392269E+03  0.41800000000E+01 0. -1.
         -5    1    1    2    0  502  0.43813180085E+02  0.15119213193E+02  0.32950662545E+01  0.46653137283E+02  0.41800000000E+01 0.  1.
        -11    1    1    2    0    0 -0.17130637480E+02  0.19041700191E+02 -0.65489114320E+02  0.70319763801E+02  0.00000000000E+00 0. -1.
         11    1    1    2    0    0  0.19932468815E+02 -0.22261983102E+02  0.15990584980E+02  0.33890972436E+02  0.00000000000E+00 0.  1.
</event>
<event>
 6    1  0.4988969E-006  0.9728248E+02  0.7561462E-02  0.1286117E+00
          1   -1    0    0  501    0  0.00000000000E+00  0.00000000000E+00  0.26820992492E+03  0.26820992492E+03  0.00000000000E+00 0. -1.
         -1   -1    0    0    0  501 -0.00000000000E+00 -0.00000000000E+00 -0.43910248091E+02  0.43910248091E+02  0.00000000000E+00 0.  1.
          5    1    1    2  502    0 -0.39292321466E+02  0.50361080688E+02  0.18251574527E+02  0.66563633817E+02  0.41800000000E+01 0. -1.
         -5    1    1    2    0  502  0.32284422394E+02 -0.42283926718E+02  0.64895558145E+02  0.84018570893E+02  0.41800000000E+01 0. -1.
        -11    1    1    2    0    0 -0.15961325513E+02 -0.36975818533E+02  0.88512000554E+02  0.97243762322E+02  0.00000000000E+00 0.  1.
         11    1    1    2    0    0  0.22969224584E+02  0.28898664563E+02  0.52640543601E+02  0.64294205976E+02  0.00000000000E+00 0. -1.
</event>
<event>
 6    1  0.4988969E-006  0.1322987E+03  0.7561462E-02  0.1224084E+00
         -2   -1    0    0    0  501 -0.00000000000E+00  0.00000000000E+00  0.30789683348E+03  0.30789683348E+03  0.00000000000E+00 0.  1.
          2   -1    0    0  501    0  0.00000000000E+00 -0.00000000000E+00 -0.70763217161E+02  0.70763217161E+02  0.00000000000E+00 0. -1.
          5    1    1    2  502    0 -0.47043357750E+02  0.43868138463E+02  0.94042522836E+02  0.11401297988E+03  0.41800000000E+01 0. -1.
         -5    1    1    2    0  502  0.78492932174E+02  0.43232426233E+02  0.91052253145E+02  0.12782084447E+03  0.41800000000E+01 0. -1.
        -11    1    1    2    0    0  0.16904436083E+02 -0.10677930824E+02 -0.14373708785E+02  0.24624818176E+02  0.00000000000E+00 0. -1.
         11    1    1    2    0    0 -0.48354010507E+02 -0.76422633872E+02  0.66412549118E+02  0.11220140810E+03  0.00000000000E+00 0.  1.
</event>
<event>
 6    1  0.4988969E-006  0.1873843E+03  0.7561462E-02  0.1160842E+00
          2   -1    0    0  501    0  0.00000000000E+00  0.00000000000E+00  0.11782120490E+03  0.11782120490E+03  0.00000000000E+00 0.  1.
         -2   -1    0    0    0  501 -0.00000000000E+00 -0.00000000000E+00 -0.33871661778E+03  0.33871661778E+03  0.00000000000E+00 0. -1.
          5    1    1    2  502    0 -0.35683408646E+02  0.98263676110E+02 -0.12324007677E+03  0.16166213105E+03  0.41800000000E+01 0.  1.
         -5    1    1    2    0  502  0.47884853930E+02  0.67668054259E+02 -0.56987972241E+01  0.83197797404E+02  0.41800000000E+01 0.  1.
        -11    1    1    2    0    0 -0.36769248090E+02 -0.15660242254E+03 -0.92173374133E+02  0.18539748447E+03  0.00000000000E+00 0.  1.
         11    1    1    2    0    0  0.24567802806E+02 -0.93293078331E+01  0.21683524210E+00  0.26280409755E+02  0.00000000000E+00 0. -1.
</event>
<event>
 6    1  0.4988969E-006  0.1191390E+03  0.7561462E-02  0.1244524E+00
         -2   -1    0    0    0  501 -0.00000000000E+00  0.00000000000E+00  0.69495225320E+02  0.69495225320E+02  0.00000000000E+00 0. -1.
          2   -1    0    0  501    0  0.00000000000E+00 -0.00000000000E+00 -0.32032629976E+03  0.32032629976E+03  0.00000000000E+00 0.  1.
          5    1    1    2  502    0  0.21437437442E+02 -0.36306872060E+02 -0.89325886014E+02  0.98865256765E+02  0.41800000000E+01 0. -1.
         -5    1    1    2    0  502 -0.57671430024E+02 -0.49578879467E+02  0.88370619170E+01  0.76678714084E+02  0.41800000000E+01 0. -1.
        -11    1    1    2    0    0  0.45516007330E+01 -0.14120154725E+02 -0.60886240222E+02  0.62667615935E+02  0.00000000000E+00 0.  1.
         11    1    1    2    0    0  0.31682391848E+02  0.10000590625E+03 -0.10945601012E+03  0.15160993830E+03  0.00000000000E+00 0. -1.
</event>
<event>
 6    1  0.4988969E-006  0.1953745E+03  0.7561462E-02  0.1153701E+00
         -1   -1    0    0    0  501 -0.00000000000E+00  0.00000000000E+00  0.74457180571E+02  0.74457180571E+02  0.00000000000E+00 0.  1.
          1   -1    0    0  501    0  0.00000000000E+00 -0.00000000000E+00 -0.54255600822E+03  0.54255600822E+03  0.00000000000E+00 0. -1.
          5    1    1    2  502    0  0.41480560880E+02  0.15725644401E+03 -0.17249829949E+03  0.23711465969E+03  0.41800000000E+01 0. -1.
         -5    1    1    2    0  502  0.39312272618E+02 -0.12949878808E+02 -0.21398855597E+02  0.46781808007E+02  0.41800000000E+01 0. -1.
        -11    1    1    2    0    0 -0.96509980466E+02 -0.97937841133E+02 -0.22512676897E+03  0.26379548738E+03  0.00000000000E+00 0.  1.
         11    1    1    2    0    0  0.15717146968E+02 -0.46368724071E+02 -0.49074903602E+02  0.69321233719E+02  0.00000000000E+00 0. -1.
</event>
<event>
 6    1  0.4988969E-006  0.1583518E+03  0.7561462E-02  0.1190570E+00
         -1   -1    0    0    0  501 -0.00000000000E+00  0.00000000000E+00  0.87973373064E+02  0.87973373064E+02  0.00000000000E+00 0.  1.
          1   -1    0    0  501    0  0.00000000000E+00 -0.00000000000E+00 -0.36973867711E+03  0.36973867711E+03  0.00000000000E+00 0. -1.
          5    1    1    2  502    0 -0.40367191181E+02 -0.63080058389E+02  0.11120689105E+01  0.75015418331E+02  0.41800000000E+01 0. -1.
         -5    1    1    2    0  502 -0.58509064829E+01  0.53709488265E+02 -0.29319227458E+02  0.61611944743E+02  0.41800000000E+01 0. -1.
        -11    1    1    2    0    0 -0.69027644723E+02  0.19744768682E+02 -0.14783766383E+03  0.16434916025E+03  0.00000000000E+00 0. -1.
         11    1    1    2    0    0  0.11524574239E+03 -0.10374198558E+02 -0.10572048167E+03  0.15673552685E+03  0.00000000000E+00 0.  1.
</event>
<event>
 6    1  0.4988969E-006  0.2039184E+03  0.7561462E-02  0.1146475E+00
         -2   -1    0    0    0  501 -0.00000000000E+00  0.00000000000E+00  0.52187885727E+02  0.52187885727E+02  0.00000000000E+00 0.  1.
          2   -1    0    0  501    0  0.00000000000E+00 -0.00000000000E+00 -0.87770156272E+03  0.87770156272E+03  0.00000000000E+00 0. -1.
          5    1    1    2  502    0 -0.15618604402E+03 -0.31989845027E+02 -0.21368056439E+03  0.26663511871E+03  0.41800000000E+01 0. -1.
         -5    1    1    2    0  502 -0.33388474667E+02  0.37695790952E+02 -0.18985846587E+03  0.19646748423E+03  0.41800000000E+01 0. -1.
        -11    1    1    2    0    0  0.61526925446E+02  0.24560765245E+02 -0.17161539038E+03  0.18395824515E+03  0.00000000000E+00 0.  1.
         11    1    1    2    0    0  0.12804759324E+03 -0.30266711170E+02 -0.25035925635E+03  0.28282860036E+03  0.00000000000E+00 0. -1.
</event>
<event>
 6    1  0.4988969E-006  0.1429602E+03  0.7561462E-02  0.1209400E+00
         -1   -1    0    0    0  501 -0.00000000000E+00  0.00000000000E+00  0.88027016072E+02  0.88027016072E+02  0.00000000000E+00 0.  1.
          1   -1    0    0  501    0  0.00000000000E+00 -0.00000000000E+00 -0.46679658562E+03  0.46679658562E+03  0.00000000000E+00 0. -1.
          5    1    1    2  502    0  0.80092391853E+02 -0.96048477781E+02 -0.55508994500E+02  0.13688981769E+03  0.41800000000E+01 0.  1.
         -5    1    1    2    0  502 -0.60469302793E+00  0.13783437989E+02  0.31181852199E+02  0.34353007481E+02  0.41800000000E+01 0.  1.
        -11    1    1    2    0    0 -0.67826230266E+02  0.10256488771E+03 -0.28875276227E+03  0.31384408776E+03  0.00000000000E+00 0.  1.
         11    1    1    2    0    0 -0.11661468559E+02 -0.20299847922E+02 -0.65689664975E+02  0.69736688760E+02  0.00000000000E+00 0. -1.
</event>
<event>
 6    1  0.4988969E-006  0.1199167E+03  0.7561462E-02  0.1243235E+00
         -1   -1    0    0    0  501 -0.00000000000E+00  0.00000000000E+00  0.87126262551E+02  0.87126262551E+02  0.00000000000E+00 0.  1.
          1   -1    0    0  501    0  0.00000000000E+00 -0.00000000000E+00 -0.20609174118E+03  0.20609174118E+03  0.00000000000E+00 0. -1.
          5    1    1    2  502    0  0.62479028359E+02 -0.17358696152E+01  0.21017994073E+02  0.66074735738E+02  0.41800000000E+01 0. -1.
         -5    1    1    2    0  502 -0.24745719957E+02 -0.59134941937E+02 -0.48892486165E+02  0.80729422254E+02  0.41800000000E+01 0. -1.
        -11    1    1    2    0    0  0.64215266241E+01  0.67932006961E+02 -0.42543656634E+02  0.80411170205E+02  0.00000000000E+00 0.  1.
         11    1    1    2    0    0 -0.44154835026E+02 -0.70611954089E+01 -0.48547329906E+02  0.66002675535E+02  0.00000000000E+00 0. -1.
</event>
<event>
 6    1  0.4988969E-006  0.1111140E+03  0.7561462E-02  0.1258521E+00
          1   -1    0    0  501    0  0.00000000000E+00  0.00000000000E+00  0.49913182316E+02  0.49913182316E+02  0.00000000000E+00 0. -1.
         -1   -1    0    0    0  501 -0.00000000000E+00 -0.00000000000E+00 -0.30904475116E+03  0.30904475116E+03  0.00000000000E+00 0.  1.
          5    1    1    2  502    0 -0.87323529355E+02 -0.31269196162E+02 -0.52755275933E+02  0.10678835586E+03  0.41800000000E+01 0.  1.
         -5    1    1    2    0  502  0.21833339868E+02  0.29050019660E+02 -0.75862725855E+02  0.84221279652E+02  0.41800000000E+01 0.  1.
        -11    1    1    2    0    0  0.17258687752E+02  0.31828042258E+02 -0.14758138859E+02  0.39098455717E+02  0.00000000000E+00 0. -1.
         11    1    1    2    0    0  0.48231501736E+02 -0.29608865757E+02 -0.11575542819E+03  0.12884984225E+03  0.00000000000E+00 0.  1.
</event>
<event>
 6    1  0.4988969E-006  0.8002958E+02  0.7561462E-02  0.1328968E+00
         -3   -1    0    0    0  501 -0.00000000000E+00  0.00000000000E+00  0.13475396941E+03  0.13475396941E+03  0.00000000000E+00 0.  1.
          3   -1    0    0  501    0  0.00000000000E+00 -0.00000000000E+00 -0.54051756437E+02  0.54051756437E+02  0.00000000000E+00 0. -1.
          5    1    1    2  502    0  0.46771445040E+02  0.17542163272E+02  0.53271257627E+02  0.73147760407E+02  0.41800000000E+01 0.  1.
         -5    1    1    2    0  502 -0.68790935128E+02  0.10722329085E+02  0.65434179085E+01  0.70053192752E+02  0.41800000000E+01 0.  1.
        -11    1    1    2    0    0  0.42042106275E+01 -0.20193446212E+02  0.13728419988E+02  0.24777412542E+02  0.00000000000E+00 0. -1.
         11    1    1    2    0    0  0.17815279461E+02 -0.80710461441E+01  0.71591174543E+01  0.20827360151E+02  0.00000000000E+00 0.  1.
</event>
<event>
 6    1  0.4988969E-006  0.2387605E+03  0.7561462E-02  0.1120621E+00
         -1   -1    0    0    0  501 -0.00000000000E+00  0.00000000000E+00  0.44096494867E+02  0.44096494867E+02  0.00000000000E+00 0.  1.
          1   -1    0    0  501    0  0.00000000000E+00 -0.00000000000E+00 -0.13879279044E+04  0.13879279044E+04  0.00000000000E+00 0. -1.
          5    1    1    2  502    0  0.25621301907E+02  0.14659553150E+03 -0.36058226526E+03  0.39010734854E+03  0.41800000000E+01 0.  1.
         -5    1    1    2    0  502  0.99030258916E+02  0.36812279918E+02 -0.25585540205E+03  0.27684218481E+03  0.41800000000E+01 0.  1.
        -11    1    1    2    0    0 -0.51706482417E+02 -0.96219011327E+02 -0.22677245366E+03  0.25170896727E+03  0.00000000000E+00 0.  1.
         11    1    1    2    0    0 -0.72945078406E+02 -0.87188800093E+02 -0.50062128858E+03  0.51336589866E+03  0.00000000000E+00 0. -1.
</event>
<event>
 6    1  0.4988969E-006  0.5856498E+02  0.7561462E-02  0.1403954E+00
          2   -1    0    0  501    0  0.00000000000E+00  0.00000000000E+00  0.22654900031E+03  0.22654900031E+03  0.00000000000E+00 0. -1.
         -2   -1    0    0    0  501 -0.00000000000E+00 -0.00000000000E+00 -0.51926963725E+02  0.51926963725E+02  0.00000000000E+00 0.  1.
          5    1    1    2  502    0  0.47493339624E+01 -0.86756214194E+01 -0.32150225188E+02  0.33895898863E+02  0.41800000000E+01 0. -1.
         -5    1    1    2    0  502 -0.14880125177E+02  0.11055299279E+02  0.11487966412E+03  0.11644074629E+03  0.41800000000E+01 0. -1.
        -11    1    1    2    0    0 -0.38544017131E+02 -0.34929894649E+01  0.27802242830E+02  0.47652984569E+02  0.00000000000E+00 0.  1.
         11    1    1    2    0    0  0.48674808345E+02  0.11133116050E+01  0.64090354822E+02  0.80486334314E+02  0.00000000000E+00 0. -1.
</event>
<event>
 6    1  0.4988969E-006  0.1387754E+03  0.7561462E-02  0.1214986E+00
          2   -1    0    0  501    0  0.00000000000E+00  0.00000000000E+00  0.24312369862E+03  0.24312369862E+03  0.00000000000E+00 0. -1.
         -2   -1    0    0    0  501 -0.00000000000E+00 -0.00000000000E+00 -0.93599612786E+02  0.93599612786E+02  0.00000000000E+00 0.  1.
          5    1    1    2  502    0  0.45843081609E+02 -0.11812448630E+03  0.47499886574E+02  0.13538350720E+03  0.41800000000E+01 0. -1.
         -5    1    1    2    0  502 -0.27240388720E+02  0.18643387358E+02  0.37503129213E+01  0.33483606687E+02  0.41800000000E+01 0. -1.
        -11    1    1    2    0    0  0.50919289632E+01  0.92720833581E+02  0.10703723360E+03  0.14170409344E+03  0.00000000000E+00 0. -1.
         11    1    1    2    0    0 -0.23694621853E+02  0.67602653649E+01 -0.87633472665E+01  0.26152104081E+02  0.00000000000E+00 0.  1.
</event>
<event>
 6    1  0.4988969E-006  0.1206886E+03  0.7561462E-02  0.1241965E+00
         -1   -1    0    0    0  501 -0.00000000000E+00  0.00000000000E+00  0.48569357054E+02  0.48569357054E+02  0.00000000000E+00 0.  1.
          1   -1    0    0  501    0  0.00000000000E+00 -0.00000000000E+00 -0.56270591395E+03  0.56270591395E+03  0.00000000000E+00 0. -1.
          5    1    1    2  502    0 -0.27846105388E+02  0.21214476146E+02  0.79296483470E+01  0.36136011212E+02  0.41800000000E+01 0. -1.
         -5    1    1    2    0  502  0.90001834897E+02  0.15318989148E+02 -0.91057034202E+02  0.12901107546E+03  0.41800000000E+01 0.  1.
        -11    1    1    2    0    0  0.31806309827E+01  0.24867478652E+02 -0.11099502936E+03  0.11379105611E+03  0.00000000000E+00 0.  1.
         11    1    1    2    0    0 -0.65336360491E+02 -0.61400943946E+02 -0.32001414168E+03  0.33233712822E+03  0.00000000000E+00 0. -1.
</event>
<event>
 6    1  0.5795122E-006  0.1036332E+03  0.7561462E-02  0.1272836E+00
         -1   -1    0    0    0  501 -0.00000000000E+00  0.00000000000E+00  0.85090687850E+02  0.85090687850E+02  0.00000000000E+00 0.  1.
          1   -1    0    0  501    0  0.00000000000E+00 -0.00000000000E+00 -0.15943790924E+03  0.15943790924E+03  0.00000000000E+00 0. -1.
          5    1    1    2  502    0 -0.49149836011E+02  0.36381401552E+02  0.13576763136E+02  0.62778289687E+02  0.41800000000E+01 0. -1.
         -5    1    1    2    0  502  0.44662463576E+02 -0.44006945977E+02 -0.41638874856E+01  0.62977434895E+02  0.41800000000E+01 0. -1.
        -11    1    1    2    0    0 -0.31188833922E+02  0.28117029342E+02 -0.51757030997E+02  0.66649088202E+02  0.00000000000E+00 0. -1.
         11    1    1    2    0    0  0.35676206357E+02 -0.20491484917E+02 -0.32003066041E+02  0.52123784304E+02  0.00000000000E+00 0.  1.
</event>
<event>
 6    1  0.4988969E-006  0.1115372E+03  0.7561462E-02  0.1257749E+00
         -2   -1    0    0    0  501 -0.00000000000E+00  0.00000000000E+00  0.28539180196E+03  0.28539180196E+03  0.00000000000E+00 0.  1.
          2   -1    0    0  501    0  0.00000000000E+00 -0.00000000000E+00 -0.44814698225E+02  0.44814698225E+02  0.00000000000E+00 0. -1.
          5    1    1    2  502    0  0.55359696014E+02  0.34692506524E+02  0.65250776191E+02  0.92430526047E+02  0.41800000000E+01 0.  1.
         -5    1    1    2    0  502 -0.63021343932E+02 -0.49117149657E+01  0.63260911778E+02  0.89527817430E+02  0.41800000000E+01 0.  1.
        -11    1    1    2    0    0  0.44402749112E+02 -0.35787703403E+02  0.49854123873E+02  0.75748250875E+02  0.00000000000E+00 0.  1.
         11    1    1    2    0    0 -0.36741101194E+02  0.60069118449E+01  0.62211291896E+02  0.72499905836E+02  0.00000000000E+00 0. -1.
</event>
<event>
 6    1  0.4988969E-006  0.1358497E+03  0.7561462E-02  0.1219025E+00
          1   -1    0    0  501    0  0.00000000000E+00  0.00000000000E+00  0.33044576809E+03  0.33044576809E+03  0.00000000000E+00 0. -1.
         -1   -1    0    0    0  501 -0.00000000000E+00 -0.00000000000E+00 -0.66863397915E+02  0.66863397915E+02  0.00000000000E+00 0.  1.
          5    1    1    2  502    0 -0.67422044103E+02 -0.10257300324E+03  0.13394280192E+03  0.18172809252E+03  0.41800000000E+01 0.  1.
         -5    1    1    2    0  502  0.32683540844E+02  0.68567994570E+01  0.11822836682E+02  0.35671857369E+02  0.41800000000E+01 0.  1.
        -11    1    1    2    0    0  0.33183448960E+02  0.18497663005E+02 -0.12216149049E+01  0.38010487559E+02  0.00000000000E+00 0. -1.
         11    1    1    2    0    0  0.15550542990E+01  0.77218540777E+02  0.11903834648E+03  0.14189872856E+03  0.00000000000E+00 0.  1.
</event>
<event>
 6    1  0.4988969E-006  0.1350283E+03  0.7561462E-02  0.1220180E+00
          2   -1    0    0  501    0  0.00000000000E+00  0.00000000000E+00  0.96759478403E+02  0.96759478403E+02  0.00000000000E+00 0. -1.
         -2   -1    0    0    0  501 -0.00000000000E+00 -0.00000000000E+00 -0.29339123644E+03  0.29339123644E+03  0.00000000000E+00 0.  1.
          5    1    1    2  502    0 -0.12114079847E+02  0.32021161458E+02 -0.96404852394E+02  0.10238883570E+03  0.41800000000E+01 0. -1.
         -5    1    1    2    0  502  0.99457153517E+02 -0.45580799583E+02 -0.11631172261E+03  0.15973485497E+03  0.41800000000E+01 0. -1.
        -11    1    1    2    0    0 -0.97465769838E+02 -0.12368985100E+02  0.60310631269E+01  0.98432422529E+02  0.00000000000E+00 0. -1.
         11    1    1    2    0    0  0.10122696168E+02  0.25928623226E+02  0.10053753837E+02  0.29594601641E+02  0.00000000000E+00 0.  1.
</event>
<event>
 6    1  0.4988969E-006  0.2023438E+03  0.7561462E-02  0.1147776E+00
          2   -1    0    0  501    0  0.00000000000E+00  0.00000000000E+00  0.27583408263E+03  0.27583408263E+03  0.00000000000E+00 0. -1.
         -2   -1    0    0    0  501 -0.00000000000E+00 -0.00000000000E+00 -0.20065926309E+03  0.20065926309E+03  0.00000000000E+00 0.  1.
          5    1    1    2  502    0 -0.11404033669E+03  0.13049165387E+03 -0.66036218533E+02  0.18550343577E+03  0.41800000000E+01 0.  1.
         -5    1    1    2    0  502  0.32184448595E+02  0.28918831811E+02 -0.25459201473E+01  0.43544134784E+02  0.41800000000E+01 0.  1.
        -11    1    1    2    0    0  0.24042807393E+02 -0.10753933751E+03  0.38696909953E+02  0.11679133760E+03  0.00000000000E+00 0.  1.
         11    1    1    2    0    0  0.57813080705E+02 -0.51871148177E+02  0.10506004827E+03  0.13065443757E+03  0.00000000000E+00 0. -1.
</event>
<event>
 6    1  0.4988969E-006  0.5713593E+02  0.7561462E-02  0.1410260E+00
         -2   -1    0    0    0  501 -0.00000000000E+00  0.00000000000E+00  0.37018210193E+02  0.37018210193E+02  0.00000000000E+00 0.  1.
          2   -1    0    0  501    0  0.00000000000E+00 -0.00000000000E+00 -0.31854440261E+03  0.31854440261E+03  0.00000000000E+00 0. -1.
          5    1    1    2  502    0  0.62469826352E+01 -0.13118099121E+02 -0.18259820773E+03  0.18322305308E+03  0.41800000000E+01 0. -1.
         -5    1    1    2    0  502 -0.12671905304E+01  0.64628243833E+01  0.20361871414E+02  0.21804863639E+02  0.41800000000E+01 0. -1.
        -11    1    1    2    0    0 -0.43563927607E+02 -0.16233419635E+02 -0.68268578675E+02  0.82595027307E+02  0.00000000000E+00 0.  1.
         11    1    1    2    0    0  0.38584135502E+02  0.22888694372E+02 -0.51021277431E+02  0.67939668775E+02  0.00000000000E+00 0. -1.
</event>
<event>
 6    1  0.6079697E-006  0.6992307E+02  0.7561462E-02  0.1360355E+00
          1   -1    0    0  501    0  0.00000000000E+00  0.00000000000E+00  0.15341744991E+03  0.15341744991E+03  0.00000000000E+00 0. -1.
         -1   -1    0    0    0  501 -0.00000000000E+00 -0.00000000000E+00 -0.95462363807E+02  0.95462363807E+02  0.00000000000E+00 0.  1.
          5    1    1    2  502    0 -0.29984052101E+02 -0.49384517665E+02 -0.53750367429E+02  0.79021822075E+02  0.41800000000E+01 0.  1.
         -5    1    1    2    0  502  0.11030655085E+02  0.20345481608E+02  0.45318673799E+02  0.51057502566E+02  0.41800000000E+01 0.  1.
        -11    1    1    2    0    0 -0.43741947347E+00 -0.12527964329E+02 -0.18480812053E+02  0.22331180895E+02  0.00000000000E+00 0.  1.
         11    1    1    2    0    0  0.19390816490E+02  0.41567000385E+02  0.84867591788E+02  0.96469308182E+02  0.00000000000E+00 0. -1.
</event>
<event>
 6    1  0.4988969E-006  0.1032239E+03  0.7561462E-02  0.1273659E+00
          4   -1    0    0  501    0  0.00000000000E+00  0.00000000000E+00  0.90358929831E+01  0.90358929831E+01  0.00000000000E+00 0. -1.
         -4   -1    0    0    0  501 -0.00000000000E+00 -0.00000000000E+00 -0.18454600730E+04  0.18454600730E+04  0.00000000000E+00 0.  1.
          5    1    1    2  502    0 -0.67939680649E+02 -0.46642425766E+01 -0.65557705393E+03  0.65911782058E+03  0.41800000000E+01 0.  1.
         -5    1    1    2    0  502  0.53611474468E+02  0.89524045159E+01 -0.83213950178E+03  0.83392323302E+03  0.41800000000E+01 0.  1.
        -11    1    1    2    0    0  0.43886659057E+02  0.17226364441E+02 -0.27680778428E+03  0.28079411659E+03  0.00000000000E+00 0.  1.
         11    1    1    2    0    0 -0.29558452876E+02 -0.21514526380E+02 -0.71899839989E+02  0.80660795757E+02  0.00000000000E+00 0. -1.
</event>
<event>
 6    1  0.4988969E-006  0.1687288E+03  0.7561462E-02  0.1179180E+00
         -2   -1    0    0    0  501 -0.00000000000E+00  0.00000000000E+00  0.13370806275E+03  0.13370806275E+03  0.00000000000E+00 0.  1.
          2   -1    0    0  501    0  0.00000000000E+00 -0.00000000000E+00 -0.53530526920E+03  0.53530526920E+03  0.00000000000E+00 0. -1.
          5    1    1    2  502    0 -0.32849310748E+02 -0.14858483887E+02  0.29103435812E+02  0.46522404668E+02  0.41800000000E+01 0. -1.
         -5    1    1    2    0  502  0.10524523352E+03 -0.11025608546E+03  0.66544939283E+01  0.15262607329E+03  0.41800000000E+01 0.  1.
        -11    1    1    2    0    0 -0.17789758988E+02  0.80880334160E+01 -0.73367116406E+01  0.20873886727E+02  0.00000000000E+00 0.  1.
         11    1    1    2    0    0 -0.54606163783E+02  0.11702653593E+03 -0.43001842454E+03  0.44899096726E+03  0.00000000000E+00 0. -1.
</event>
<event>
 6    1  0.4988969E-006  0.1076816E+03  0.7561462E-02  0.1264924E+00
         -2   -1    0    0    0  501 -0.00000000000E+00  0.00000000000E+00  0.69340620117E+02  0.69340620117E+02  0.00000000000E+00 0.  1.
          2   -1    0    0  501    0  0.00000000000E+00 -0.00000000000E+00 -0.25994436884E+03  0.25994436884E+03  0.00000000000E+00 0. -1.
          5    1    1    2  502    0 -0.27350530154E+02 -0.16596265271E+02  0.75391567339E+01  0.33133047021E+02  0.41800000000E+01 0.  1.
         -5    1    1    2    0  502  0.59206722735E+02  0.83847827830E+02 -0.75579116332E+02  0.12753654172E+03  0.41800000000E+01 0.  1.
        -11    1    1    2    0    0 -0.16363292696E+02 -0.61825294902E+02 -0.23397644923E+02  0.68099737338E+02  0.00000000000E+00 0.  1.
         11    1    1    2    0    0 -0.15492899886E+02 -0.54262676573E+01 -0.99166144202E+02  0.10051566288E+03  0.00000000000E+00 0. -1.
</event>
<event>
 6    1  0.4988969E-006  0.1260708E+03  0.7561462E-02  0.1233405E+00
         -2   -1    0    0    0  501 -0.00000000000E+00  0.00000000000E+00  0.76909274821E+02  0.76909274821E+02  0.00000000000E+00 0.  1.
          2   -1    0    0  501    0  0.00000000000E+00 -0.00000000000E+00 -0.22861002309E+03  0.22861002309E+03  0.00000000000E+00 0. -1.
          5    1    1    2  502    0 -0.90122851516E+02 -0.55897638403E+02 -0.44436930404E+02  0.11505993016E+03  0.41800000000E+01 0. -1.
         -5    1    1    2    0  502  0.16930288169E+02  0.31821506147E+02 -0.41575936513E+02  0.55183999564E+02  0.41800000000E+01 0. -1.
        -11    1    1    2    0    0  0.89961143356E+02  0.23330857210E+02 -0.33166884371E+02  0.98678155794E+02  0.00000000000E+00 0.  1.
         11    1    1    2    0    0 -0.16768580009E+02  0.74527504588E+00 -0.32520996981E+02  0.36597212394E+02  0.00000000000E+00 0. -1.
</event>
<event>
 6    1  0.4988969E-006  0.1126362E+03  0.7561462E-02  0.1255764E+00
          2   -1    0    0  501    0  0.00000000000E+00  0.00000000000E+00  0.42464936785E+02  0.42464936785E+02  0.00000000000E+00 0. -1.
         -2   -1    0    0    0  501 -0.00000000000E+00 -0.00000000000E+00 -0.37017053117E+03  0.37017053117E+03  0.00000000000E+00 0.  1.
          5    1    1    2  502    0  0.67350667661E+02 -0.23333563976E+02 -0.20012567434E+03  0.21248135347E+03  0.41800000000E+01 0.  1.
         -5    1    1    2    0  502 -0.18756588152E+02  0.44621077889E+02 -0.37995031077E+02  0.61676129723E+02  0.41800000000E+01 0.  1.
        -11    1    1    2    0    0 -0.14989640788E+02 -0.55407303699E+02 -0.43550531864E+02  0.72050728378E+02  0.00000000000E+00 0. -1.
         11    1    1    2    0    0 -0.33604438721E+02  0.34119789786E+02 -0.46034357105E+02  0.66427256385E+02  0.00000000000E+00 0.  1.
</event>
<event>
 6    1  0.4988969E-006  0.1076855E+03  0.7561462E-02  0.1264917E+00
         -2   -1    0    0    0  501 -0.00000000000E+00  0.00000000000E+00  0.56266226718E+02  0.56266226718E+02  0.00000000000E+00 0.  1.
          2   -1    0    0  501    0  0.00000000000E+00 -0.00000000000E+00 -0.22156714163E+03  0.22156714163E+03  0.00000000000E+00 0. -1.
          5    1    1    2  502    0  0.49710093128E+02  0.32905198359E+02 -0.28570706954E+02  0.66238984999E+02  0.41800000000E+01 0.  1.
         -5    1    1    2    0  502 -0.30685274164E+02 -0.59793755494E+02 -0.63313224154E+02  0.92427896218E+02  0.41800000000E+01 0.  1.
        -11    1    1    2    0    0  0.32466608111E+02  0.12702862450E+02 -0.10028732362E+02  0.36276973819E+02  0.00000000000E+00 0.  1.
         11    1    1    2    0    0 -0.51491427075E+02  0.14185694686E+02 -0.63388251444E+02  0.82889513312E+02  0.00000000000E+00 0. -1.
</event>
<event>
 6    1  0.4988969E-006  0.9888954E+02  0.7561462E-02  0.1282649E+00
          4   -1    0    0  501    0  0.00000000000E+00  0.00000000000E+00  0.26834900949E+02  0.26834900949E+02  0.00000000000E+00 0. -1.
         -4   -1    0    0    0  501 -0.00000000000E+00 -0.00000000000E+00 -0.46095025015E+03  0.46095025015E+03  0.00000000000E+00 0.  1.
          5    1    1    2  502    0 -0.81663638359E+00 -0.54142597702E+02 -0.10742863276E+03  0.12037637358E+03  0.41800000000E+01 0.  1.
         -5    1    1    2    0  502 -0.96181344781E+01  0.70688458546E+02 -0.18244636553E+03  0.19594263287E+03  0.41800000000E+01 0.  1.
        -11    1    1    2    0    0 -0.24140179520E+02  0.12195680718E+02 -0.83112932526E+01  0.28294177686E+02  0.00000000000E+00 0. -1.
         11    1    1    2    0    0  0.34574950381E+02 -0.28741541562E+02 -0.13592905766E+03  0.14317196696E+03  0.00000000000E+00 0.  1.
</event>
<event>
 6    1  0.4988969E-006  0.1336120E+03  0.7561462E-02  0.1222192E+00
         -1   -1    0    0    0  501 -0.00000000000E+00  0.00000000000E+00  0.61161410084E+02  0.61161410084E+02  0.00000000000E+00 0.  1.
          1   -1    0    0  501    0  0.00000000000E+00 -0.00000000000E+00 -0.31428141434E+03  0.31428141434E+03  0.00000000000E+00 0. -1.
          5    1    1    2  502    0 -0.20554141444E+02 -0.28884477652E+02 -0.31284673055E+02  0.47465660723E+02  0.41800000000E+01 0.  1.
         -5    1    1    2    0  502  0.11932197669E+03  0.31956239242E+02 -0.93721441910E+02  0.15511323742E+03  0.41800000000E+01 0.  1.
        -11    1    1    2    0    0 -0.17470140068E+02  0.16801259154E+02 -0.62528460600E+01  0.25031703638E+02  0.00000000000E+00 0.  1.
         11    1    1    2    0    0 -0.81297695179E+02 -0.19873020745E+02 -0.12186104323E+03  0.14783222264E+03  0.00000000000E+00 0. -1.
</event>
<event>
 6    1  0.4988969E-006  0.1228700E+03  0.7561462E-02  0.1238436E+00
          2   -1    0    0  501    0  0.00000000000E+00  0.00000000000E+00  0.15936147859E+03  0.15936147859E+03  0.00000000000E+00 0. -1.
         -2   -1    0    0    0  501 -0.00000000000E+00 -0.00000000000E+00 -0.11417185012E+03  0.11417185012E+03  0.00000000000E+00 0.  1.
          5    1    1    2  502    0 -0.45482613487E+02 -0.57809409442E+02  0.24004270248E+01  0.73714519598E+02  0.41800000000E+01 0. -1.
         -5    1    1    2    0  502 -0.33890366603E+02  0.63395503084E+02  0.30099203421E+02  0.78044738493E+02  0.41800000000E+01 0. -1.
        -11    1    1    2    0    0  0.40633671827E+02 -0.33209492229E+02 -0.27720517243E+02  0.59349749254E+02  0.00000000000E+00 0.  1.
         11    1    1    2    0    0  0.38739308263E+02  0.27623398587E+02  0.40410515270E+02  0.62424321370E+02  0.00000000000E+00 0. -1.
</event>
<event>
 6    1  0.4988969E-006  0.6266897E+02  0.7561462E-02  0.1386961E+00
          1   -1    0    0  501    0  0.00000000000E+00  0.00000000000E+00  0.15723053540E+03  0.15723053540E+03  0.00000000000E+00 0. -1.
         -1   -1    0    0    0  501 -0.00000000000E+00 -0.00000000000E+00 -0.80044272080E+02  0.80044272080E+02  0.00000000000E+00 0.  1.
          5    1    1    2  502    0  0.47467280083E+02  0.24350778439E+01  0.82380679971E+02  0.95200426023E+02  0.41800000000E+01 0. -1.
         -5    1    1    2    0  502 -0.50221600557E+02 -0.95630725945E+01 -0.58735693822E+01  0.51629766000E+02  0.41800000000E+01 0. -1.
        -11    1    1    2    0    0 -0.70464003918E+01  0.13084618556E+02 -0.42889732916E+02  0.45391499103E+02  0.00000000000E+00 0.  1.
         11    1    1    2    0    0  0.98007208662E+01 -0.59566238057E+01  0.43568885643E+02  0.45053116350E+02  0.00000000000E+00 0. -1.
</event>
<event>
 6    1  0.4988969E-006  0.1476925E+03  0.7561462E-02  0.1203337E+00
          2   -1    0    0  501    0  0.00000000000E+00  0.00000000000E+00  0.69485913358E+03  0.69485913358E+03  0.00000000000E+00 0. -1.
         -2   -1    0    0    0  501 -0.00000000000E+00 -0.00000000000E+00 -0.37670446475E+02  0.37670446475E+02  0.00000000000E+00 0.  1.
          5    1    1    2  502    0 -0.14263456688E+02 -0.11185483989E+03  0.23914835938E+03  0.26443214933E+03  0.41800000000E+01 0.  1.
         -5    1    1    2    0  502  0.46930546862E+02  0.18178313187E+01  0.37889398057E+02  0.60488508203E+02  0.41800000000E+01 0.  1.
        -11    1    1    2    0    0  0.18911636210E+02  0.62332427891E+02  0.26352162719E+03  0.27145281275E+03  0.00000000000E+00 0.  1.
         11    1    1    2    0    0 -0.51578726384E+02  0.47704580680E+02  0.11662930247E+03  0.13615610977E+03  0.00000000000E+00 0. -1.
</event>
<event>
 6    1  0.4988969E-006  0.8429652E+02  0.7561462E-02  0.1317283E+00
         -4   -1    0    0    0  501 -0.00000000000E+00  0.00000000000E+00  0.12157269586E+03  0.12157269586E+03  0.00000000000E+00 0.  1.
          4   -1    0    0  501    0  0.00000000000E+00 -0.00000000000E+00 -0.14143674149E+03  0.14143674149E+03  0.00000000000E+00 0. -1.
          5    1    1    2  502    0 -0.25275396558E+02 -0.73468675967E+01 -0.53161747261E+02  0.59468192393E+02  0.41800000000E+01 0.  1.
         -5    1    1    2    0  502 -0.91762234992E-01 -0.57768463742E+02  0.60883199540E+02  0.84032375960E+02  0.41800000000E+01 0.  1.
        -11    1    1    2    0    0 -0.13365719927E+02  0.24435074255E+02  0.28698526577E+02  0.39991508483E+02  0.00000000000E+00 0.  1.
         11    1    1    2    0    0  0.38732878720E+02  0.40680257083E+02 -0.56284024492E+02  0.79517360515E+02  0.00000000000E+00 0. -1.
</event>
<event>
 6    1  0.4988969E-006  0.1982702E+03  0.7561462E-02  0.1151207E+00
          2   -1    0    0  501    0  0.00000000000E+00  0.00000000000E+00  0.17467637975E+03  0.17467637975E+03  0.00000000000E+00 0. -1.
         -2   -1    0    0    0  501 -0.00000000000E+00 -0.00000000000E+00 -0.28690303028E+03  0.28690303028E+03  0.00000000000E+00 0.  1.
          5    1    1    2  502    0 -0.38940640277E+02  0.25833952342E+02  0.18865020378E+02  0.50568052688E+02  0.41800000000E+01 0.  1.
         -5    1    1    2    0  502 -0.20474058153E+02  0.15345778346E+03 -0.12787451272E+03  0.20084282851E+03  0.41800000000E+01 0.  1.
        -11    1    1    2    0    0  0.30420575135E+02 -0.15171555359E+03 -0.35500285686E+02  0.15875544361E+03  0.00000000000E+00 0.  1.
         11    1    1    2    0    0  0.28994123295E+02 -0.27576182214E+02  0.32283127490E+02  0.51413085218E+02  0.00000000000E+00 0. -1.
</event>
<event>
 6    1  0.4988969E-006  0.1012091E+03  0.7561462E-02  0.1277774E+00
          3   -1    0    0  501    0  0.00000000000E+00  0.00000000000E+00  0.19009319358E+03  0.19009319358E+03  0.00000000000E+00 0.  1.
         -3   -1    0    0    0  501 -0.00000000000E+00 -0.00000000000E+00 -0.78203435359E+02  0.78203435359E+02  0.00000000000E+00 0. -1.
          5    1    1    2  502    0 -0.48833515078E+02  0.41506687383E+02  0.28402458472E+02  0.70225987637E+02  0.41800000000E+01 0.  1.
         -5    1    1    2    0  502  0.27179843843E+02 -0.43427366954E+02 -0.24128192399E+02  0.56783115275E+02  0.41800000000E+01 0.  1.
        -11    1    1    2    0    0 -0.94779999480E+01 -0.36287474437E+02  0.24952384231E+02  0.45047028347E+02  0.00000000000E+00 0. -1.
         11    1    1    2    0    0  0.31131671183E+02  0.38208154009E+02  0.82663107922E+02  0.96240497685E+02  0.00000000000E+00 0.  1.
</event>
<event>
 6    1  0.4988969E-006  0.1520695E+03  0.7561462E-02  0.1197953E+00
         -2   -1    0    0    0  501 -0.00000000000E+00  0.00000000000E+00  0.74859038535E+02  0.74859038535E+02  0.00000000000E+00 0.  1.
          2   -1    0    0  501    0  0.00000000000E+00 -0.00000000000E+00 -0.60563066141E+03  0.60563066141E+03  0.00000000000E+00 0. -1.
          5    1    1    2  502    0  0.43380586055E+02  0.65903665512E+02 -0.30041418328E+02  0.84528856550E+02  0.41800000000E+01 0.  1.
         -5    1    1    2    0  502  0.65240437423E+02 -0.55600116295E+02 -0.11570816251E+02  0.86597019555E+02  0.41800000000E+01 0.  1.
        -11    1    1    2    0    0 -0.68350117779E+02  0.36564053923E+02 -0.32051391601E+03  0.32975420998E+03  0.00000000000E+00 0. -1.
         11    1    1    2    0    0 -0.40270905700E+02 -0.46867603140E+02 -0.16864547229E+03  0.17960961387E+03  0.00000000000E+00 0.  1.
</event>
<event>
 6    1  0.4988969E-006  0.1234857E+03  0.7561462E-02  0.1237455E+00
          1   -1    0    0  501    0  0.00000000000E+00  0.00000000000E+00  0.53144486143E+03  0.53144486143E+03  0.00000000000E+00 0. -1.
         -1   -1    0    0    0  501 -0.00000000000E+00 -0.00000000000E+00 -0.52259079636E+02  0.52259079636E+02  0.00000000000E+00 0.  1.
          5    1    1    2  502    0 -0.14190010036E+02 -0.58275765508E+02  0.27752184240E+03  0.28395997366E+03  0.41800000000E+01 0. -1.
         -5    1    1    2    0  502 -0.77844900680E+01 -0.47294769301E+02 -0.71775451846E+01  0.48645483282E+02  0.41800000000E+01 0.  1.
        -11    1    1    2    0    0 -0.49312021432E+00  0.11454108280E+03  0.18117986058E+03  0.21435028504E+03  0.00000000000E+00 0.  1.
         11    1    1    2    0    0  0.22467620318E+02 -0.89705479899E+01  0.27661624002E+02  0.36748199091E+02  0.00000000000E+00 0. -1.
</event>
<event>
 6    1  0.4988969E-006  0.7693971E+02  0.7561462E-02  0.1337967E+00
         -2   -1    0    0    0  501 -0.00000000000E+00  0.00000000000E+00  0.10074668653E+03  0.10074668653E+03  0.00000000000E+00 0.  1.
          2   -1    0    0  501    0  0.00000000000E+00 -0.00000000000E+00 -0.12755121572E+03  0.12755121572E+03  0.00000000000E+00 0. -1.
          5    1    1    2  502    0  0.17068643080E+02 -0.29679289574E+02 -0.60812239368E+02  0.69912800424E+02  0.41800000000E+01 0.  1.
         -5    1    1    2    0  502 -0.27913347671E+02 -0.29598443881E+01  0.52931555163E+02  0.60059450455E+02  0.41800000000E+01 0.  1.
        -11    1    1    2    0    0  0.63360564941E+01  0.61485887867E+02  0.28910752656E+01  0.61879062168E+02  0.00000000000E+00 0.  1.
         11    1    1    2    0    0  0.45086480969E+01 -0.28846753905E+02 -0.21814920256E+02  0.36446589199E+02  0.00000000000E+00 0. -1.
</event>
<event>
 6    1  0.4988969E-006  0.1036566E+03  0.7561462E-02  0.1272789E+00
         -1   -1    0    0    0  501 -0.00000000000E+00  0.00000000000E+00  0.18314642239E+02  0.18314642239E+02  0.00000000000E+00 0.  1.
          1   -1    0    0  501    0  0.00000000000E+00 -0.00000000000E+00 -0.71707734513E+03  0.71707734513E+03  0.00000000000E+00 0. -1.
          5    1    1    2  502    0  0.35859402204E+02  0.27964839316E+02 -0.24324121250E+03  0.24749078533E+03  0.41800000000E+01 0.  1.
         -5    1    1    2    0  502 -0.28688566128E+02 -0.56869870594E+02 -0.95827548195E+02  0.11514168403E+03  0.41800000000E+01 0.  1.
        -11    1    1    2    0    0  0.24285930827E+02  0.52927480180E+02 -0.21123855437E+03  0.21911835032E+03  0.00000000000E+00 0. -1.
         11    1    1    2    0    0 -0.31456766903E+02 -0.24022448902E+02 -0.14845538783E+03  0.15364116769E+03  0.00000000000E+00 0.  1.
</event>
<event>
 6    1  0.4988969E-006  0.8438287E+02  0.7561462E-02  0.1317054E+00
          2   -1    0    0  501    0  0.00000000000E+00  0.00000000000E+00  0.38011597724E+03  0.38011597724E+03  0.00000000000E+00 0. -1.
         -2   -1    0    0    0  501 -0.00000000000E+00 -0.00000000000E+00 -0.46071055170E+02  0.46071055170E+02  0.00000000000E+00 0.  1.
          5    1    1    2  502    0 -0.31142338144E+02 -0.29648829816E+02  0.71486835964E+02  0.83526872626E+02  0.41800000000E+01 0.  1.
         -5    1    1    2    0  502  0.48733327182E+02  0.33206667526E+02 -0.48887340194E+01  0.59321092932E+02  0.41800000000E+01 0.  1.
        -11    1    1    2    0    0  0.20593180835E+02  0.13500118134E+02  0.18230094335E+02  0.30637699424E+02  0.00000000000E+00 0.  1.
         11    1    1    2    0    0 -0.38184169873E+02 -0.17057955843E+02  0.24921672579E+03  0.25270136743E+03  0.00000000000E+00 0. -1.
</event>
<event>
 6    1  0.4988969E-006  0.1989591E+03  0.7561462E-02  0.1150620E+00
         -1   -1    0    0    0  501 -0.00000000000E+00  0.00000000000E+00  0.22754118488E+03  0.22754118488E+03  0.00000000000E+00 0.  1.
          1   -1    0    0  501    0  0.00000000000E+00 -0.00000000000E+00 -0.42586753707E+03  0.42586753707E+03  0.00000000000E+00 0. -1.
          5    1    1    2  502    0 -0.12357535351E+02 -0.29204778080E+02  0.57191506965E+02  0.65528380200E+02  0.41800000000E+01 0. -1.
         -5    1    1    2    0  502 -0.17095594850E+03  0.52683545519E+02  0.78430922160E+02  0.19537239889E+03  0.41800000000E+01 0.  1.
        -11    1    1    2    0    0  0.17508700496E+02 -0.11092916492E+02 -0.11883087408E+03  0.12062497263E+03  0.00000000000E+00 0.  1.
         11    1    1    2    0    0  0.16580478335E+03 -0.12385850947E+02 -0.21511790724E+03  0.27188297023E+03  0.00000000000E+00 0. -1.
</event>
<event>
 6    1  0.4988969E-006  0.9470842E+02  0.7561462E-02  0.1291834E+00
         -1   -1    0    0    0  501 -0.00000000000E+00  0.00000000000E+00  0.76252182763E+02  0.76252182763E+02  0.00000000000E+00 0.  1.
          1   -1    0    0  501    0  0.00000000000E+00 -0.00000000000E+00 -0.19428958528E+03  0.19428958528E+03  0.00000000000E+00 0. -1.
          5    1    1    2  502    0  0.32395314817E+02  0.27550774087E+02  0.10106527145E+01  0.42743366665E+02  0.41800000000E+01 0.  1.
         -5    1    1    2    0  502 -0.62774130667E+02 -0.61516520807E+02 -0.34685869962E+02  0.94580419688E+02  0.41800000000E+01 0.  1.
        -11    1    1    2    0    0  0.39041731005E+02  0.25847732416E+02 -0.10184066264E+03  0.11208872646E+03  0.00000000000E+00 0. -1.
         11    1    1    2    0    0 -0.86629151551E+01  0.81180143042E+01  0.17478477377E+02  0.21129255231E+02  0.00000000000E+00 0.  1.
</event>
<event>
 6    1  0.4988969E-006  0.9104748E+02  0.7561462E-02  0.1300335E+00
         -2   -1    0    0    0  501 -0.00000000000E+00  0.00000000000E+00  0.52378443239E+02  0.52378443239E+02  0.00000000000E+00 0.  1.
          2   -1    0    0  501    0  0.00000000000E+00 -0.00000000000E+00 -0.23952655561E+03  0.23952655561E+03  0.00000000000E+00 0. -1.
          5    1    1    2  502    0 -0.18261484295E+02 -0.57980264144E+02 -0.81778703535E+02  0.10198245727E+03  0.41800000000E+01 0. -1.
         -5    1    1    2    0  502  0.96838412070E+01  0.21304120380E+02  0.19633331086E+02  0.30831516590E+02  0.41800000000E+01 0.  1.
        -11    1    1    2    0    0  0.47823302835E+02  0.73185461386E+01 -0.73513730757E+02  0.88005102246E+02  0.00000000000E+00 0.  1.
         11    1    1    2    0    0 -0.39245659747E+02  0.29357597626E+02 -0.51489009168E+02  0.71085922745E+02  0.00000000000E+00 0. -1.
</event>
<event>
 6    1  0.4988969E-006  0.7422832E+02  0.7561462E-02  0.1346277E+00
          1   -1    0    0  501    0  0.00000000000E+00  0.00000000000E+00  0.57113926841E+02  0.57113926841E+02  0.00000000000E+00 0. -1.
         -1   -1    0    0    0  501 -0.00000000000E+00 -0.00000000000E+00 -0.30034651375E+03  0.30034651375E+03  0.00000000000E+00 0.  1.
          5    1    1    2  502    0  0.89681199512E+01 -0.52682476096E+01  0.18559008535E+02  0.21681577575E+02  0.41800000000E+01 0. -1.
         -5    1    1    2    0  502  0.42006805330E+02 -0.30901191160E+02 -0.20382351832E+03  0.21043040258E+03  0.41800000000E+01 0. -1.
        -11    1    1    2    0    0 -0.32091652309E+02 -0.11157853770E+02 -0.65550023058E+02  0.73832089037E+02  0.00000000000E+00 0.  1.
         11    1    1    2    0    0 -0.18883272972E+02  0.47327292540E+02  0.75819459418E+01  0.51516371393E+02  0.00000000000E+00 0. -1.
</event>
<event>
 6    1  0.4988969E-006  0.1262115E+03  0.7561462E-02  0.1233188E+00
         -2   -1    0    0    0  501 -0.00000000000E+00  0.00000000000E+00  0.10302008313E+04  0.10302008313E+04  0.00000000000E+00 0.  1.
          2   -1    0    0  501    0  0.00000000000E+00 -0.00000000000E+00 -0.21050358485E+02  0.21050358485E+02  0.00000000000E+00 0. -1.
          5    1    1    2  502    0 -0.18505956346E+02  0.18300917621E+02  0.41659653222E+02  0.49299017359E+02  0.41800000000E+01 0.  1.
         -5    1    1    2    0  502  0.13895271518E+02 -0.10355408978E+03  0.68903245343E+03  0.69692160417E+03  0.41800000000E+01 0.  1.
        -11    1    1    2    0    0 -0.21261698297E+02 -0.94909245240E+01  0.84145910752E+02  0.87307913496E+02  0.00000000000E+00 0. -1.
         11    1    1    2    0    0  0.25872383124E+02  0.94744096688E+02  0.19431245539E+03  0.21772265474E+03  0.00000000000E+00 0.  1.
</event>
<event>
 6    1  0.4988969E-006  0.1228860E+03  0.7561462E-02  0.1238411E+00
          2   -1    0    0  501    0  0.00000000000E+00  0.00000000000E+00  0.17168724251E+03  0.17168724251E+03  0.00000000000E+00 0. -1.
         -2   -1    0    0    0  501 -0.00000000000E+00 -0.00000000000E+00 -0.11181141762E+03  0.11181141762E+03  0.00000000000E+00 0.  1.
          5    1    1    2  502    0  0.42955190096E+02  0.37083493541E+01 -0.35327151817E+01  0.43460932890E+02  0.41800000000E+01 0.  1.
         -5    1    1    2    0  502 -0.83999252816E+02  0.57414232264E+02 -0.73673993642E+01  0.10209808771E+03  0.41800000000E+01 0.  1.
        -11    1    1    2    0    0  0.42856575842E+02 -0.35299250593E+01 -0.43941624948E+01  0.43225630450E+02  0.00000000000E+00 0.  1.
         11    1    1    2    0    0 -0.18125131222E+01 -0.57592656558E+02  0.75170101933E+02  0.94714009090E+02  0.00000000000E+00 0. -1.
</event>
<event>
 6    1  0.4988969E-006  0.1044872E+03  0.7561462E-02  0.1271133E+00
          1   -1    0    0  501    0  0.00000000000E+00  0.00000000000E+00  0.12832668690E+03  0.12832668690E+03  0.00000000000E+00 0. -1.
         -1   -1    0    0    0  501 -0.00000000000E+00 -0.00000000000E+00 -0.11514996255E+03  0.11514996255E+03  0.00000000000E+00 0.  1.
          5    1    1    2  502    0 -0.44017310738E+02 -0.56497451878E+02  0.15274501994E+02  0.73350313731E+02  0.41800000000E+01 0.  1.
         -5    1    1    2    0  502  0.22843942934E+02  0.32049041678E+02 -0.43672840473E+02  0.58938749530E+02  0.41800000000E+01 0.  1.
        -11    1    1    2    0    0 -0.17154723100E+02 -0.27913128705E+02 -0.23197331967E+01  0.32845219452E+02  0.00000000000E+00 0.  1.
         11    1    1    2    0    0  0.38328090904E+02  0.52361538905E+02  0.43894796022E+02  0.78342366742E+02  0.00000000000E+00 0. -1.
</event>
<event>
 6    1  0.4988969E-006  0.2455226E+03  0.7561462E-02  0.1116168E+00
          1   -1    0    0  501    0  0.00000000000E+00  0.00000000000E+00  0.10681137671E+03  0.10681137671E+03  0.00000000000E+00 0. -1.
         -1   -1    0    0    0  501 -0.00000000000E+00 -0.00000000000E+00 -0.58756985758E+03  0.58756985758E+03  0.00000000000E+00 0.  1.
          5    1    1    2  502    0  0.91297715420E+01  0.28711996666E+02 -0.72613256114E+02  0.78726671748E+02  0.41800000000E+01 0. -1.
         -5    1    1    2    0  502  0.21683752451E+03 -0.26123591529E+02 -0.18810057295E+03  0.28827114322E+03  0.41800000000E+01 0. -1.
        -11    1    1    2    0    0 -0.55954713210E+02  0.37688994532E+02 -0.55095966212E+02  0.87103132734E+02  0.00000000000E+00 0. -1.
         11    1    1    2    0    0 -0.17001258284E+03 -0.40277399669E+02 -0.16494868559E+03  0.24028028660E+03  0.00000000000E+00 0.  1.
</event>
<event>
 6    1  0.4988969E-006  0.1123945E+03  0.7561462E-02  0.1256199E+00
         -2   -1    0    0    0  501 -0.00000000000E+00  0.00000000000E+00  0.68793868530E+02  0.68793868530E+02  0.00000000000E+00 0.  1.
          2   -1    0    0  501    0  0.00000000000E+00 -0.00000000000E+00 -0.21068733263E+03  0.21068733263E+03  0.00000000000E+00 0. -1.
          5    1    1    2  502    0 -0.18373716241E+02 -0.94673083331E+02 -0.55646313035E+02  0.11142069247E+03  0.41800000000E+01 0.  1.
         -5    1    1    2    0  502  0.73610216283E+01  0.39577990389E+02 -0.19054645226E+02  0.44734258319E+02  0.41800000000E+01 0.  1.
        -11    1    1    2    0    0  0.68413715480E+01  0.71007218488E+02 -0.21107269346E+02  0.74393186928E+02  0.00000000000E+00 0.  1.
         11    1    1    2    0    0  0.41713230644E+01 -0.15912125546E+02 -0.46085236487E+02  0.48933063440E+02  0.00000000000E+00 0. -1.
</event>
<event>
 6    1  0.4988969E-006  0.1074874E+03  0.7561462E-02  0.1265295E+00
         -2   -1    0    0    0  501 -0.00000000000E+00  0.00000000000E+00  0.85954151559E+02  0.85954151559E+02  0.00000000000E+00 0.  1.
          2   -1    0    0  501    0  0.00000000000E+00 -0.00000000000E+00 -0.29350084424E+03  0.29350084424E+03  0.00000000000E+00 0. -1.
          5    1    1    2  502    0  0.38916256206E+02  0.43888238077E+02 -0.14795936643E+02  0.60638639329E+02  0.41800000000E+01 0. -1.
         -5    1    1    2    0  502 -0.78450250463E+02  0.86093375200E+01  0.16184223911E+02  0.80671952957E+02  0.41800000000E+01 0. -1.
        -11    1    1    2    0    0  0.38635857962E+02 -0.17991774056E+02 -0.21835610705E+02  0.47887653409E+02  0.00000000000E+00 0.  1.
         11    1    1    2    0    0  0.89813629468E+00 -0.34505801541E+02 -0.18709936925E+03  0.19025675011E+03  0.00000000000E+00 0. -1.
</event>
<event>
 6    1  0.4988969E-006  0.1279050E+03  0.7561462E-02  0.1230598E+00
          1   -1    0    0  501    0  0.00000000000E+00  0.00000000000E+00  0.34750776557E+03  0.34750776557E+03  0.00000000000E+00 0. -1.
         -1   -1    0    0    0  501 -0.00000000000E+00 -0.00000000000E+00 -0.49411700503E+02  0.49411700503E+02  0.00000000000E+00 0.  1.
          5    1    1    2  502    0 -0.10279389814E+03 -0.23757417857E+02  0.10111992809E+03  0.14619751248E+03  0.41800000000E+01 0. -1.
         -5    1    1    2    0  502  0.34642375075E+02  0.12756960442E+02  0.30617486551E+02  0.48142881855E+02  0.41800000000E+01 0. -1.
        -11    1    1    2    0    0  0.23866550687E+02  0.49138188849E+02  0.10154783983E+03  0.11530887919E+03  0.00000000000E+00 0.  1.
         11    1    1    2    0    0  0.44284972380E+02 -0.38137731434E+02  0.64810810593E+02  0.87270192548E+02  0.00000000000E+00 0. -1.
</event>
<event>
 6    1  0.5467424E-006  0.1331425E+03  0.7561462E-02  0.1222866E+00
          1   -1    0    0  501    0  0.00000000000E+00  0.00000000000E+00  0.15403110784E+03  0.15403110784E+03  0.00000000000E+00 0. -1.
         -1   -1    0    0    0  501 -0.00000000000E+00 -0.00000000000E+00 -0.14930735136E+03  0.14930735136E+03  0.00000000000E+00 0.  1.
          5    1    1    2  502    0  0.10147144837E+02 -0.12799308432E+03 -0.13690112732E+02  0.12919011482E+03  0.41800000000E+01 0.  1.
         -5    1    1    2    0  502 -0.18442309507E+02  0.22573946606E+02  0.18304523288E+02  0.34673185866E+02  0.41800000000E+01 0.  1.
        -11    1    1    2    0    0 -0.60913354491E+01  0.88743211102E+01 -0.34321546242E+02  0.35969799543E+02  0.00000000000E+00 0.  1.
         11    1    1    2    0    0  0.14386500119E+02  0.96544816602E+02  0.34430892171E+02  0.10350535896E+03  0.00000000000E+00 0. -1.
</event>
<event>
 6    1  0.4988969E-006  0.1296698E+03  0.7561462E-02  0.1227947E+00
         -2   -1    0    0    0  501 -0.00000000000E+00  0.00000000000E+00  0.27983149693E+03  0.27983149693E+03  0.00000000000E+00 0.  1.
          2   -1    0    0  501    0  0.00000000000E+00 -0.00000000000E+00 -0.82343926037E+02  0.82343926037E+02  0.00000000000E+00 0. -1.
          5    1    1    2  502    0  0.15554355502E+02 -0.87195946363E+02  0.47681875650E+02  0.10067822358E+03  0.41800000000E+01 0. -1.
         -5    1    1    2    0  502 -0.60549842523E+02 -0.10755371455E+01  0.98616014713E+02  0.11580168810E+03  0.41800000000E+01 0. -1.
        -11    1    1    2    0    0 -0.76924917856E+01  0.31858637423E+02 -0.21878932989E+02  0.39406026406E+02  0.00000000000E+00 0.  1.
         11    1    1    2    0    0  0.52687978807E+02  0.56412846085E+02  0.73068613515E+02  0.10628948488E+03  0.00000000000E+00 0. -1.
</event>
<event>
 6    1  0.4988969E-006  0.9359848E+02  0.7561462E-02  0.1294364E+00
          1   -1    0    0  501    0  0.00000000000E+00  0.00000000000E+00  0.71161692111E+02  0.71161692111E+02  0.00000000000E+00 0. -1.
         -1   -1    0    0    0  501 -0.00000000000E+00 -0.00000000000E+00 -0.17814800940E+03  0.17814800940E+03  0.00000000000E+00 0.  1.
          5    1    1    2  502    0  0.16662304129E+02 -0.39631239929E+02  0.95658608666E+01  0.44240769109E+02  0.41800000000E+01 0.  1.
         -5    1    1    2    0  502 -0.40787622830E+02  0.39568902097E+02 -0.89609521487E+02  0.10619165189E+03  0.41800000000E+01 0.  1.
        -11    1    1    2    0    0 -0.60066260455E+01  0.38057777337E+02 -0.32049017523E+02  0.50116000404E+02  0.00000000000E+00 0. -1.
         11    1    1    2    0    0  0.30131944747E+02 -0.37995439505E+02  0.51063608497E+01  0.48761280116E+02  0.00000000000E+00 0.  1.
</event>
<event>
 6    1  0.6207137E-006  0.1687028E+03  0.7561462E-02  0.1179207E+00
         -1   -1    0    0    0  501 -0.00000000000E+00  0.00000000000E+00  0.47599729998E+02  0.47599729998E+02  0.00000000000E+00 0.  1.
          1   -1    0    0  501    0  0.00000000000E+00 -0.00000000000E+00 -0.65658812145E+03  0.65658812145E+03  0.00000000000E+00 0. -1.
          5    1    1    2  502    0  0.10131088032E+03 -0.12422153747E+03 -0.23751365007E+03  0.28657475676E+03  0.41800000000E+01 0.  1.
         -5    1    1    2    0  502 -0.16472293115E+02  0.12779925658E+02 -0.75612996319E+02  0.78545913659E+02  0.41800000000E+01 0.  1.
        -11    1    1    2    0    0  0.11171373013E+02  0.21522526849E+02 -0.13947911647E+02  0.27974327092E+02  0.00000000000E+00 0. -1.
         11    1    1    2    0    0 -0.96009960216E+02  0.89919084959E+02 -0.28191383342E+03  0.31109285394E+03  0.00000000000E+00 0.  1.
</event>
<event>
 6    1  0.4988969E-006  0.1450619E+03  0.7561462E-02  0.1206676E+00
         -1   -1    0    0    0  501 -0.00000000000E+00  0.00000000000E+00  0.86137478843E+03  0.86137478843E+03  0.00000000000E+00 0.  1.
          1   -1    0    0  501    0  0.00000000000E+00 -0.00000000000E+00 -0.25807223144E+02  0.25807223144E+02  0.00000000000E+00 0. -1.
          5    1    1    2  502    0 -0.61051508803E+02 -0.44344100443E+02  0.26888143065E+03  0.27929980687E+03  0.41800000000E+01 0. -1.
         -5    1    1    2    0  502  0.14044569878E+02  0.98676078336E+02  0.33099317462E+03  0.34569954067E+03  0.41800000000E+01 0.  1.
        -11    1    1    2    0    0 -0.19042305913E+02 -0.43996150565E+02  0.10219233114E+03  0.11287844446E+03  0.00000000000E+00 0. -1.
         11    1    1    2    0    0  0.66049244838E+02 -0.10335827328E+02  0.13350062887E+03  0.14930421956E+03  0.00000000000E+00 0.  1.
</event>
<event>
 6    1  0.4988969E-006  0.1107970E+03  0.7561462E-02  0.1259101E+00
          2   -1    0    0  501    0  0.00000000000E+00  0.00000000000E+00  0.88027247401E+02  0.88027247401E+02  0.00000000000E+00 0. -1.
         -2   -1    0    0    0  501 -0.00000000000E+00 -0.00000000000E+00 -0.14953092863E+03  0.14953092863E+03  0.00000000000E+00 0.  1.
          5    1    1    2  502    0  0.40207616188E+02 -0.26973613151E+02 -0.14912117413E+02  0.50833766845E+02  0.41800000000E+01 0. -1.
         -5    1    1    2    0  502 -0.76002684484E+02  0.28480541768E+02 -0.36055789238E+02  0.88910301123E+02  0.41800000000E+01 0. -1.
        -11    1    1    2    0    0 -0.13739547797E+02 -0.31117147576E+02 -0.19810188569E+02  0.39363633192E+02  0.00000000000E+00 0.  1.
         11    1    1    2    0    0  0.49534616093E+02  0.29610218958E+02  0.92744139884E+01  0.58450474874E+02  0.00000000000E+00 0. -1.
</event>
<event>
 6    1  0.4988969E-006  0.1331559E+03  0.7561462E-02  0.1222847E+00
         -1   -1    0    0    0  501 -0.00000000000E+00  0.00000000000E+00  0.27482397212E+03  0.27482397212E+03  0.00000000000E+00 0.  1.
          1   -1    0    0  501    0  0.00000000000E+00 -0.00000000000E+00 -0.81795561292E+02  0.81795561292E+02  0.00000000000E+00 0. -1.
          5    1    1    2  502    0  0.40140912568E+02 -0.20587322184E+02  0.88009608974E+02  0.98986334249E+02  0.41800000000E+01 0. -1.
         -5    1    1    2    0  502 -0.59044030836E+02 -0.78672614169E+02  0.38880062812E+02  0.10585230031E+03  0.41800000000E+01 0. -1.
        -11    1    1    2    0    0  0.43008182030E+02  0.40646712011E+02  0.65674971953E+02  0.88402832873E+02  0.00000000000E+00 0.  1.
         11    1    1    2    0    0 -0.24105063763E+02  0.58613224342E+02  0.46376708699E+00  0.63378065975E+02  0.00000000000E+00 0. -1.
</event>
<event>
 6    1  0.4988969E-006  0.8920349E+02  0.7561462E-02  0.1304792E+00
          2   -1    0    0  501    0  0.00000000000E+00  0.00000000000E+00  0.69767506999E+02  0.69767506999E+02  0.00000000000E+00 0.  1.
         -2   -1    0    0    0  501 -0.00000000000E+00 -0.00000000000E+00 -0.21955729526E+03  0.21955729526E+03  0.00000000000E+00 0. -1.
          5    1    1    2  502    0  0.26347866579E+01  0.52772228509E+02 -0.47696489719E+02  0.71304121438E+02  0.41800000000E+01 0.  1.
         -5    1    1    2    0  502  0.36995358467E+02 -0.69890611343E+02 -0.81503757829E+02  0.11363841359E+03  0.41800000000E+01 0.  1.
        -11    1    1    2    0    0 -0.21223376059E+02  0.17940635706E+02 -0.57090213523E+02  0.63494807512E+02  0.00000000000E+00 0. -1.
         11    1    1    2    0    0 -0.18406769066E+02 -0.82225287228E+00  0.36500672809E+02  0.40887459724E+02  0.00000000000E+00 0.  1.
</event>
<event>
 6    1  0.4988969E-006  0.2250066E+03  0.7561462E-02  0.1130205E+00
         -2   -1    0    0    0  501 -0.00000000000E+00  0.00000000000E+00  0.43021997839E+02  0.43021997839E+02  0.00000000000E+00 0.  1.
          2   -1    0    0  501    0  0.00000000000E+00 -0.00000000000E+00 -0.14418729631E+04  0.14418729631E+04  0.00000000000E+00 0. -1.
          5    1    1    2  502    0  0.12605348940E+02 -0.11273694948E+02 -0.74803540911E+01  0.18958352170E+02  0.41800000000E+01 0. -1.
         -5    1    1    2    0  502  0.92977120492E+02  0.19757126718E+03 -0.51458954518E+03  0.55901612048E+03  0.41800000000E+01 0. -1.
        -11    1    1    2    0    0 -0.27243915441E+02 -0.43643852638E+02 -0.91692325617E+02  0.10514037939E+03  0.00000000000E+00 0.  1.
         11    1    1    2    0    0 -0.78338553990E+02 -0.14265371960E+03 -0.78508874034E+03  0.80178010886E+03  0.00000000000E+00 0. -1.
</event>
<event>
 6    1  0.4988969E-006  0.2300593E+03  0.7561462E-02  0.1126598E+00
          2   -1    0    0  501    0  0.00000000000E+00  0.00000000000E+00  0.27156711462E+03  0.27156711462E+03  0.00000000000E+00 0. -1.
         -2   -1    0    0    0  501 -0.00000000000E+00 -0.00000000000E+00 -0.97476111585E+03  0.97476111585E+03  0.00000000000E+00 0.  1.
          5    1    1    2  502    0  0.52894551534E+02 -0.47994488635E+02  0.14519260223E+02  0.73004012484E+02  0.41800000000E+01 0. -1.
         -5    1    1    2    0  502 -0.13694367134E+03  0.16844903640E+03 -0.89838151927E+03  0.92424859943E+03  0.41800000000E+01 0.  1.
        -11    1    1    2    0    0 -0.18058629704E+02 -0.30074065160E+02  0.38346445489E+02  0.51971274601E+02  0.00000000000E+00 0.  1.
         11    1    1    2    0    0  0.10210774951E+03 -0.90380482601E+02  0.14232181232E+03  0.19710434396E+03  0.00000000000E+00 0. -1.
</event>
<event>
 6    1  0.4988969E-006  0.1217589E+03  0.7561462E-02  0.1240223E+00
         -2   -1    0    0    0  501 -0.00000000000E+00  0.00000000000E+00  0.64068736420E+02  0.64068736420E+02  0.00000000000E+00 0.  1.
          2   -1    0    0  501    0  0.00000000000E+00 -0.00000000000E+00 -0.34941134350E+03  0.34941134350E+03  0.00000000000E+00 0. -1.
          5    1    1    2  502    0 -0.29318537873E+02  0.94333007890E+02 -0.37862060441E+02  0.10587398671E+03  0.41800000000E+01 0.  1.
         -5    1    1    2    0  502 -0.13666629753E+02 -0.40944660819E+02 -0.92554853206E+01  0.44343865719E+02  0.41800000000E+01 0.  1.
        -11    1    1    2    0    0  0.22880257910E+02  0.16723625043E+02 -0.12793137767E+03  0.13103290896E+03  0.00000000000E+00 0. -1.
         11    1    1    2    0    0  0.20104909716E+02 -0.70111972113E+02 -0.11029368364E+03  0.13222931853E+03  0.00000000000E+00 0.  1.
</event>
<event>
 6    1  0.4988969E-006  0.9740200E+02  0.7561462E-02  0.1285856E+00
          1   -1    0    0  501    0  0.00000000000E+00  0.00000000000E+00  0.19052569047E+03  0.19052569047E+03  0.00000000000E+00 0. -1.
         -1   -1    0    0    0  501 -0.00000000000E+00 -0.00000000000E+00 -0.96684931614E+02  0.96684931614E+02  0.00000000000E+00 0.  1.
          5    1    1    2  502    0  0.19680970280E+02  0.70227364113E+02  0.54041712155E+02  0.90869149407E+02  0.41800000000E+01 0.  1.
         -5    1    1    2    0  502 -0.32148877795E+02 -0.33618218429E+00 -0.42431564719E+02  0.53400125903E+02  0.41800000000E+01 0.  1.
        -11    1    1    2    0    0 -0.21342765623E+02 -0.21475558249E+02 -0.11309400606E+02  0.32320516528E+02  0.00000000000E+00 0.  1.
         11    1    1    2    0    0  0.33810673139E+02 -0.48415623679E+02  0.93540012028E+02  0.11062083025E+03  0.00000000000E+00 0. -1.
</event>
<event>
 6    1  0.4988969E-006  0.9184353E+02  0.7561462E-02  0.1298448E+00
         -1   -1    0    0    0  501 -0.00000000000E+00  0.00000000000E+00  0.30740448938E+02  0.30740448938E+02  0.00000000000E+00 0.  1.
          1   -1    0    0  501    0  0.00000000000E+00 -0.00000000000E+00 -0.46009584392E+03  0.46009584392E+03  0.00000000000E+00 0. -1.
          5    1    1    2  502    0 -0.38216904697E+01 -0.32431675418E+02 -0.67006531772E+01  0.33597470760E+02  0.41800000000E+01 0.  1.
         -5    1    1    2    0  502 -0.58636650660E+01  0.74538085060E+02 -0.18284378542E+03  0.19758449069E+03  0.41800000000E+01 0.  1.
        -11    1    1    2    0    0 -0.24187815174E+02 -0.33696463016E+01 -0.14200565283E+02  0.28249972981E+02  0.00000000000E+00 0.  1.
         11    1    1    2    0    0  0.33873170710E+02 -0.38736763340E+02 -0.22561039110E+03  0.23140435843E+03  0.00000000000E+00 0. -1.
</event>
<event>
 6    1  0.4988969E-006  0.1764633E+03  0.7561462E-02  0.1171270E+00
         -2   -1    0    0    0  501 -0.00000000000E+00  0.00000000000E+00  0.30233594547E+03  0.30233594547E+03  0.00000000000E+00 0.  1.
          2   -1    0    0  501    0  0.00000000000E+00 -0.00000000000E+00 -0.14970531227E+03  0.14970531227E+03  0.00000000000E+00 0. -1.
          5    1    1    2  502    0 -0.11697772900E+03  0.41784660275E+02  0.44075097462E+02  0.13187051806E+03  0.41800000000E+01 0. -1.
         -5    1    1    2    0  502  0.22392624507E+02  0.22357990038E+02  0.35871516570E+02  0.48016116585E+02  0.41800000000E+01 0.  1.
        -11    1    1    2    0    0  0.12991883610E+03 -0.77197216373E+01  0.13026090772E+03  0.18413691144E+03  0.00000000000E+00 0.  1.
         11    1    1    2    0    0 -0.35333731608E+02 -0.56422928676E+02 -0.57576888545E+02  0.88017711651E+02  0.00000000000E+00 0. -1.
</event>
<event>
 6    1  0.4988969E-006  0.7584149E+02  0.7561462E-02  0.1341285E+00
          2   -1    0    0  501    0  0.00000000000E+00  0.00000000000E+00  0.63050357224E+02  0.63050357224E+02  0.00000000000E+00 0. -1.
         -2   -1    0    0    0  501 -0.00000000000E+00 -0.00000000000E+00 -0.18142613030E+03  0.18142613030E+03  0.00000000000E+00 0.  1.
          5    1    1    2  502    0  0.25019457763E+02 -0.27309187837E+02  0.20359656031E+02  0.42470613379E+02  0.41800000000E+01 0. -1.
         -5    1    1    2    0  502 -0.12928499458E+02  0.28906900532E+02 -0.10325247754E+03  0.10808006992E+03  0.41800000000E+01 0. -1.
        -11    1    1    2    0    0  0.10261880125E+02 -0.38214957658E+02 -0.31990763727E+02  0.50883181272E+02  0.00000000000E+00 0.  1.
         11    1    1    2    0    0 -0.22352838430E+02  0.36617244963E+02 -0.34921878404E+01  0.43042622951E+02  0.00000000000E+00 0. -1.
</event>
<event>
 6    1  0.4988969E-006  0.1730410E+03  0.7561462E-02  0.1174713E+00
          2   -1    0    0  501    0  0.00000000000E+00  0.00000000000E+00  0.41381372858E+03  0.41381372858E+03  0.00000000000E+00 0. -1.
         -2   -1    0    0    0  501 -0.00000000000E+00 -0.00000000000E+00 -0.12102984603E+03  0.12102984603E+03  0.00000000000E+00 0.  1.
          5    1    1    2  502    0 -0.16109385284E+02 -0.46772135770E+01  0.51323806819E+02  0.54157124808E+02  0.41800000000E+01 0.  1.
         -5    1    1    2    0  502 -0.89754430467E+02 -0.11533211065E+03 -0.32700012471E+02  0.14981360669E+03  0.41800000000E+01 0.  1.
        -11    1    1    2    0    0  0.32852541672E+02  0.10232651115E+03  0.18810563927E+03  0.21664195324E+03  0.00000000000E+00 0. -1.
         11    1    1    2    0    0  0.73011274080E+02  0.17682813076E+02  0.86054448922E+02  0.11423088987E+03  0.00000000000E+00 0.  1.
</event>
<event>
 6    1  0.4988969E-006  0.1030045E+03  0.7561462E-02  0.1274102E+00
         -1   -1    0    0    0  501 -0.00000000000E+00  0.00000000000E+00  0.54649156502E+02  0.54649156502E+02  0.00000000000E+00 0.  1.
          1   -1    0    0  501    0  0.00000000000E+00 -0.00000000000E+00 -0.24817564101E+03  0.24817564101E+03  0.00000000000E+00 0. -1.
          5    1    1    2  502    0 -0.44882724137E+02 -0.51106805546E+02 -0.11418357926E+03  0.13297265385E+03  0.41800000000E+01 0. -1.
         -5    1    1    2    0  502  0.48171455705E+02  0.99461928218E+01 -0.15157188905E+02  0.51639410065E+02  0.41800000000E+01 0. -1.
        -11    1    1    2    0    0  0.37487917342E+02  0.21705984492E+02 -0.58328636942E+02  0.72654825008E+02  0.00000000000E+00 0. -1.
         11    1    1    2    0    0 -0.40776648910E+02  0.19454628232E+02 -0.58570794011E+01  0.45557908590E+02  0.00000000000E+00 0.  1.
</event>
<event>
 6    1  0.4988969E-006  0.1350629E+03  0.7561462E-02  0.1220131E+00
         -1   -1    0    0    0  501 -0.00000000000E+00  0.00000000000E+00  0.10297665499E+04  0.10297665499E+04  0.00000000000E+00 0.  1.
          1   -1    0    0  501    0  0.00000000000E+00 -0.00000000000E+00 -0.24390615971E+02  0.24390615971E+02  0.00000000000E+00 0. -1.
          5    1    1    2  502    0  0.36778857511E+02 -0.24760259218E+00  0.32634938066E+03  0.32844198320E+03  0.41800000000E+01 0.  1.
         -5    1    1    2    0  502 -0.16369564397E+02  0.11189066989E+03  0.31246397850E+03  0.33232317841E+03  0.41800000000E+01 0.  1.
        -11    1    1    2    0    0  0.44529458271E+01 -0.77950946471E+02  0.32554413282E+03  0.33477628530E+03  0.00000000000E+00 0.  1.
         11    1    1    2    0    0 -0.24862238940E+02 -0.33692120827E+02  0.41018441945E+02  0.58615718971E+02  0.00000000000E+00 0. -1.
</event>
<event>
 6    1  0.4988969E-006  0.1025687E+03  0.7561462E-02  0.1274985E+00
          1   -1    0    0  501    0  0.00000000000E+00  0.00000000000E+00  0.84867051131E+03  0.84867051131E+03  0.00000000000E+00 0. -1.
         -1   -1    0    0    0  501 -0.00000000000E+00 -0.00000000000E+00 -0.40386223701E+02  0.40386223701E+02  0.00000000000E+00 0.  1.
          5    1    1    2  502    0 -0.31086937004E+02 -0.34940767043E+02  0.14431989856E+03  0.15176613712E+03  0.41800000000E+01 0.  1.
         -5    1    1    2    0  502 -0.10565661653E+02 -0.34573255929E+02 -0.20705937593E+02  0.41870651814E+02  0.41800000000E+01 0.  1.
        -11    1    1    2    0    0  0.57762888851E+02  0.81358591675E+01  0.33251085244E+03  0.33758881872E+03  0.00000000000E+00 0.  1.
         11    1    1    2    0    0 -0.16110290195E+02  0.61378163805E+02  0.35215947420E+03  0.35783112737E+03  0.00000000000E+00 0. -1.
</event>
<event>
 6    1  0.4988969E-006  0.1026698E+03  0.7561462E-02  0.1274780E+00
         -2   -1    0    0    0  501 -0.00000000000E+00  0.00000000000E+00  0.20132153120E+02  0.20132153120E+02  0.00000000000E+00 0.  1.
          2   -1    0    0  501    0  0.00000000000E+00 -0.00000000000E+00 -0.69144902339E+03  0.69144902339E+03  0.00000000000E+00 0. -1.
          5    1    1    2  502    0 -0.74087890724E+02  0.32505811247E+02 -0.34660554769E+03  0.35594735763E+03  0.41800000000E+01 0. -1.
         -5    1    1    2    0  502  0.32804472668E+02 -0.25457865743E+02 -0.75198046820E+02  0.86002645313E+02  0.41800000000E+01 0. -1.
        -11    1    1    2    0    0  0.18640963732E+02 -0.39119459492E+02 -0.49441685564E+02  0.65744185380E+02  0.00000000000E+00 0.  1.
         11    1    1    2    0    0  0.22642454325E+02  0.32071513988E+02 -0.20007159019E+03  0.20388698818E+03  0.00000000000E+00 0. -1.
</event>
<event>
 6    1  0.4988969E-006  0.1048096E+03  0.7561462E-02  0.1270495E+00
          3   -1    0    0  501    0  0.00000000000E+00  0.00000000000E+00  0.89398107600E+02  0.89398107600E+02  0.00000000000E+00 0. -1.
         -3   -1    0    0    0  501 -0.00000000000E+00 -0.00000000000E+00 -0.18077124588E+03  0.18077124588E+03  0.00000000000E+00 0.  1.
          5    1    1    2  502    0 -0.21720282603E+01 -0.38617568452E+02 -0.18791552594E+02  0.43204503802E+02  0.41800000000E+01 0.  1.
         -5    1    1    2    0  502  0.87072908635E+01  0.99898272016E+02 -0.61369610251E+02  0.11764005750E+03  0.41800000000E+01 0.  1.
        -11    1    1    2    0    0 -0.20251983353E+02 -0.42667064050E+02 -0.47056163499E+02  0.66670111052E+02  0.00000000000E+00 0.  1.
         11    1    1    2    0    0  0.13716720750E+02 -0.18613639514E+02  0.35844188063E+02  0.42654681127E+02  0.00000000000E+00 0. -1.
</event>
<event>
 6    1  0.4988969E-006  0.1482467E+03  0.7561462E-02  0.1202644E+00
         -2   -1    0    0    0  501 -0.00000000000E+00  0.00000000000E+00  0.69470381244E+03  0.69470381244E+03  0.00000000000E+00 0.  1.
          2   -1    0    0  501    0  0.00000000000E+00 -0.00000000000E+00 -0.38253988581E+02  0.38253988581E+02  0.00000000000E+00 0. -1.
          5    1    1    2  502    0 -0.23653803982E+02 -0.45481948854E+02  0.14999016260E+03  0.15856428158E+03  0.41800000000E+01 0.  1.
         -5    1    1    2    0  502 -0.92825779528E+02  0.76764273799E+02  0.24970606346E+03  0.27727237440E+03  0.41800000000E+01 0.  1.
        -11    1    1    2    0    0  0.24234736850E+02  0.61135288510E+01  0.14636339686E+03  0.14848212567E+03  0.00000000000E+00 0.  1.
         11    1    1    2    0    0  0.92244846660E+02 -0.37395853796E+02  0.11039020095E+03  0.14863901938E+03  0.00000000000E+00 0. -1.
</event>
<event>
 6    1  0.4988969E-006  0.1459981E+03  0.7561462E-02  0.1205479E+00
         -2   -1    0    0    0  501 -0.00000000000E+00  0.00000000000E+00  0.43496229835E+02  0.43496229835E+02  0.00000000000E+00 0.  1.
          2   -1    0    0  501    0  0.00000000000E+00 -0.00000000000E+00 -0.56191727332E+03  0.56191727332E+03  0.00000000000E+00 0. -1.
          5    1    1    2  502    0 -0.72143618653E+02 -0.51097545330E+02 -0.10122824418E+03  0.13446297137E+03  0.41800000000E+01 0.  1.
         -5    1    1    2    0  502 -0.37027963406E+02  0.65261992698E+02 -0.13700407164E+03  0.15626191414E+03  0.41800000000E+01 0.  1.
        -11    1    1    2    0    0  0.23533617343E+02  0.24857836730E+02 -0.15115012702E+03  0.15497775354E+03  0.00000000000E+00 0. -1.
         11    1    1    2    0    0  0.85637964717E+02 -0.39022284098E+02 -0.12903860065E+03  0.15971086411E+03  0.00000000000E+00 0.  1.
</event>
<event>
 6    1  0.4988969E-006  0.1127913E+03  0.7561462E-02  0.1255486E+00
         -1   -1    0    0    0  501 -0.00000000000E+00  0.00000000000E+00  0.90772689254E+02  0.90772689254E+02  0.00000000000E+00 0.  1.
          1   -1    0    0  501    0  0.00000000000E+00 -0.00000000000E+00 -0.34178915793E+03  0.34178915793E+03  0.00000000000E+00 0. -1.
          5    1    1    2  502    0  0.68245971072E+01 -0.33794320847E+02 -0.66729251038E+01  0.35364269773E+02  0.41800000000E+01 0. -1.
         -5    1    1    2    0  502 -0.20815333901E+02  0.10736751328E+03  0.17292504401E+02  0.11080417024E+03  0.41800000000E+01 0. -1.
        -11    1    1    2    0    0  0.18469543509E+02 -0.18463237461E+02 -0.87635374799E+01  0.27546592605E+02  0.00000000000E+00 0.  1.
         11    1    1    2    0    0 -0.44788067155E+01 -0.55109954977E+02 -0.25287251050E+03  0.25884681457E+03  0.00000000000E+00 0. -1.
</event>
<event>
 6    1  0.4988969E-006  0.1502838E+03  0.7561462E-02  0.1200125E+00
         -2   -1    0    0    0  501 -0.00000000000E+00  0.00000000000E+00  0.15016295682E+03  0.15016295682E+03  0.00000000000E+00 0.  1.
          2   -1    0    0  501    0  0.00000000000E+00 -0.00000000000E+00 -0.19169330580E+03  0.19169330580E+03  0.00000000000E+00 0. -1.
          5    1    1    2  502    0  0.35910234470E+02 -0.26631797589E+02  0.16353969353E+02  0.47788307106E+02  0.41800000000E+01 0. -1.
         -5    1    1    2    0  502 -0.10381134359E+03 -0.77249927944E+02  0.32506676578E+01  0.12950824555E+03  0.41800000000E+01 0. -1.
        -11    1    1    2    0    0  0.26716262081E+02  0.61740098825E+02 -0.78257234019E+02  0.10319783495E+03  0.00000000000E+00 0. -1.
         11    1    1    2    0    0  0.41184847037E+02  0.42141626707E+02  0.17122248027E+02  0.61361875007E+02  0.00000000000E+00 0.  1.
</event>
<event>
 6    1  0.4988969E-006  0.1219930E+03  0.7561462E-02  0.1239845E+00
          1   -1    0    0  501    0  0.00000000000E+00  0.00000000000E+00  0.35799387831E+03  0.35799387831E+03  0.00000000000E+00 0. -1.
         -1   -1    0    0    0  501 -0.00000000000E+00 -0.00000000000E+00 -0.51726850462E+02  0.51726850462E+02  0.00000000000E+00 0.  1.
          5    1    1    2  502    0 -0.32073589136E+02  0.79886915859E+02  0.12130691121E+03  0.14880683302E+03  0.41800000000E+01 0.  1.
         -5    1    1    2    0  502 -0.25970986922E+02 -0.31504084985E+02 -0.12616874869E+00  0.41042512728E+02  0.41800000000E+01 0.  1.
        -11    1    1    2    0    0  0.48831765395E+02 -0.74491718899E+02  0.15652424377E+03  0.18009274384E+03  0.00000000000E+00 0.  1.
         11    1    1    2    0    0  0.92128106623E+01  0.26108888025E+02  0.28562041621E+02  0.39778639189E+02  0.00000000000E+00 0. -1.
</event>
<event>
 6    1  0.4988969E-006  0.1205167E+03  0.7561462E-02  0.1242247E+00
         -1   -1    0    0    0  501 -0.00000000000E+00  0.00000000000E+00  0.31761744226E+03  0.31761744226E+03  0.00000000000E+00 0.  1.
          1   -1    0    0  501    0  0.00000000000E+00 -0.00000000000E+00 -0.19072729772E+03  0.19072729772E+03  0.00000000000E+00 0. -1.
          5    1    1    2  502    0 -0.58091423653E+02 -0.61096173106E+01  0.10308196185E+03  0.11855506815E+03  0.41800000000E+01 0. -1.
         -5    1    1    2    0  502  0.55097678648E+02 -0.63372746107E+02  0.17858159544E+03  0.19738469487E+03  0.41800000000E+01 0. -1.
        -11    1    1    2    0    0  0.31858595910E+02  0.11950798009E+02 -0.10690651550E+03  0.11219088538E+03  0.00000000000E+00 0. -1.
         11    1    1    2    0    0 -0.28864850904E+02  0.57531565408E+02 -0.47866897250E+02  0.80214091583E+02  0.00000000000E+00 0.  1.
</event>
<event>
 6    1  0.4988969E-006  0.1051284E+03  0.7561462E-02  0.1269867E+00
          2   -1    0    0  501    0  0.00000000000E+00  0.00000000000E+00  0.41158980543E+03  0.41158980543E+03  0.00000000000E+00 0. -1.
         -2   -1    0    0    0  501 -0.00000000000E+00 -0.00000000000E+00 -0.29824975507E+02  0.29824975507E+02  0.00000000000E+00 0.  1.
          5    1    1    2  502    0  0.37283058825E+02  0.49567961725E+02  0.87946602719E+02  0.10769905587E+03  0.41800000000E+01 0.  1.
         -5    1    1    2    0  502 -0.53144229316E+02 -0.35638002247E+02  0.11358737962E+03  0.13043750045E+03  0.41800000000E+01 0.  1.
        -11    1    1    2    0    0  0.19544132267E+02  0.32213098654E+02  0.37218857743E+02  0.52961308544E+02  0.00000000000E+00 0.  1.
         11    1    1    2    0    0 -0.36829617764E+01 -0.46143058132E+02  0.14301198984E+03  0.15031691608E+03  0.00000000000E+00 0. -1.
</event>
<event>
 6    1  0.4988969E-006  0.8513702E+02  0.7561462E-02  0.1315075E+00
          1   -1    0    0  501    0  0.00000000000E+00  0.00000000000E+00  0.59732745020E+02  0.59732745020E+02  0.00000000000E+00 0. -1.
         -1   -1    0    0    0  501 -0.00000000000E+00 -0.00000000000E+00 -0.20842963846E+03  0.20842963846E+03  0.00000000000E+00 0.  1.
          5    1    1    2  502    0  0.32949061716E+02 -0.21434657682E+02  0.14524092039E+02  0.42113024914E+02  0.41800000000E+01 0. -1.
         -5    1    1    2    0  502 -0.17506860962E+02  0.50356536555E+02 -0.98485983422E+02  0.11206798064E+03  0.41800000000E+01 0. -1.
        -11    1    1    2    0    0 -0.32212850396E+02  0.10941857940E+02 -0.61909726808E+02  0.70641391969E+02  0.00000000000E+00 0.  1.
         11    1    1    2    0    0  0.16770649643E+02 -0.39863736812E+02 -0.28252752452E+01  0.43339985952E+02  0.00000000000E+00 0. -1.
</event>
<event>
 6    1  0.4988969E-006  0.1090926E+03  0.7561462E-02  0.1262260E+00
         -1   -1    0    0    0  501 -0.00000000000E+00  0.00000000000E+00  0.62505117540E+02  0.62505117540E+02  0.00000000000E+00 0.  1.
          1   -1    0    0  501    0  0.00000000000E+00 -0.00000000000E+00 -0.30963248778E+03  0.30963248778E+03  0.00000000000E+00 0. -1.
          5    1    1    2  502    0  0.85652611665E+01 -0.66207779803E+02 -0.50402522329E+02  0.83753928042E+02  0.41800000000E+01 0.  1.
         -5    1    1    2    0  502  0.29393807525E+02  0.42217616887E+02  0.15077689294E+02  0.53769249677E+02  0.41800000000E+01 0.  1.
        -11    1    1    2    0    0 -0.29443033650E+02 -0.31747220436E+02 -0.74224026457E+02  0.85930113112E+02  0.00000000000E+00 0.  1.
         11    1    1    2    0    0 -0.85160350412E+01  0.55737383352E+02 -0.13757851075E+03  0.14868431449E+03  0.00000000000E+00 0. -1.
</event>
<event>
 6    1  0.4988969E-006  0.1397393E+03  0.7561462E-02  0.1213680E+00
         -2   -1    0    0    0  501 -0.00000000000E+00  0.00000000000E+00  0.26491615839E+03  0.26491615839E+03  0.00000000000E+00 0.  1.
          2   -1    0    0  501    0  0.00000000000E+00 -0.00000000000E+00 -0.11736836470E+03  0.11736836470E+03  0.00000000000E+00 0. -1.
          5    1    1    2  502    0  0.10958461409E+03  0.20201766767E+02 -0.15214400180E+02  0.11254265590E+03  0.41800000000E+01 0. -1.
         -5    1    1    2    0  502 -0.59737195444E+02 -0.21041629947E+02  0.15196590518E+03  0.16468877147E+03  0.41800000000E+01 0.  1.
        -11    1    1    2    0    0 -0.68491624619E+02 -0.24757816447E+02  0.76099232228E+01  0.73225426251E+02  0.00000000000E+00 0.  1.
         11    1    1    2    0    0  0.18644205977E+02  0.25597679627E+02  0.31863654675E+01  0.31827669467E+02  0.00000000000E+00 0. -1.
</event>
<event>
 6    1  0.4988969E-006  0.9744888E+02  0.7561462E-02  0.1285754E+00
          1   -1    0    0  501    0  0.00000000000E+00  0.00000000000E+00  0.10997106404E+03  0.10997106404E+03  0.00000000000E+00 0. -1.
         -1   -1    0    0    0  501 -0.00000000000E+00 -0.00000000000E+00 -0.14245524106E+03  0.14245524106E+03  0.00000000000E+00 0.  1.
          5    1    1    2  502    0 -0.42163848861E+02  0.51636094104E+00 -0.26955368991E+02  0.50220723778E+02  0.41800000000E+01 0. -1.
         -5    1    1    2    0  502  0.81977336711E+02  0.43064732699E+02 -0.11823805245E+02  0.93445865115E+02  0.41800000000E+01 0. -1.
        -11    1    1    2    0    0 -0.36948834072E+01 -0.94036436554E+01  0.44764398373E+02  0.45890435159E+02  0.00000000000E+00 0. -1.
         11    1    1    2    0    0 -0.36118604443E+02 -0.34177449985E+02 -0.38469401154E+02  0.62869281049E+02  0.00000000000E+00 0.  1.
</event>
<event>
 6    1  0.4988969E-006  0.2087741E+03  0.7561462E-02  0.1142540E+00
          2   -1    0    0  501    0  0.00000000000E+00  0.00000000000E+00  0.89057355849E+03  0.89057355849E+03  0.00000000000E+00 0. -1.
         -2   -1    0    0    0  501 -0.00000000000E+00 -0.00000000000E+00 -0.51357787939E+03  0.51357787939E+03  0.00000000000E+00 0.  1.
          5    1    1    2  502    0  0.24140532118E+02  0.18259562542E+03  0.11037233397E+03  0.21476371253E+03  0.41800000000E+01 0. -1.
         -5    1    1    2    0  502 -0.30717866246E+02 -0.18464314046E+01 -0.44672095272E+03  0.44779914986E+03  0.41800000000E+01 0.  1.
        -11    1    1    2    0    0  0.38043105000E+02 -0.30522957818E+02  0.19410618375E+03  0.20014029919E+03  0.00000000000E+00 0.  1.
         11    1    1    2    0    0 -0.31465770872E+02 -0.15022623620E+03  0.51923811409E+03  0.54144827630E+03  0.00000000000E+00 0. -1.
</event>
<event>
 6    1  0.4988969E-006  0.1581681E+03  0.7561462E-02  0.1190781E+00
          2   -1    0    0  501    0  0.00000000000E+00  0.00000000000E+00  0.55074744606E+03  0.55074744606E+03  0.00000000000E+00 0.  1.
         -2   -1    0    0    0  501 -0.00000000000E+00 -0.00000000000E+00 -0.11230145234E+03  0.11230145234E+03  0.00000000000E+00 0. -1.
          5    1    1    2  502    0 -0.76296909265E+01  0.22711077543E+02  0.51100221953E+01  0.24851357179E+02  0.41800000000E+01 0. -1.
         -5    1    1    2    0  502  0.60912160718E+02 -0.14555471045E+03 -0.17572695515E+02  0.15881667761E+03  0.41800000000E+01 0. -1.
        -11    1    1    2    0    0 -0.22300806308E+02  0.62164252317E+02  0.35871723822E+03  0.36474618192E+03  0.00000000000E+00 0.  1.
         11    1    1    2    0    0 -0.30981663483E+02  0.60679380592E+02  0.92191428816E+02  0.11463468170E+03  0.00000000000E+00 0. -1.
</event>
<event>
 6    1  0.4988969E-006  0.1496942E+03  0.7561462E-02  0.1200849E+00
          2   -1    0    0  501    0  0.00000000000E+00  0.00000000000E+00  0.79583353329E+03  0.79583353329E+03  0.00000000000E+00 0. -1.
         -2   -1    0    0    0  501 -0.00000000000E+00 -0.00000000000E+00 -0.47251255085E+02  0.47251255085E+02  0.00000000000E+00 0.  1.
          5    1    1    2  502    0  0.46732031802E+02 -0.96177087722E+02  0.34123625042E+03  0.35762209943E+03  0.41800000000E+01 0. -1.
         -5    1    1    2    0  502  0.47755120323E+02  0.49696926363E+02  0.17011127958E+02  0.71113900760E+02  0.41800000000E+01 0.  1.
        -11    1    1    2    0    0  0.45434211548E+01  0.20428911975E+02  0.16233713066E+02  0.26486157898E+02  0.00000000000E+00 0.  1.
         11    1    1    2    0    0 -0.99030573280E+02  0.26051249384E+02  0.37410118676E+03  0.38786263029E+03  0.00000000000E+00 0. -1.
</event>
<event>
 6    1  0.4988969E-006  0.8218524E+02  0.7561462E-02  0.1322962E+00
         -2   -1    0    0    0  501 -0.00000000000E+00  0.00000000000E+00  0.20715225127E+03  0.20715225127E+03  0.00000000000E+00 0.  1.
          2   -1    0    0  501    0  0.00000000000E+00 -0.00000000000E+00 -0.68102997858E+02  0.68102997858E+02  0.00000000000E+00 0. -1.
          5    1    1    2  502    0  0.26320365277E+02  0.15447780063E+02  0.11063130905E+03  0.11483969035E+03  0.41800000000E+01 0.  1.
         -5    1    1    2    0  502 -0.53001500346E+02  0.15097263660E+02 -0.26245423091E+01  0.55330344579E+02  0.41800000000E+01 0.  1.
        -11    1    1    2    0    0 -0.20009580265E+02  0.37606820429E+01  0.41485995980E+02  0.46212702737E+02  0.00000000000E+00 0.  1.
         11    1    1    2    0    0  0.46690715334E+02 -0.34305725766E+02 -0.10443509313E+02  0.58872511459E+02  0.00000000000E+00 0. -1.
</event>
<event>
 6    1  0.4988969E-006  0.1325025E+03  0.7561462E-02  0.1223789E+00
         -1   -1    0    0    0  501 -0.00000000000E+00  0.00000000000E+00  0.39960760078E+02  0.39960760078E+02  0.00000000000E+00 0.  1.
          1   -1    0    0  501    0  0.00000000000E+00 -0.00000000000E+00 -0.74497816453E+03  0.74497816453E+03  0.00000000000E+00 0. -1.
          5    1    1    2  502    0  0.42671124358E+02 -0.11636232542E+03 -0.26986106191E+03  0.29699070822E+03  0.41800000000E+01 0. -1.
         -5    1    1    2    0  502  0.83659030982E+01  0.23777417488E+01  0.12148229808E+02  0.15514312035E+02  0.41800000000E+01 0. -1.
        -11    1    1    2    0    0 -0.11553900285E+02  0.74910237260E+02 -0.36727706451E+03  0.37501663747E+03  0.00000000000E+00 0. -1.
         11    1    1    2    0    0 -0.39483127171E+02  0.39074346407E+02 -0.80027507830E+02  0.97417266887E+02  0.00000000000E+00 0.  1.
</event>
<event>
 6    1  0.6817024E-006  0.9474414E+02  0.7561462E-02  0.1291753E+00
         -1   -1    0    0    0  501 -0.00000000000E+00  0.00000000000E+00  0.44498376596E+02  0.44498376596E+02  0.00000000000E+00 0.  1.
          1   -1    0    0  501    0  0.00000000000E+00 -0.00000000000E+00 -0.23406245156E+03  0.23406245156E+03  0.00000000000E+00 0. -1.
          5    1    1    2  502    0 -0.32386755331E+02 -0.40684153469E+02 -0.75971762646E+02  0.92159011409E+02  0.41800000000E+01 0. -1.
         -5    1    1    2    0  502  0.46446827747E+02  0.41616209613E+02 -0.18360444758E+02  0.65144416814E+02  0.41800000000E+01 0. -1.
        -11    1    1    2    0    0  0.26027701072E+02  0.16803077028E+02 -0.34659786978E+02  0.46487476314E+02  0.00000000000E+00 0.  1.
         11    1    1    2    0    0 -0.40087773488E+02 -0.17735133172E+02 -0.60572080584E+02  0.74769923620E+02  0.00000000000E+00 0. -1.
</event>
<event>
 6    1  0.4988969E-006  0.9790086E+02  0.7561462E-02  0.1284773E+00
          1   -1    0    0  501    0  0.00000000000E+00  0.00000000000E+00  0.20091269085E+03  0.20091269085E+03  0.00000000000E+00 0. -1.
         -1   -1    0    0    0  501 -0.00000000000E+00 -0.00000000000E+00 -0.49060309927E+02  0.49060309927E+02  0.00000000000E+00 0.  1.
          5    1    1    2  502    0 -0.18789032938E+02  0.46406771178E+02  0.31001300485E+02  0.59035321644E+02  0.41800000000E+01 0. -1.
         -5    1    1    2    0  502  0.24843313168E+02 -0.56735805118E+02  0.45054590990E+02  0.76704174337E+02  0.41800000000E+01 0.  1.
        -11    1    1    2    0    0  0.36582531025E+02 -0.73734048365E+01  0.21906410750E+02  0.43272849537E+02  0.00000000000E+00 0.  1.
         11    1    1    2    0    0 -0.42636811256E+02  0.17702438777E+02  0.53890078700E+02  0.70960655261E+02  0.00000000000E+00 0. -1.
</event>
<event>
 6    1  0.4988969E-006  0.9095704E+02  0.7561462E-02  0.1300550E+00
          1   -1    0    0  501    0  0.00000000000E+00  0.00000000000E+00  0.24164779780E+02  0.24164779780E+02  0.00000000000E+00 0. -1.
         -1   -1    0    0    0  501 -0.00000000000E+00 -0.00000000000E+00 -0.19646692386E+04  0.19646692386E+04  0.00000000000E+00 0.  1.
          5    1    1    2  502    0  0.43139101197E+02  0.26769787934E+02 -0.22991365590E+03  0.23548962858E+03  0.41800000000E+01 0. -1.
         -5    1    1    2    0  502  0.51536631821E+01  0.29882688972E+02 -0.15675361315E+04  0.15678349821E+04  0.41800000000E+01 0. -1.
        -11    1    1    2    0    0 -0.13869047908E+02  0.15268393280E+02 -0.83442821738E+02  0.85954516012E+02  0.00000000000E+00 0.  1.
         11    1    1    2    0    0 -0.34423716471E+02 -0.71920870186E+02 -0.59611849682E+02  0.99554891625E+02  0.00000000000E+00 0. -1.
</event>
<event>
 6    1  0.4988969E-006  0.2861724E+03  0.7561462E-02  0.1092365E+00
          2   -1    0    0  501    0  0.00000000000E+00  0.00000000000E+00  0.34166286892E+04  0.34166286892E+04  0.00000000000E+00 0. -1.
         -2   -1    0    0    0  501 -0.00000000000E+00 -0.00000000000E+00 -0.32422654134E+02  0.32422654134E+02  0.00000000000E+00 0.  1.
          5    1    1    2  502    0 -0.48244326732E+02  0.19055071410E+03  0.19533951807E+04  0.19632644484E+04  0.41800000000E+01 0. -1.
         -5    1    1    2    0  502 -0.47970053945E+02  0.73838081374E+02  0.17780515192E+03  0.19845738279E+03  0.41800000000E+01 0.  1.
        -11    1    1    2    0    0  0.57247367190E+02 -0.22504033000E+03  0.11088511314E+04  0.11329038983E+04  0.00000000000E+00 0.  1.
         11    1    1    2    0    0  0.38967013487E+02 -0.39348465478E+02  0.14415457100E+03  0.15442561386E+03  0.00000000000E+00 0. -1.
</event>
<event>
 6    1  0.4988969E-006  0.2017166E+03  0.7561462E-02  0.1148299E+00
          1   -1    0    0  501    0  0.00000000000E+00  0.00000000000E+00  0.13900887464E+03  0.13900887464E+03  0.00000000000E+00 0. -1.
         -1   -1    0    0    0  501 -0.00000000000E+00 -0.00000000000E+00 -0.35678625995E+03  0.35678625995E+03  0.00000000000E+00 0.  1.
          5    1    1    2  502    0 -0.35529758008E+02 -0.42398834801E+02 -0.76773786310E+02  0.94719119301E+02  0.41800000000E+01 0. -1.
         -5    1    1    2    0  502 -0.14862847847E+03  0.64924099677E+02 -0.10152009018E+03  0.19138799451E+03  0.41800000000E+01 0. -1.
        -11    1    1    2    0    0  0.12312286596E+03 -0.18967980229E+02  0.17879568696E+02  0.12585191048E+03  0.00000000000E+00 0. -1.
         11    1    1    2    0    0  0.61035370523E+02 -0.35572846460E+01 -0.57363077512E+02  0.83836110302E+02  0.00000000000E+00 0.  1.
</event>
<event>
 6    1  0.4988969E-006  0.1232933E+03  0.7561462E-02  0.1237761E+00
         -2   -1    0    0    0  501 -0.00000000000E+00  0.00000000000E+00  0.18922999032E+03  0.18922999032E+03  0.00000000000E+00 0.  1.
          2   -1    0    0  501    0  0.00000000000E+00 -0.00000000000E+00 -0.10523224548E+03  0.10523224548E+03  0.00000000000E+00 0. -1.
          5    1    1    2  502    0  0.87580667461E+02 -0.41689929209E+02  0.61956756081E+02  0.11517176535E+03  0.41800000000E+01 0.  1.
         -5    1    1    2    0  502 -0.89604021168E+01  0.49915868531E+02  0.31797277978E+02  0.60003516765E+02  0.41800000000E+01 0.  1.
        -11    1    1    2    0    0 -0.44374031627E+02 -0.33876033919E+02  0.27790643592E+02  0.62361528430E+02  0.00000000000E+00 0.  1.
         11    1    1    2    0    0 -0.34246233718E+02  0.25650094597E+02 -0.37546932807E+02  0.56925425250E+02  0.00000000000E+00 0. -1.
</event>
<event>
 6    1  0.4988969E-006  0.1511992E+03  0.7561462E-02  0.1199007E+00
         -1   -1    0    0    0  501 -0.00000000000E+00  0.00000000000E+00  0.90281188716E+02  0.90281188716E+02  0.00000000000E+00 0.  1.
          1   -1    0    0  501    0  0.00000000000E+00 -0.00000000000E+00 -0.37708921316E+03  0.37708921316E+03  0.00000000000E+00 0. -1.
          5    1    1    2  502    0 -0.76884419718E+02  0.11424917539E+02 -0.16431242504E+02  0.79556274840E+02  0.41800000000E+01 0. -1.
         -5    1    1    2    0  502  0.19395045772E+02  0.93651649976E+02 -0.23949661735E+02  0.98680585938E+02  0.41800000000E+01 0.  1.
        -11    1    1    2    0    0 -0.84951482717E+01 -0.13614254791E+02  0.21287645916E+01  0.16187869420E+02  0.00000000000E+00 0.  1.
         11    1    1    2    0    0  0.65984522218E+02 -0.91462312724E+02 -0.24855588479E+03  0.27294567167E+03  0.00000000000E+00 0. -1.
</event>
<event>
 6    1  0.4988969E-006  0.1130216E+03  0.7561462E-02  0.1255074E+00
          1   -1    0    0  501    0  0.00000000000E+00  0.00000000000E+00  0.50106821565E+02  0.50106821565E+02  0.00000000000E+00 0. -1.
         -1   -1    0    0    0  501 -0.00000000000E+00 -0.00000000000E+00 -0.31664974485E+03  0.31664974485E+03  0.00000000000E+00 0.  1.
          5    1    1    2  502    0 -0.23964577563E+02 -0.45084828810E+02 -0.13380769597E+03  0.14327914945E+03  0.41800000000E+01 0. -1.
         -5    1    1    2    0  502  0.72502126052E+02  0.23302648490E+02 -0.83960079563E+02  0.11342988614E+03  0.41800000000E+01 0. -1.
        -11    1    1    2    0    0  0.18551687725E+01 -0.27792657791E+02 -0.16078573412E+02  0.32161996226E+02  0.00000000000E+00 0.  1.
         11    1    1    2    0    0 -0.50392717261E+02  0.49574838112E+02 -0.32696574342E+02  0.77885534603E+02  0.00000000000E+00 0. -1.
</event>
<event>
 6    1  0.4988969E-006  0.1791432E+03  0.7561462E-02  0.1168635E+00
          2   -1    0    0  501    0  0.00000000000E+00  0.00000000000E+00  0.53379524209E+03  0.53379524209E+03  0.00000000000E+00 0. -1.
         -2   -1    0    0    0  501 -0.00000000000E+00 -0.00000000000E+00 -0.11665347002E+03  0.11665347002E+03  0.00000000000E+00 0.  1.
          5    1    1    2  502    0  0.13789254605E+03 -0.27169188785E+02  0.63788070525E+02  0.15439854085E+03  0.41800000000E+01 0. -1.
         -5    1    1    2    0  502  0.21450429114E+02 -0.18691479464E+02 -0.45840050984E+02  0.54113537936E+02  0.41800000000E+01 0. -1.
        -11    1    1    2    0    0 -0.18258938699E+02  0.44207460882E+02  0.85408638341E+02  0.97889345403E+02  0.00000000000E+00 0.  1.
         11    1    1    2    0    0 -0.14108403646E+03  0.16532073671E+01  0.31378511419E+03  0.34404728793E+03  0.00000000000E+00 0. -1.
</event>
<event>
 6    1  0.4988969E-006  0.1222474E+03  0.7561462E-02  0.1239435E+00
         -2   -1    0    0    0  501 -0.00000000000E+00  0.00000000000E+00  0.92481913494E+02  0.92481913494E+02  0.00000000000E+00 0.  1.
          2   -1    0    0  501    0  0.00000000000E+00 -0.00000000000E+00 -0.24532303612E+03  0.24532303612E+03  0.00000000000E+00 0. -1.
          5    1    1    2  502    0  0.37001924082E+02  0.68407396678E+01  0.21396100712E+02  0.43487971103E+02  0.41800000000E+01 0. -1.
         -5    1    1    2    0  502  0.12372997652E+01 -0.10217948667E+03 -0.75693916581E+02  0.12723686500E+03  0.41800000000E+01 0. -1.
        -11    1    1    2    0    0 -0.31952982198E+02  0.55588020566E+02 -0.39001625146E+01  0.64235756160E+02  0.00000000000E+00 0.  1.
         11    1    1    2    0    0 -0.62862416490E+01  0.39750726441E+02 -0.94643144244E+02  0.10284435735E+03  0.00000000000E+00 0. -1.
</event>
<event>
 6    1  0.4988969E-006  0.1071599E+03  0.7561462E-02  0.1265922E+00
         -4   -1    0    0    0  501 -0.00000000000E+00  0.00000000000E+00  0.21165645094E+03  0.21165645094E+03  0.00000000000E+00 0. -1.
          4   -1    0    0  501    0  0.00000000000E+00 -0.00000000000E+00 -0.10449715854E+03  0.10449715854E+03  0.00000000000E+00 0.  1.
          5    1    1    2  502    0  0.61475236328E+02  0.72933051149E+02  0.11078626959E+03  0.14625151131E+03  0.41800000000E+01 0.  1.
         -5    1    1    2    0  502 -0.11135750475E+02 -0.40473629728E+02  0.33366809445E+02  0.53786020624E+02  0.41800000000E+01 0.  1.
        -11    1    1    2    0    0 -0.95178588647E+01 -0.34495990899E+02 -0.59518504106E+02  0.69447932701E+02  0.00000000000E+00 0.  1.
         11    1    1    2    0    0 -0.40821626988E+02  0.20365694777E+01  0.22524717470E+02  0.46668144834E+02  0.00000000000E+00 0. -1.
</event>
<event>
 6    1  0.4988969E-006  0.1443877E+03  0.7561462E-02  0.1207544E+00
         -1   -1    0    0    0  501 -0.00000000000E+00  0.00000000000E+00  0.10861437640E+03  0.10861437640E+03  0.00000000000E+00 0.  1.
          1   -1    0    0  501    0  0.00000000000E+00 -0.00000000000E+00 -0.25896465334E+03  0.25896465334E+03  0.00000000000E+00 0. -1.
          5    1    1    2  502    0  0.13078075037E+03  0.29572832616E+02 -0.15668495659E+02  0.13505973216E+03  0.41800000000E+01 0. -1.
         -5    1    1    2    0  502 -0.28462818654E+02  0.18928276968E+02 -0.46640265920E+00  0.34439826453E+02  0.41800000000E+01 0. -1.
        -11    1    1    2    0    0 -0.59977369569E+02 -0.49609797091E+02 -0.26315069088E+02  0.82163858776E+02  0.00000000000E+00 0.  1.
         11    1    1    2    0    0 -0.42340562142E+02  0.11086875069E+01 -0.10790030953E+03  0.11591561235E+03  0.00000000000E+00 0. -1.
</event>
<event>
 6    1  0.4988969E-006  0.3592990E+03  0.7561462E-02  0.1058862E+00
         -1   -1    0    0    0  501 -0.00000000000E+00  0.00000000000E+00  0.42752949337E+03  0.42752949337E+03  0.00000000000E+00 0.  1.
          1   -1    0    0  501    0  0.00000000000E+00 -0.00000000000E+00 -0.34520173134E+03  0.34520173134E+03  0.00000000000E+00 0. -1.
          5    1    1    2  502    0  0.18883088364E+02 -0.49735122540E+02  0.51116711224E+02  0.73895493818E+02  0.41800000000E+01 0. -1.
         -5    1    1    2    0  502 -0.15124125468E+03 -0.26727556776E+03  0.11954958489E+03  0.32957506259E+03  0.41800000000E+01 0. -1.
        -11    1    1    2    0    0  0.28827436272E+02  0.19917656100E+03 -0.40646879127E+02  0.20531559200E+03  0.00000000000E+00 0. -1.
         11    1    1    2    0    0  0.10353073004E+03  0.11783412929E+03 -0.47691654957E+02  0.16394507630E+03  0.00000000000E+00 0.  1.
</event>
<event>
 6    1  0.4988969E-006  0.8862615E+02  0.7561462E-02  0.1306213E+00
          2   -1    0    0  501    0  0.00000000000E+00  0.00000000000E+00  0.12106242611E+03  0.12106242611E+03  0.00000000000E+00 0. -1.
         -2   -1    0    0    0  501 -0.00000000000E+00 -0.00000000000E+00 -0.13484193168E+03  0.13484193168E+03  0.00000000000E+00 0.  1.
          5    1    1    2  502    0 -0.53879242973E+02  0.12790450317E+02  0.16987775647E+02  0.58074308985E+02  0.41800000000E+01 0. -1.
         -5    1    1    2    0  502  0.16340374338E+02 -0.28969668848E+02 -0.82343275327E+02  0.88905213223E+02  0.41800000000E+01 0. -1.
        -11    1    1    2    0    0 -0.20200190997E+01  0.41290724591E+02  0.45825905225E+02  0.61717242356E+02  0.00000000000E+00 0. -1.
         11    1    1    2    0    0  0.39558887735E+02 -0.25111506060E+02  0.57500888885E+01  0.47207593220E+02  0.00000000000E+00 0.  1.
</event>
<event>
 6    1  0.4988969E-006  0.1565369E+03  0.7561462E-02  0.1192663E+00
          1   -1    0    0  501    0  0.00000000000E+00  0.00000000000E+00  0.12536353075E+03  0.12536353075E+03  0.00000000000E+00 0. -1.
         -1   -1    0    0    0  501 -0.00000000000E+00 -0.00000000000E+00 -0.24817132151E+03  0.24817132151E+03  0.00000000000E+00 0.  1.
          5    1    1    2  502    0 -0.15871773592E+02 -0.75247836282E+01 -0.68835397483E+02  0.71164035245E+02  0.41800000000E+01 0. -1.
         -5    1    1    2    0  502  0.40168796376E+02 -0.12670122139E+03 -0.34831775893E+02  0.13746802071E+03  0.41800000000E+01 0.  1.
        -11    1    1    2    0    0  0.76786345997E+01 -0.10953588853E+02 -0.85305279760E+01  0.15865448169E+02  0.00000000000E+00 0.  1.
         11    1    1    2    0    0 -0.31975657384E+02  0.14517959388E+03 -0.10610089401E+02  0.14903734814E+03  0.00000000000E+00 0. -1.
</event>
<event>
 6    1  0.4988969E-006  0.1179490E+03  0.7561462E-02  0.1246519E+00
          3   -1    0    0  501    0  0.00000000000E+00  0.00000000000E+00  0.35802033580E+03  0.35802033580E+03  0.00000000000E+00 0. -1.
         -3   -1    0    0    0  501 -0.00000000000E+00 -0.00000000000E+00 -0.45364908934E+02  0.45364908934E+02  0.00000000000E+00 0.  1.
          5    1    1    2  502    0 -0.10840424597E+01 -0.58226876289E+02  0.42232442514E+02  0.72059668825E+02  0.41800000000E+01 0.  1.
         -5    1    1    2    0  502  0.64268333778E+02  0.43120087552E+02  0.12010248902E+03  0.14293999071E+03  0.41800000000E+01 0.  1.
        -11    1    1    2    0    0 -0.80396947948E+02  0.62296828208E+01  0.73322489544E+02  0.10898929149E+03  0.00000000000E+00 0.  1.
         11    1    1    2    0    0  0.17212656630E+02  0.88771059165E+01  0.76998005788E+02  0.79396293698E+02  0.00000000000E+00 0. -1.
</event>
<event>
 6    1  0.4988969E-006  0.1090868E+03  0.7561462E-02  0.1262270E+00
         -4   -1    0    0    0  501 -0.00000000000E+00  0.00000000000E+00  0.86186116750E+02  0.86186116750E+02  0.00000000000E+00 0.  1.
          4   -1    0    0  501    0  0.00000000000E+00 -0.00000000000E+00 -0.14815196183E+03  0.14815196183E+03  0.00000000000E+00 0. -1.
          5    1    1    2  502    0  0.30191442609E+02 -0.59640862039E+02 -0.13634622985E+02  0.68351525042E+02  0.41800000000E+01 0. -1.
         -5    1    1    2    0  502 -0.17578535225E+01  0.61140182903E+02 -0.11616132457E+02  0.62398869763E+02  0.41800000000E+01 0. -1.
        -11    1    1    2    0    0  0.28490885944E+01 -0.40100779875E+02  0.25164667986E+01  0.40280546887E+02  0.00000000000E+00 0.  1.
         11    1    1    2    0    0 -0.31282677681E+02  0.38601459010E+02 -0.39231556438E+02  0.63307136889E+02  0.00000000000E+00 0. -1.
</event>
<event>
 6    1  0.4988969E-006  0.2827892E+03  0.7561462E-02  0.1094175E+00
          1   -1    0    0  501    0  0.00000000000E+00  0.00000000000E+00  0.76585610911E+03  0.76585610911E+03  0.00000000000E+00 0. -1.
         -1   -1    0    0    0  501 -0.00000000000E+00 -0.00000000000E+00 -0.12787045997E+03  0.12787045997E+03  0.00000000000E+00 0.  1.
          5    1    1    2  502    0  0.93231727604E+02  0.95624788376E+02  0.83073584057E+02  0.15733705206E+03  0.41800000000E+01 0.  1.
         -5    1    1    2    0  502 -0.13421337966E+02  0.15388069720E+03  0.53960293378E+02  0.16367219356E+03  0.41800000000E+01 0.  1.
        -11    1    1    2    0    0 -0.82836609999E+01 -0.17113531326E+03  0.31827291833E+03  0.36146032289E+03  0.00000000000E+00 0.  1.
         11    1    1    2    0    0 -0.71526728638E+02 -0.78370172320E+02  0.18267885337E+03  0.21125700057E+03  0.00000000000E+00 0. -1.
</event>
<event>
 6    1  0.4988969E-006  0.1845819E+03  0.7561462E-02  0.1163441E+00
         -2   -1    0    0    0  501 -0.00000000000E+00  0.00000000000E+00  0.44963750118E+02  0.44963750118E+02  0.00000000000E+00 0.  1.
          2   -1    0    0  501    0  0.00000000000E+00 -0.00000000000E+00 -0.10082063824E+04  0.10082063824E+04  0.00000000000E+00 0. -1.
          5    1    1    2  502    0  0.37052228945E+02 -0.10702571025E+03 -0.96448617427E+02  0.14881928144E+03  0.41800000000E+01 0.  1.
         -5    1    1    2    0  502  0.34716710731E+02 -0.49654468319E+02 -0.25481033591E+03  0.26194769690E+03  0.41800000000E+01 0.  1.
        -11    1    1    2    0    0  0.22021564207E+02  0.36822060096E+02 -0.12174118598E+03  0.12908032291E+03  0.00000000000E+00 0.  1.
         11    1    1    2    0    0 -0.93790503884E+02  0.11985811847E+03 -0.49024249295E+03  0.51332283124E+03  0.00000000000E+00 0. -1.
</event>
<event>
 6    1  0.4988969E-006  0.1366717E+03  0.7561462E-02  0.1217879E+00
          2   -1    0    0  501    0  0.00000000000E+00  0.00000000000E+00  0.60977506509E+03  0.60977506509E+03  0.00000000000E+00 0. -1.
         -2   -1    0    0    0  501 -0.00000000000E+00 -0.00000000000E+00 -0.35770519790E+02  0.35770519790E+02  0.00000000000E+00 0.  1.
          5    1    1    2  502    0 -0.45237266326E+02  0.27596674126E+02  0.11036703896E+03  0.12250037705E+03  0.41800000000E+01 0. -1.
         -5    1    1    2    0  502  0.78770574577E+02  0.56846967011E+02  0.11177852193E+03  0.14814955769E+03  0.41800000000E+01 0. -1.
        -11    1    1    2    0    0 -0.64768844987E+01  0.16881906935E+02  0.20494657876E+02  0.27330931488E+02  0.00000000000E+00 0.  1.
         11    1    1    2    0    0 -0.27056423753E+02 -0.10132554807E+03  0.33136432653E+03  0.34756471865E+03  0.00000000000E+00 0. -1.
</event>
<event>
 6    1  0.4988969E-006  0.9435093E+02  0.7561462E-02  0.1292645E+00
          2   -1    0    0  501    0  0.00000000000E+00  0.00000000000E+00  0.93151762357E+03  0.93151762357E+03  0.00000000000E+00 0. -1.
         -2   -1    0    0    0  501 -0.00000000000E+00 -0.00000000000E+00 -0.18935885032E+02  0.18935885032E+02  0.00000000000E+00 0.  1.
          5    1    1    2  502    0  0.38326424779E+02 -0.51824860690E+02  0.42002667091E+03  0.42496424285E+03  0.41800000000E+01 0. -1.
         -5    1    1    2    0  502  0.12085869358E+02 -0.82323486111E+01 -0.46199481385E+01  0.15895160352E+02  0.41800000000E+01 0. -1.
        -11    1    1    2    0    0  0.83637833938E+01  0.48225233905E+02  0.16720890541E+03  0.17422526828E+03  0.00000000000E+00 0.  1.
         11    1    1    2    0    0 -0.58776077532E+02  0.11831975397E+02  0.32996611035E+03  0.33536883712E+03  0.00000000000E+00 0. -1.
</event>
<event>
 6    1  0.4988969E-006  0.1441889E+03  0.7561462E-02  0.1207801E+00
         -2   -1    0    0    0  501 -0.00000000000E+00  0.00000000000E+00  0.67044367611E+02  0.67044367611E+02  0.00000000000E+00 0.  1.
          2   -1    0    0  501    0  0.00000000000E+00 -0.00000000000E+00 -0.53055506723E+03  0.53055506723E+03  0.00000000000E+00 0. -1.
          5    1    1    2  502    0 -0.49552236069E+02  0.49312672281E+01 -0.11905937355E+03  0.12912144797E+03  0.41800000000E+01 0. -1.
         -5    1    1    2    0  502 -0.60207907184E+02  0.78986239284E+02 -0.15158493219E+02  0.10055381843E+03  0.41800000000E+01 0. -1.
        -11    1    1    2    0    0  0.74456990487E+02 -0.47709580042E+02 -0.29198244820E+03  0.30507998544E+03  0.00000000000E+00 0. -1.
         11    1    1    2    0    0  0.35303152765E+02 -0.36207926470E+02 -0.37310384653E+02  0.62844183003E+02  0.00000000000E+00 0.  1.
</event>
<event>
 6    1  0.1378363E-005  0.2754736E+03  0.7561462E-02  0.1098187E+00
         -1   -1    0    0    0  501 -0.00000000000E+00  0.00000000000E+00  0.13154929698E+03  0.13154929698E+03  0.00000000000E+00 0.  1.
          1   -1    0    0  501    0  0.00000000000E+00 -0.00000000000E+00 -0.60873766685E+03  0.60873766685E+03  0.00000000000E+00 0. -1.
          5    1    1    2  502    0  0.12239945891E+03 -0.10322374296E+03 -0.14537858664E+03  0.21630805465E+03  0.41800000000E+01 0. -1.
         -5    1    1    2    0  502  0.12673028543E+03  0.24804048849E+02 -0.10396974052E+03  0.16584024068E+03  0.41800000000E+01 0. -1.
        -11    1    1    2    0    0 -0.17467393404E+03  0.48035000117E+02 -0.99498022166E+02  0.20668381863E+03  0.00000000000E+00 0.  1.
         11    1    1    2    0    0 -0.74455810299E+02  0.30384693994E+02 -0.12834202054E+03  0.15145484988E+03  0.00000000000E+00 0. -1.
</event>
<event>
 6    1  0.4988969E-006  0.2444037E+03  0.7561462E-02  0.1116893E+00
         -1   -1    0    0    0  501 -0.00000000000E+00  0.00000000000E+00  0.63482271170E+02  0.63482271170E+02  0.00000000000E+00 0. -1.
          1   -1    0    0  501    0  0.00000000000E+00 -0.00000000000E+00 -0.10222976259E+04  0.10222976259E+04  0.00000000000E+00 0.  1.
          5    1    1    2  502    0 -0.74244791959E+02 -0.51299013828E+02 -0.10433684226E+03  0.13801277841E+03  0.41800000000E+01 0. -1.
         -5    1    1    2    0  502 -0.14547513142E+03  0.70459477018E+02 -0.24874226949E+03  0.29667784008E+03  0.41800000000E+01 0. -1.
        -11    1    1    2    0    0  0.48227530568E+02  0.31920972554E+02 -0.18652755203E+03  0.19528791785E+03  0.00000000000E+00 0. -1.
         11    1    1    2    0    0  0.17149239281E+03 -0.51081435744E+02 -0.41920869096E+03  0.45580136073E+03  0.00000000000E+00 0.  1.
</event>
<event>
 6    1  0.4988969E-006  0.1357055E+03  0.7561462E-02  0.1219227E+00
         -2   -1    0    0    0  501 -0.00000000000E+00  0.00000000000E+00  0.35166434004E+02  0.35166434004E+02  0.00000000000E+00 0.  1.
          2   -1    0    0  501    0  0.00000000000E+00 -0.00000000000E+00 -0.52435798262E+03  0.52435798262E+03  0.00000000000E+00 0. -1.
          5    1    1    2  502    0 -0.70374663306E+01  0.61248282285E+02 -0.11009266292E+03  0.12624874195E+03  0.41800000000E+01 0. -1.
         -5    1    1    2    0  502 -0.74563675426E+02 -0.46974243545E+02 -0.15265879428E+03  0.17631931579E+03  0.41800000000E+01 0. -1.
        -11    1    1    2    0    0  0.81428494058E+02  0.22608949208E+02 -0.16140598302E+03  0.18219126099E+03  0.00000000000E+00 0.  1.
         11    1    1    2    0    0  0.17264769859E+00 -0.36882987947E+02 -0.65034108397E+02  0.74765097888E+02  0.00000000000E+00 0. -1.
</event>
<event>
 6    1  0.4988969E-006  0.2028750E+03  0.7561462E-02  0.1147336E+00
         -1   -1    0    0    0  501 -0.00000000000E+00  0.00000000000E+00  0.10188119349E+03  0.10188119349E+03  0.00000000000E+00 0.  1.
          1   -1    0    0  501    0  0.00000000000E+00 -0.00000000000E+00 -0.45792500336E+03  0.45792500336E+03  0.00000000000E+00 0. -1.
          5    1    1    2  502    0  0.61066085943E+02 -0.17052059974E+02 -0.19737338994E+02  0.66534761984E+02  0.41800000000E+01 0.  1.
         -5    1    1    2    0  502  0.96270355846E+01 -0.15272021002E+03 -0.11348579513E+03  0.19055875855E+03  0.41800000000E+01 0.  1.
        -11    1    1    2    0    0 -0.58256401354E+02  0.82612909279E+02 -0.17607610845E+03  0.20303077857E+03  0.00000000000E+00 0. -1.
         11    1    1    2    0    0 -0.12436720174E+02  0.87159360713E+02 -0.46744567286E+02  0.99681897752E+02  0.00000000000E+00 0.  1.
</event>
<event>
 6    1  0.4988969E-006  0.2280192E+03  0.7561462E-02  0.1128042E+00
         -2   -1    0    0    0  501 -0.00000000000E+00  0.00000000000E+00  0.13284805689E+03  0.13284805689E+03  0.00000000000E+00 0.  1.
          2   -1    0    0  501    0  0.00000000000E+00 -0.00000000000E+00 -0.43140525375E+03  0.43140525375E+03  0.00000000000E+00 0. -1.
          5    1    1    2  502    0 -0.17476620254E+03 -0.40540493256E+01 -0.47230085320E+02  0.18112927490E+03  0.41800000000E+01 0. -1.
         -5    1    1    2    0  502 -0.36105370925E+02  0.36242438033E+02 -0.84964777206E+02  0.99265290459E+02  0.41800000000E+01 0. -1.
        -11    1    1    2    0    0  0.87772124016E+02 -0.56479548913E+02 -0.80685808431E+02  0.13192454238E+03  0.00000000000E+00 0. -1.
         11    1    1    2    0    0  0.12309944945E+03  0.24291160206E+02 -0.85676525910E+02  0.15193420290E+03  0.00000000000E+00 0.  1.
</event>
<event>
 6    1  0.4988969E-006  0.1134297E+03  0.7561462E-02  0.1254347E+00
         -1   -1    0    0    0  501 -0.00000000000E+00  0.00000000000E+00  0.14523977530E+03  0.14523977530E+03  0.00000000000E+00 0.  1.
          1   -1    0    0  501    0  0.00000000000E+00 -0.00000000000E+00 -0.23053895268E+03  0.23053895268E+03  0.00000000000E+00 0. -1.
          5    1    1    2  502    0  0.13541549134E+02 -0.87677860721E+02  0.36076263258E+02  0.95863183675E+02  0.41800000000E+01 0.  1.
         -5    1    1    2    0  502 -0.15476029763E+02  0.33706072557E+02  0.60702099642E+02  0.71258852961E+02  0.41800000000E+01 0.  1.
        -11    1    1    2    0    0  0.40770671731E+02  0.45265118282E+02 -0.12523097061E+03  0.13926225119E+03  0.00000000000E+00 0.  1.
         11    1    1    2    0    0 -0.38836191102E+02  0.87066698815E+01 -0.56846569671E+02  0.69394440146E+02  0.00000000000E+00 0. -1.
</event>
<event>
 6    1  0.4988969E-006  0.1298262E+03  0.7561462E-02  0.1227714E+00
          1   -1    0    0  501    0  0.00000000000E+00  0.00000000000E+00  0.17395403538E+03  0.17395403538E+03  0.00000000000E+00 0. -1.
         -1   -1    0    0    0  501 -0.00000000000E+00 -0.00000000000E+00 -0.13864437875E+03  0.13864437875E+03  0.00000000000E+00 0.  1.
          5    1    1    2  502    0  0.10789852379E+03  0.33768340910E+00 -0.37881250521E+02  0.11443193176E+03  0.41800000000E+01 0. -1.
         -5    1    1    2    0  502 -0.17207095811E+02  0.45052942897E+02  0.88268494122E+01  0.49206071581E+02  0.41800000000E+01 0. -1.
        -11    1    1    2    0    0 -0.24528943723E+02 -0.22409757283E+02 -0.20412287922E+02  0.38993945682E+02  0.00000000000E+00 0.  1.
         11    1    1    2    0    0 -0.66162484257E+02 -0.22980869023E+02  0.84776345659E+02  0.10996646510E+03  0.00000000000E+00 0. -1.
</event>
<event>
 6    1  0.4988969E-006  0.1233743E+03  0.7561462E-02  0.1237632E+00
         -2   -1    0    0    0  501 -0.00000000000E+00  0.00000000000E+00  0.23502245491E+02  0.23502245491E+02  0.00000000000E+00 0.  1.
          2   -1    0    0  501    0  0.00000000000E+00 -0.00000000000E+00 -0.70869234015E+03  0.70869234015E+03  0.00000000000E+00 0. -1.
          5    1    1    2  502    0  0.56482286251E+02  0.71867254234E+02 -0.27608558780E+03  0.29085370048E+03  0.41800000000E+01 0. -1.
         -5    1    1    2    0  502  0.27805923365E+01 -0.41245081166E+02 -0.52079438169E+02  0.66623034260E+02  0.41800000000E+01 0. -1.
        -11    1    1    2    0    0 -0.13647759386E+02 -0.58611382768E+02 -0.18168501292E+03  0.19139226590E+03  0.00000000000E+00 0.  1.
         11    1    1    2    0    0 -0.45615119201E+02  0.27989209699E+02 -0.17534005577E+03  0.18332558500E+03  0.00000000000E+00 0. -1.
</event>
<event>
 6    1  0.4988969E-006  0.2586849E+03  0.7561462E-02  0.1107936E+00
         -2   -1    0    0    0  501 -0.00000000000E+00  0.00000000000E+00  0.35065714177E+03  0.35065714177E+03  0.00000000000E+00 0.  1.
          2   -1    0    0  501    0  0.00000000000E+00 -0.00000000000E+00 -0.24495667233E+03  0.24495667233E+03  0.00000000000E+00 0. -1.
          5    1    1    2  502    0  0.11441375292E+03  0.87441343857E+02  0.67201556224E+02  0.15896545861E+03  0.41800000000E+01 0. -1.
         -5    1    1    2    0  502  0.12421353970E+03 -0.31168098413E+02  0.10544534897E+03  0.16594170007E+03  0.41800000000E+01 0. -1.
        -11    1    1    2    0    0 -0.14498782474E+03 -0.34714560636E+02  0.73159738261E+01  0.14926517851E+03  0.00000000000E+00 0.  1.
         11    1    1    2    0    0 -0.93639467881E+02 -0.21558684809E+02 -0.74262409583E+02  0.12144147690E+03  0.00000000000E+00 0. -1.
</event>
<event>
 6    1  0.4988969E-006  0.1911268E+03  0.7561462E-02  0.1157449E+00
         -2   -1    0    0    0  501 -0.00000000000E+00  0.00000000000E+00  0.10505921834E+03  0.10505921834E+03  0.00000000000E+00 0.  1.
          2   -1    0    0  501    0  0.00000000000E+00 -0.00000000000E+00 -0.39970625746E+03  0.39970625746E+03  0.00000000000E+00 0. -1.
          5    1    1    2  502    0 -0.11368082125E+01  0.17482256380E+02 -0.30223536314E+02  0.35183180192E+02  0.41800000000E+01 0. -1.
         -5    1    1    2    0  502  0.54302096725E+01 -0.19011353843E+03 -0.10461774463E+03  0.21710594087E+03  0.41800000000E+01 0. -1.
        -11    1    1    2    0    0 -0.10786369511E+02  0.47639642315E+02 -0.10507393007E+03  0.11587239562E+03  0.00000000000E+00 0. -1.
         11    1    1    2    0    0  0.64929680510E+01  0.12499163973E+03 -0.54731828115E+02  0.13660395912E+03  0.00000000000E+00 0.  1.
</event>
<event>
 6    1  0.4988969E-006  0.8777945E+02  0.7561462E-02  0.1308320E+00
         -1   -1    0    0    0  501 -0.00000000000E+00  0.00000000000E+00  0.30922155065E+03  0.30922155065E+03  0.00000000000E+00 0.  1.
          1   -1    0    0  501    0  0.00000000000E+00 -0.00000000000E+00 -0.44728216049E+02  0.44728216049E+02  0.00000000000E+00 0. -1.
          5    1    1    2  502    0 -0.60229060015E+02  0.36677774256E+02  0.50353660590E+02  0.86751151747E+02  0.41800000000E+01 0. -1.
         -5    1    1    2    0  502  0.24930727279E+02 -0.25077409551E+02  0.13707178846E+03  0.14162120330E+03  0.41800000000E+01 0. -1.
        -11    1    1    2    0    0 -0.16465950961E+02 -0.11902069017E+01 -0.13108383989E+02  0.21080177047E+02  0.00000000000E+00 0. -1.
         11    1    1    2    0    0  0.51764283697E+02 -0.10410157803E+02  0.90176269539E+02  0.10449723460E+03  0.00000000000E+00 0.  1.
</event>
<event>
 6    1  0.4988969E-006  0.1068545E+03  0.7561462E-02  0.1266508E+00
         -2   -1    0    0    0  501 -0.00000000000E+00  0.00000000000E+00  0.68918606927E+02  0.68918606927E+02  0.00000000000E+00 0.  1.
          2   -1    0    0  501    0  0.00000000000E+00 -0.00000000000E+00 -0.18361893600E+03  0.18361893600E+03  0.00000000000E+00 0. -1.
          5    1    1    2  502    0  0.41888728359E+02  0.36971050523E+02 -0.29232335463E+02  0.63194350831E+02  0.41800000000E+01 0.  1.
         -5    1    1    2    0  502 -0.68628368941E+02 -0.23080059790E+02 -0.44975886469E+02  0.85339586050E+02  0.41800000000E+01 0.  1.
        -11    1    1    2    0    0 -0.13093399864E+02 -0.36900861195E+02 -0.42718896018E+02  0.57948380080E+02  0.00000000000E+00 0. -1.
         11    1    1    2    0    0  0.39833040446E+02  0.23009870462E+02  0.22267888797E+01  0.46055225964E+02  0.00000000000E+00 0.  1.
</event>
<event>
 6    1  0.4988969E-006  0.1060510E+03  0.7561462E-02  0.1268063E+00
          2   -1    0    0  501    0  0.00000000000E+00  0.00000000000E+00  0.15427335035E+03  0.15427335035E+03  0.00000000000E+00 0. -1.
         -2   -1    0    0    0  501 -0.00000000000E+00 -0.00000000000E+00 -0.99578952405E+02  0.99578952405E+02  0.00000000000E+00 0.  1.
          5    1    1    2  502    0  0.85759886550E+02 -0.12538604300E+02  0.33120237736E+02  0.92878400539E+02  0.41800000000E+01 0.  1.
         -5    1    1    2    0  502 -0.32923683223E+02 -0.21227103607E+01 -0.28470423328E+02  0.43777987856E+02  0.41800000000E+01 0.  1.
        -11    1    1    2    0    0 -0.69710780554E+02 -0.13781276306E-01  0.87805437046E+01  0.70261590241E+02  0.00000000000E+00 0.  1.
         11    1    1    2    0    0  0.16874577227E+02  0.14675095937E+02  0.41264039834E+02  0.46934324122E+02  0.00000000000E+00 0. -1.
</event>
<event>
 6    1  0.4988969E-006  0.1857412E+03  0.7561462E-02  0.1162360E+00
          2   -1    0    0  501    0  0.00000000000E+00  0.00000000000E+00  0.21801373906E+04  0.21801373906E+04  0.00000000000E+00 0. -1.
         -2   -1    0    0    0  501 -0.00000000000E+00 -0.00000000000E+00 -0.19132784181E+02  0.19132784181E+02  0.00000000000E+00 0.  1.
          5    1    1    2  502    0 -0.29034022111E+02 -0.23705884085E+02  0.16322945254E+03  0.16752990765E+03  0.41800000000E+01 0. -1.
         -5    1    1    2    0  502 -0.87716066569E+02  0.12712974763E+03  0.13677875318E+04  0.13764869362E+04  0.41800000000E+01 0. -1.
        -11    1    1    2    0    0  0.12137634235E+02 -0.67599203058E+02  0.20955925544E+03  0.22052676926E+03  0.00000000000E+00 0.  1.
         11    1    1    2    0    0  0.10461245444E+03 -0.35824660484E+02  0.42042836660E+03  0.43472656161E+03  0.00000000000E+00 0. -1.
</event>
<event>
 6    1  0.4988969E-006  0.1370177E+03  0.7561462E-02  0.1217399E+00
         -1   -1    0    0    0  501 -0.00000000000E+00  0.00000000000E+00  0.53654690327E+02  0.53654690327E+02  0.00000000000E+00 0.  1.
          1   -1    0    0  501    0  0.00000000000E+00 -0.00000000000E+00 -0.41825572225E+03  0.41825572225E+03  0.00000000000E+00 0. -1.
          5    1    1    2  502    0  0.82552760279E+02 -0.73151938605E+02 -0.17983720252E+03  0.21100961153E+03  0.41800000000E+01 0. -1.
         -5    1    1    2    0  502  0.15038897396E+02  0.38441788195E+02 -0.18735594412E+02  0.45523998204E+02  0.41800000000E+01 0. -1.
        -11    1    1    2    0    0 -0.54529826522E+02  0.52387348842E+02 -0.50786530239E+02  0.91089011154E+02  0.00000000000E+00 0.  1.
         11    1    1    2    0    0 -0.43061831153E+02 -0.17677198432E+02 -0.11524170476E+03  0.12428779169E+03  0.00000000000E+00 0. -1.
</event>
<event>
 6    1  0.4988969E-006  0.8784000E+02  0.7561462E-02  0.1308168E+00
          3   -1    0    0  501    0  0.00000000000E+00  0.00000000000E+00  0.15915791219E+03  0.15915791219E+03  0.00000000000E+00 0. -1.
         -3   -1    0    0    0  501 -0.00000000000E+00 -0.00000000000E+00 -0.90238251331E+02  0.90238251331E+02  0.00000000000E+00 0.  1.
          5    1    1    2  502    0  0.37609788993E+02  0.52415930054E+02 -0.22179543799E+02  0.68347132454E+02  0.41800000000E+01 0. -1.
         -5    1    1    2    0  502 -0.29151524001E+02 -0.47955047562E+02  0.11934260754E+02  0.57527357996E+02  0.41800000000E+01 0. -1.
        -11    1    1    2    0    0 -0.13361216228E+02 -0.27833610907E+02  0.91552732134E+02  0.96618501108E+02  0.00000000000E+00 0. -1.
         11    1    1    2    0    0  0.49029512358E+01  0.23372728415E+02 -0.12387788230E+02  0.26903171962E+02  0.00000000000E+00 0.  1.
</event>
<event>
 6    1  0.4988969E-006  0.1334649E+03  0.7561462E-02  0.1222403E+00
         -4   -1    0    0    0  501 -0.00000000000E+00  0.00000000000E+00  0.83907346918E+03  0.83907346918E+03  0.00000000000E+00 0.  1.
          4   -1    0    0  501    0  0.00000000000E+00 -0.00000000000E+00 -0.33389646516E+02  0.33389646516E+02  0.00000000000E+00 0. -1.
          5    1    1    2  502    0  0.12911642973E+02  0.21073785172E+01  0.32992732208E+03  0.33021305520E+03  0.41800000000E+01 0. -1.
         -5    1    1    2    0  502 -0.33270972385E+02  0.10649210745E+03  0.26208775559E+03  0.28487714999E+03  0.41800000000E+01 0. -1.
        -11    1    1    2    0    0  0.55488965668E+02 -0.70650777573E+02  0.15512413466E+03  0.17925974126E+03  0.00000000000E+00 0.  1.
         11    1    1    2    0    0 -0.35129636255E+02 -0.37948708390E+02  0.58544610330E+02  0.78113169252E+02  0.00000000000E+00 0. -1.
</event>
<event>
 6    1  0.4988969E-006  0.1071042E+03  0.7561462E-02  0.1266028E+00
          2   -1    0    0  501    0  0.00000000000E+00  0.00000000000E+00  0.36816596085E+03  0.36816596085E+03  0.00000000000E+00 0. -1.
         -2   -1    0    0    0  501 -0.00000000000E+00 -0.00000000000E+00 -0.49810507208E+02  0.49810507208E+02  0.00000000000E+00 0.  1.
          5    1    1    2  502    0 -0.18725667350E+01  0.54869975335E+02  0.17231368902E+02  0.57694134655E+02  0.41800000000E+01 0. -1.
         -5    1    1    2    0  502 -0.31698948515E+02 -0.66395854885E+02  0.46239993853E+02  0.86999093756E+02  0.41800000000E+01 0. -1.
        -11    1    1    2    0    0 -0.14920073834E+02  0.30045798485E+02  0.17379585615E+03  0.17700383675E+03  0.00000000000E+00 0. -1.
         11    1    1    2    0    0  0.48491589084E+02 -0.18519918935E+02  0.81088234737E+02  0.96279402896E+02  0.00000000000E+00 0.  1.
</event>
<event>
 6    1  0.4988969E-006  0.1793115E+03  0.7561462E-02  0.1168471E+00
          1   -1    0    0  501    0  0.00000000000E+00  0.00000000000E+00  0.60551309485E+03  0.60551309485E+03  0.00000000000E+00 0. -1.
         -1   -1    0    0    0  501 -0.00000000000E+00 -0.00000000000E+00 -0.86955688557E+02  0.86955688557E+02  0.00000000000E+00 0.  1.
          5    1    1    2  502    0  0.87058813254E+02 -0.99760017305E+02  0.80023990611E+02  0.15476630606E+03  0.41800000000E+01 0. -1.
         -5    1    1    2    0  502 -0.30999500202E+02 -0.40806328084E+02 -0.12409600339E+02  0.52892305727E+02  0.41800000000E+01 0. -1.
        -11    1    1    2    0    0  0.23799846494E+02  0.28603248808E+02  0.62467874227E+02  0.72710479615E+02  0.00000000000E+00 0.  1.
         11    1    1    2    0    0 -0.79859159546E+02  0.11196309658E+03  0.38847514180E+03  0.41209969201E+03  0.00000000000E+00 0. -1.
</event>
<event>
 6    1  0.4988969E-006  0.8293716E+02  0.7561462E-02  0.1320917E+00
          2   -1    0    0  501    0  0.00000000000E+00  0.00000000000E+00  0.71383479493E+02  0.71383479493E+02  0.00000000000E+00 0.  1.
         -2   -1    0    0    0  501 -0.00000000000E+00 -0.00000000000E+00 -0.21843107617E+03  0.21843107617E+03  0.00000000000E+00 0. -1.
          5    1    1    2  502    0  0.20959753535E+02 -0.41165707953E+02 -0.11335927083E+03  0.12248152295E+03  0.41800000000E+01 0. -1.
         -5    1    1    2    0  502 -0.50501474607E+02 -0.10939615362E+02  0.69693356038E+01  0.52307916805E+02  0.41800000000E+01 0. -1.
        -11    1    1    2    0    0  0.16189224534E+02  0.51824332078E+02 -0.66551939939E+02  0.85889540085E+02  0.00000000000E+00 0. -1.
         11    1    1    2    0    0  0.13352496538E+02  0.28099123735E+00  0.25894278493E+02  0.29135575824E+02  0.00000000000E+00 0.  1.
</event>
<event>
 6    1  0.4988969E-006  0.3760557E+03  0.7561462E-02  0.1052401E+00
          3   -1    0    0  501    0  0.00000000000E+00  0.00000000000E+00  0.15312345388E+03  0.15312345388E+03  0.00000000000E+00 0. -1.
         -3   -1    0    0    0  501 -0.00000000000E+00 -0.00000000000E+00 -0.11528183423E+04  0.11528183423E+04  0.00000000000E+00 0.  1.
          5    1    1    2  502    0  0.12697404590E+02  0.46594947021E+01 -0.12464154237E+03  0.12544290119E+03  0.41800000000E+01 0. -1.
         -5    1    1    2    0  502  0.30689693565E+03  0.18878746293E+03 -0.62571333257E+03  0.72205337907E+03  0.41800000000E+01 0. -1.
        -11    1    1    2    0    0 -0.12997067055E+03 -0.47680221342E+02 -0.50340278960E+02  0.14730893522E+03  0.00000000000E+00 0. -1.
         11    1    1    2    0    0 -0.18962366968E+03 -0.14576673629E+03 -0.19899973454E+03  0.31113658072E+03  0.00000000000E+00 0.  1.
</event>
<event>
 6    1  0.4988969E-006  0.9053988E+02  0.7561462E-02  0.1301550E+00
          2   -1    0    0  501    0  0.00000000000E+00  0.00000000000E+00  0.89042999732E+02  0.89042999732E+02  0.00000000000E+00 0. -1.
         -2   -1    0    0    0  501 -0.00000000000E+00 -0.00000000000E+00 -0.24650429518E+03  0.24650429518E+03  0.00000000000E+00 0.  1.
          5    1    1    2  502    0 -0.68198973267E+02 -0.11070770624E+02 -0.17232860471E+03  0.18571021060E+03  0.41800000000E+01 0. -1.
         -5    1    1    2    0  502  0.38638316129E+02  0.90025791564E+01 -0.21941519272E+02  0.45528766431E+02  0.41800000000E+01 0.  1.
        -11    1    1    2    0    0  0.42179116017E+02  0.22613041279E+02 -0.12462246733E+02  0.49454373492E+02  0.00000000000E+00 0.  1.
         11    1    1    2    0    0 -0.12618458879E+02 -0.20544849811E+02  0.49271075265E+02  0.54853944398E+02  0.00000000000E+00 0. -1.
</event>
<event>
 6    1  0.4988969E-006  0.1865358E+03  0.7561462E-02  0.1161623E+00
          1   -1    0    0  501    0  0.00000000000E+00  0.00000000000E+00  0.19837575275E+03  0.19837575275E+03  0.00000000000E+00 0. -1.
         -1   -1    0    0    0  501 -0.00000000000E+00 -0.00000000000E+00 -0.22325333388E+03  0.22325333388E+03  0.00000000000E+00 0.  1.
          5    1    1    2  502    0 -0.16471848055E+03  0.47898619050E+02 -0.10586230186E+03  0.20162032362E+03  0.41800000000E+01 0. -1.
         -5    1    1    2    0  502  0.49131654712E+01 -0.15909931495E+02  0.15210855217E+02  0.22937036242E+02  0.41800000000E+01 0. -1.
        -11    1    1    2    0    0 -0.98760242742E+01  0.43352141004E+01  0.10250084555E+02  0.14879320218E+02  0.00000000000E+00 0. -1.
         11    1    1    2    0    0  0.16968133935E+03 -0.36323901655E+02  0.55523780959E+02  0.18219240656E+03  0.00000000000E+00 0.  1.
</event>
<event>
 6    1  0.4988969E-006  0.8519010E+02  0.7561462E-02  0.1314936E+00
          4   -1    0    0  501    0  0.00000000000E+00  0.00000000000E+00  0.27628665508E+02  0.27628665508E+02  0.00000000000E+00 0. -1.
         -4   -1    0    0    0  501 -0.00000000000E+00 -0.00000000000E+00 -0.57599111969E+03  0.57599111969E+03  0.00000000000E+00 0.  1.
          5    1    1    2  502    0 -0.37075478203E+02  0.35935099354E+02 -0.44683241286E+02  0.68410429771E+02  0.41800000000E+01 0. -1.
         -5    1    1    2    0  502 -0.91157840852E+01 -0.50426544724E+01 -0.33505213995E+03  0.33524011509E+03  0.41800000000E+01 0. -1.
        -11    1    1    2    0    0  0.18412907728E+02  0.32941150822E+02 -0.54656231042E+02  0.66418808934E+02  0.00000000000E+00 0. -1.
         11    1    1    2    0    0  0.27778354560E+02 -0.63833595703E+02 -0.11397084190E+03  0.13355043140E+03  0.00000000000E+00 0.  1.
</event>
<event>
 6    1  0.4988969E-006  0.1062667E+03  0.7561462E-02  0.1267644E+00
          3   -1    0    0  501    0  0.00000000000E+00  0.00000000000E+00  0.30382499150E+02  0.30382499150E+02  0.00000000000E+00 0. -1.
         -3   -1    0    0    0  501 -0.00000000000E+00 -0.00000000000E+00 -0.80148861966E+03  0.80148861966E+03  0.00000000000E+00 0.  1.
          5    1    1    2  502    0 -0.75655776594E+02  0.50041936387E+02 -0.28491044111E+03  0.29903080741E+03  0.41800000000E+01 0. -1.
         -5    1    1    2    0  502  0.21638940549E+02 -0.13164726290E+02 -0.37149522789E+03  0.37238116294E+03  0.41800000000E+01 0. -1.
        -11    1    1    2    0    0  0.36534261691E+02  0.16354915330E+02 -0.93034533886E+01  0.41094887489E+02  0.00000000000E+00 0. -1.
         11    1    1    2    0    0  0.17482574353E+02 -0.53232125427E+02 -0.10539699812E+03  0.11936426097E+03  0.00000000000E+00 0.  1.
</event>
<event>
 6    1  0.4988969E-006  0.1175190E+03  0.7561462E-02  0.1247247E+00
         -1   -1    0    0    0  501 -0.00000000000E+00  0.00000000000E+00  0.17911650907E+03  0.17911650907E+03  0.00000000000E+00 0.  1.
          1   -1    0    0  501    0  0.00000000000E+00 -0.00000000000E+00 -0.85137950914E+02  0.85137950914E+02  0.00000000000E+00 0. -1.
          5    1    1    2  502    0  0.30706932364E+02 -0.43485267475E+02  0.24019893818E+02  0.58551788031E+02  0.41800000000E+01 0.  1.
         -5    1    1    2    0  502  0.42365625388E+01  0.80494541998E+02  0.59010913647E+02  0.99985399350E+02  0.41800000000E+01 0.  1.
        -11    1    1    2    0    0 -0.34792916874E+02  0.22488299522E+02  0.19180494315E+02  0.45652623607E+02  0.00000000000E+00 0. -1.
         11    1    1    2    0    0 -0.15057802904E+00 -0.59497574045E+02 -0.82327436285E+01  0.60064648993E+02  0.00000000000E+00 0.  1.
</event>
<event>
 6    1  0.4988969E-006  0.1326779E+03  0.7561462E-02  0.1223535E+00
          1   -1    0    0  501    0  0.00000000000E+00  0.00000000000E+00  0.24307988085E+03  0.24307988085E+03  0.00000000000E+00 0. -1.
         -1   -1    0    0    0  501 -0.00000000000E+00 -0.00000000000E+00 -0.74539105339E+02  0.74539105339E+02  0.00000000000E+00 0.  1.
          5    1    1    2  502    0  0.16080702647E+01  0.10144893933E+03  0.54630347289E+02  0.11531010548E+03  0.41800000000E+01 0.  1.
         -5    1    1    2    0  502 -0.32759191593E+02 -0.28833858281E+02  0.46500221784E+02  0.63908520896E+02  0.41800000000E+01 0.  1.
        -11    1    1    2    0    0 -0.12705977860E+02 -0.74977536339E+02  0.34439831592E+02  0.83481583771E+02  0.00000000000E+00 0. -1.
         11    1    1    2    0    0  0.43857099189E+02  0.23624552867E+01  0.32970374849E+02  0.54918776042E+02  0.00000000000E+00 0.  1.
</event>
<event>
 6    1  0.4988969E-006  0.8108571E+02  0.7561462E-02  0.1325998E+00
          2   -1    0    0  501    0  0.00000000000E+00  0.00000000000E+00  0.59787310424E+03  0.59787310424E+03  0.00000000000E+00 0. -1.
         -2   -1    0    0    0  501 -0.00000000000E+00 -0.00000000000E+00 -0.20726098295E+02  0.20726098295E+02  0.00000000000E+00 0.  1.
          5    1    1    2  502    0 -0.37909015840E+02  0.20490612488E+01  0.29659013755E+03  0.29903925198E+03  0.41800000000E+01 0. -1.
         -5    1    1    2    0  502  0.24156873164E+02 -0.28011868790E+02  0.19188700105E+02  0.41879564538E+02  0.41800000000E+01 0. -1.
        -11    1    1    2    0    0  0.10308728724E+02 -0.29465932351E+02  0.15022986158E+03  0.15343898582E+03  0.00000000000E+00 0. -1.
         11    1    1    2    0    0  0.34434139519E+01  0.55428739891E+02  0.11113830671E+03  0.12424140020E+03  0.00000000000E+00 0.  1.
</event>
<event>
 6    1  0.8998597E-006  0.1652565E+03  0.7561462E-02  0.1182887E+00
         -1   -1    0    0    0  501 -0.00000000000E+00  0.00000000000E+00  0.51263503046E+02  0.51263503046E+02  0.00000000000E+00 0.  1.
          1   -1    0    0  501    0  0.00000000000E+00 -0.00000000000E+00 -0.66453552165E+03  0.66453552165E+03  0.00000000000E+00 0. -1.
          5    1    1    2  502    0  0.29217216809E+02  0.12172698312E+02 -0.17890889860E+03  0.18173521052E+03  0.41800000000E+01 0.  1.
         -5    1    1    2    0  502  0.10248071759E+03 -0.80387780732E+02 -0.13763335759E+03  0.18953866701E+03  0.41800000000E+01 0.  1.
        -11    1    1    2    0    0 -0.18472109836E+02  0.50367497185E+02 -0.14325307568E+03  0.15296910572E+03  0.00000000000E+00 0. -1.
         11    1    1    2    0    0 -0.11322582456E+03  0.17847585235E+02 -0.15347668672E+03  0.19155604144E+03  0.00000000000E+00 0.  1.
</event>
<event>
 6    1  0.4988969E-006  0.1063423E+03  0.7561462E-02  0.1267497E+00
         -2   -1    0    0    0  501 -0.00000000000E+00  0.00000000000E+00  0.53753366858E+03  0.53753366858E+03  0.00000000000E+00 0. -1.
          2   -1    0    0  501    0  0.00000000000E+00 -0.00000000000E+00 -0.49572927511E+02  0.49572927511E+02  0.00000000000E+00 0.  1.
          5    1    1    2  502    0 -0.12214939477E+02 -0.46004847592E+02  0.10134512949E+03  0.11204444841E+03  0.41800000000E+01 0. -1.
         -5    1    1    2    0  502  0.41636273749E+02  0.56422048606E+02  0.37032666723E+03  0.37693015231E+03  0.41800000000E+01 0. -1.
        -11    1    1    2    0    0  0.88609480694E+01  0.34511107739E+02  0.16115660051E+02  0.39105593678E+02  0.00000000000E+00 0.  1.
         11    1    1    2    0    0 -0.38282282341E+02 -0.44928308752E+02  0.17328429626E+00  0.59026401687E+02  0.00000000000E+00 0. -1.
</event>
<event>
 6    1  0.4988969E-006  0.1423181E+03  0.7561462E-02  0.1210243E+00
          2   -1    0    0  501    0  0.00000000000E+00  0.00000000000E+00  0.17021493588E+03  0.17021493588E+03  0.00000000000E+00 0. -1.
         -2   -1    0    0    0  501 -0.00000000000E+00 -0.00000000000E+00 -0.16284368771E+03  0.16284368771E+03  0.00000000000E+00 0.  1.
          5    1    1    2  502    0  0.98689958179E+01  0.12734972031E+03 -0.39884935675E+02  0.13387915758E+03  0.41800000000E+01 0. -1.
         -5    1    1    2    0  502  0.71239610174E+01 -0.27567638153E+01  0.42631356211E+02  0.43511555933E+02  0.41800000000E+01 0. -1.
        -11    1    1    2    0    0  0.31559695779E+02 -0.49844966465E+02  0.25262426140E+02  0.64177295471E+02  0.00000000000E+00 0. -1.
         11    1    1    2    0    0 -0.48552652614E+02 -0.74747990025E+02 -0.20637598510E+02  0.91490614606E+02  0.00000000000E+00 0.  1.
</event>
<event>
 6    1  0.4988969E-006  0.6749597E+02  0.7561462E-02  0.1368821E+00
          1   -1    0    0  501    0  0.00000000000E+00  0.00000000000E+00  0.60209748686E+02  0.60209748686E+02  0.00000000000E+00 0. -1.
         -1   -1    0    0    0  501 -0.00000000000E+00 -0.00000000000E+00 -0.21577976213E+03  0.21577976213E+03  0.00000000000E+00 0.  1.
          5    1    1    2  502    0  0.22406745816E+02  0.39181412016E+02 -0.11932516497E+03  0.12764486946E+03  0.41800000000E+01 0.  1.
         -5    1    1    2    0  502 -0.32396996703E+02 -0.83056441793E+01  0.16476473553E+02  0.37516605675E+02  0.41800000000E+01 0.  1.
        -11    1    1    2    0    0  0.22969286293E+02 -0.55481428712E+00  0.20328203822E+02  0.30677871542E+02  0.00000000000E+00 0. -1.
         11    1    1    2    0    0 -0.12979035405E+02 -0.30320953549E+02 -0.73049525846E+02  0.80150164133E+02  0.00000000000E+00 0.  1.
</event>
<event>
 6    1  0.4988969E-006  0.9202305E+02  0.7561462E-02  0.1298025E+00
          2   -1    0    0  501    0  0.00000000000E+00  0.00000000000E+00  0.98119583520E+02  0.98119583520E+02  0.00000000000E+00 0.  1.
         -2   -1    0    0    0  501 -0.00000000000E+00 -0.00000000000E+00 -0.13153409895E+03  0.13153409895E+03  0.00000000000E+00 0. -1.
          5    1    1    2  502    0 -0.32802556136E+02  0.50015526649E+02  0.31821289261E+02  0.67879506814E+02  0.41800000000E+01 0. -1.
         -5    1    1    2    0  502  0.22850975918E+02 -0.16386690586E+02 -0.58077606230E+02  0.64661978582E+02  0.41800000000E+01 0. -1.
        -11    1    1    2    0    0  0.39715290834E+02 -0.48254357680E+02 -0.11877916315E+02  0.63615031692E+02  0.00000000000E+00 0.  1.
         11    1    1    2    0    0 -0.29763710616E+02  0.14625521617E+02  0.47197178508E+01  0.33497165384E+02  0.00000000000E+00 0. -1.
</event>
<event>
 6    1  0.4988969E-006  0.2255868E+03  0.7561462E-02  0.1129785E+00
         -2   -1    0    0    0  501 -0.00000000000E+00  0.00000000000E+00  0.24728654386E+03  0.24728654386E+03  0.00000000000E+00 0.  1.
          2   -1    0    0  501    0  0.00000000000E+00 -0.00000000000E+00 -0.55147065227E+03  0.55147065227E+03  0.00000000000E+00 0. -1.
          5    1    1    2  502    0 -0.11824309329E+03  0.87400094491E+02  0.30582568677E+02  0.15024304155E+03  0.41800000000E+01 0. -1.
         -5    1    1    2    0  502  0.14384808331E+03 -0.15392745428E+03  0.72535333327E+02  0.22285596074E+03  0.41800000000E+01 0.  1.
        -11    1    1    2    0    0  0.14837032440E+02 -0.75209418759E+00 -0.48585688405E+01  0.15630382863E+02  0.00000000000E+00 0.  1.
         11    1    1    2    0    0 -0.40442022467E+02  0.67279453978E+02 -0.40244344158E+03  0.41002781098E+03  0.00000000000E+00 0. -1.
</event>
<event>
 6    1  0.4988969E-006  0.2012931E+03  0.7561462E-02  0.1148653E+00
         -1   -1    0    0    0  501 -0.00000000000E+00  0.00000000000E+00  0.35688650872E+03  0.35688650872E+03  0.00000000000E+00 0.  1.
          1   -1    0    0  501    0  0.00000000000E+00 -0.00000000000E+00 -0.17119264130E+03  0.17119264130E+03  0.00000000000E+00 0. -1.
          5    1    1    2  502    0  0.73939924004E+01 -0.16657993260E+03  0.10648234374E+03  0.19788761204E+03  0.41800000000E+01 0. -1.
         -5    1    1    2    0  502 -0.29216196518E+02 -0.21951496118E+02  0.11009301570E+03  0.11607497071E+03  0.41800000000E+01 0. -1.
        -11    1    1    2    0    0  0.39387700816E+02  0.81203764771E+02  0.22429534413E+02  0.92997453742E+02  0.00000000000E+00 0.  1.
         11    1    1    2    0    0 -0.17565496698E+02  0.10732766395E+03 -0.53311026429E+02  0.12111911353E+03  0.00000000000E+00 0. -1.
</event>
<event>
 6    1  0.4988969E-006  0.2525924E+03  0.7561462E-02  0.1111677E+00
          3   -1    0    0  501    0  0.00000000000E+00  0.00000000000E+00  0.44428891596E+03  0.44428891596E+03  0.00000000000E+00 0. -1.
         -3   -1    0    0    0  501 -0.00000000000E+00 -0.00000000000E+00 -0.15812648982E+03  0.15812648982E+03  0.00000000000E+00 0.  1.
          5    1    1    2  502    0  0.20607860031E+02 -0.86018112583E+02  0.11141101878E+03  0.14231544924E+03  0.41800000000E+01 0. -1.
         -5    1    1    2    0  502  0.10832621695E+03 -0.11848222002E+03  0.26288745707E+02  0.16273037913E+03  0.41800000000E+01 0. -1.
        -11    1    1    2    0    0 -0.14086144946E+03  0.19611797710E+03  0.14706831096E+03  0.28272477248E+03  0.00000000000E+00 0.  1.
         11    1    1    2    0    0  0.11927372474E+02  0.83823555013E+01  0.13943507053E+01  0.14644804941E+02  0.00000000000E+00 0. -1.
</event>
<event>
 6    1  0.4988969E-006  0.1013399E+03  0.7561462E-02  0.1277503E+00
         -1   -1    0    0    0  501 -0.00000000000E+00  0.00000000000E+00  0.73029662268E+02  0.73029662268E+02  0.00000000000E+00 0.  1.
          1   -1    0    0  501    0  0.00000000000E+00 -0.00000000000E+00 -0.34432998731E+03  0.34432998731E+03  0.00000000000E+00 0. -1.
          5    1    1    2  502    0  0.17175842350E+02 -0.55552924882E+01  0.43990175211E+02  0.47733413351E+02  0.41800000000E+01 0. -1.
         -5    1    1    2    0  502  0.60325447133E+02  0.28261326823E+02 -0.82397598641E+02  0.10604102427E+03  0.41800000000E+01 0. -1.
        -11    1    1    2    0    0 -0.37290172281E+02  0.32252958848E+02 -0.59336040425E+02  0.77146458095E+02  0.00000000000E+00 0.  1.
         11    1    1    2    0    0 -0.40211117202E+02 -0.54958993183E+02 -0.17355686118E+03  0.18643875386E+03  0.00000000000E+00 0. -1.
</event>
<event>
 6    1  0.4988969E-006  0.1086973E+03  0.7561462E-02  0.1263002E+00
          2   -1    0    0  501    0  0.00000000000E+00  0.00000000000E+00  0.38027315675E+03  0.38027315675E+03  0.00000000000E+00 0. -1.
         -2   -1    0    0    0  501 -0.00000000000E+00 -0.00000000000E+00 -0.36084161014E+02  0.36084161014E+02  0.00000000000E+00 0.  1.
          5    1    1    2  502    0  0.76755697730E+01  0.64815752291E+02  0.69814612308E+02  0.95663726711E+02  0.41800000000E+01 0. -1.
         -5    1    1    2    0  502 -0.85253902301E+01 -0.58587179780E+02  0.48817092134E+02  0.76848687677E+02  0.41800000000E+01 0. -1.
        -11    1    1    2    0    0 -0.54465080824E+01 -0.49053664123E+02  0.11832371214E+03  0.12820463045E+03  0.00000000000E+00 0.  1.
         11    1    1    2    0    0  0.62963285396E+01  0.42825091613E+02  0.10723357915E+03  0.11564027293E+03  0.00000000000E+00 0. -1.
</event>
<event>
 6    1  0.4988969E-006  0.1029441E+03  0.7561462E-02  0.1274224E+00
         -2   -1    0    0    0  501 -0.00000000000E+00  0.00000000000E+00  0.11670986522E+03  0.11670986522E+03  0.00000000000E+00 0.  1.
          2   -1    0    0  501    0  0.00000000000E+00 -0.00000000000E+00 -0.14046836752E+03  0.14046836752E+03  0.00000000000E+00 0. -1.
          5    1    1    2  502    0  0.89007002508E+01 -0.60693903914E+02  0.12357822711E+02  0.62714915446E+02  0.41800000000E+01 0.  1.
         -5    1    1    2    0  502  0.31684664867E+02  0.61422939875E+02  0.29888828994E+02  0.75415582138E+02  0.41800000000E+01 0.  1.
        -11    1    1    2    0    0 -0.50591410768E+02  0.18188861619E+02 -0.77833124046E+02  0.94595564004E+02  0.00000000000E+00 0. -1.
         11    1    1    2    0    0  0.10006045650E+02 -0.18917897579E+02  0.11827970043E+02  0.24452171145E+02  0.00000000000E+00 0.  1.
</event>
<event>
 6    1  0.4988969E-006  0.1026681E+03  0.7561462E-02  0.1274783E+00
         -2   -1    0    0    0  501 -0.00000000000E+00  0.00000000000E+00  0.16742255891E+03  0.16742255891E+03  0.00000000000E+00 0.  1.
          2   -1    0    0  501    0  0.00000000000E+00 -0.00000000000E+00 -0.10280614602E+03  0.10280614602E+03  0.00000000000E+00 0. -1.
          5    1    1    2  502    0 -0.11793818868E+02  0.57319113045E+02  0.72453426373E+02  0.93228462805E+02  0.41800000000E+01 0. -1.
         -5    1    1    2    0  502 -0.50084958227E+02 -0.43013110376E+02  0.33741944751E+01  0.66238118128E+02  0.41800000000E+01 0. -1.
        -11    1    1    2    0    0  0.69365513681E+02 -0.64527915299E+01  0.24182381593E+02  0.73742800234E+02  0.00000000000E+00 0.  1.
         11    1    1    2    0    0 -0.74867365868E+01 -0.78532111391E+01 -0.35393589553E+02  0.37019323756E+02  0.00000000000E+00 0. -1.
</event>
<event>
 6    1  0.5361550E-006  0.1760956E+03  0.7561462E-02  0.1171636E+00
          1   -1    0    0  501    0  0.00000000000E+00  0.00000000000E+00  0.16475486572E+04  0.16475486572E+04  0.00000000000E+00 0. -1.
         -1   -1    0    0    0  501 -0.00000000000E+00 -0.00000000000E+00 -0.23575753968E+02  0.23575753968E+02  0.00000000000E+00 0.  1.
          5    1    1    2  502    0 -0.70420824969E+02 -0.13911158666E+03  0.83395619912E+03  0.84841707938E+03  0.41800000000E+01 0. -1.
         -5    1    1    2    0  502 -0.26528315362E+02  0.68885788874E+01  0.34866722702E+02  0.44546209570E+02  0.41800000000E+01 0. -1.
        -11    1    1    2    0    0  0.13909802390E+02  0.48954762408E+02  0.96522639221E+02  0.10911769447E+03  0.00000000000E+00 0.  1.
         11    1    1    2    0    0  0.83039337942E+02  0.83268245365E+02  0.65862734223E+03  0.66904342779E+03  0.00000000000E+00 0. -1.
</event>
<event>
 6    1  0.4988969E-006  0.1453453E+03  0.7561462E-02  0.1206312E+00
         -1   -1    0    0    0  501 -0.00000000000E+00  0.00000000000E+00  0.99645198620E+03  0.99645198620E+03  0.00000000000E+00 0.  1.
          1   -1    0    0  501    0  0.00000000000E+00 -0.00000000000E+00 -0.21396839457E+02  0.21396839457E+02  0.00000000000E+00 0. -1.
          5    1    1    2  502    0 -0.31777919969E+02  0.30301534684E+02  0.12072888675E+03  0.12853386985E+03  0.41800000000E+01 0.  1.
         -5    1    1    2    0  502 -0.22681790218E+02 -0.11100323473E+03  0.40531995452E+03  0.42087755898E+03  0.41800000000E+01 0.  1.
        -11    1    1    2    0    0  0.70356948373E+02  0.24026354147E+02  0.23467035983E+03  0.24616568335E+03  0.00000000000E+00 0.  1.
         11    1    1    2    0    0 -0.15897238187E+02  0.56675345896E+02  0.21433594564E+03  0.22227171347E+03  0.00000000000E+00 0. -1.
</event>
<event>
 6    1  0.4988969E-006  0.1170668E+03  0.7561462E-02  0.1248016E+00
          1   -1    0    0  501    0  0.00000000000E+00  0.00000000000E+00  0.76987859798E+02  0.76987859798E+02  0.00000000000E+00 0. -1.
         -1   -1    0    0    0  501 -0.00000000000E+00 -0.00000000000E+00 -0.33449415087E+03  0.33449415087E+03  0.00000000000E+00 0.  1.
          5    1    1    2  502    0  0.39431477126E+02  0.12208292113E+02  0.76649944477E+01  0.42191329969E+02  0.41800000000E+01 0.  1.
         -5    1    1    2    0  502  0.45702862067E+02  0.59736865248E+02 -0.19549152676E+03  0.20950335106E+03  0.41800000000E+01 0.  1.
        -11    1    1    2    0    0 -0.78611832866E+02 -0.47133692576E+02 -0.88932462041E+02  0.12771212960E+03  0.00000000000E+00 0.  1.
         11    1    1    2    0    0 -0.65225063271E+01 -0.24811464785E+02  0.19252703284E+02  0.32075200035E+02  0.00000000000E+00 0. -1.
</event>
<event>
 6    1  0.4988969E-006  0.1405917E+03  0.7561462E-02  0.1212535E+00
          2   -1    0    0  501    0  0.00000000000E+00  0.00000000000E+00  0.13069587643E+03  0.13069587643E+03  0.00000000000E+00 0. -1.
         -2   -1    0    0    0  501 -0.00000000000E+00 -0.00000000000E+00 -0.22543219529E+03  0.22543219529E+03  0.00000000000E+00 0.  1.
          5    1    1    2  502    0  0.36357018352E+02  0.42128248722E+02 -0.64487168877E+02  0.85280064924E+02  0.41800000000E+01 0. -1.
         -5    1    1    2    0  502  0.88759525394E+02 -0.33730501320E+01  0.39961096945E+02  0.97488422310E+02  0.41800000000E+01 0. -1.
        -11    1    1    2    0    0 -0.47688399667E+02 -0.34599560888E+02 -0.75349736388E+02  0.95649860691E+02  0.00000000000E+00 0.  1.
         11    1    1    2    0    0 -0.77428144079E+02 -0.41556377016E+01  0.51394894617E+01  0.77709723794E+02  0.00000000000E+00 0. -1.
</event>
<event>
 6    1  0.4988969E-006  0.1398044E+03  0.7561462E-02  0.1213592E+00
          1   -1    0    0  501    0  0.00000000000E+00  0.00000000000E+00  0.67612778720E+03  0.67612778720E+03  0.00000000000E+00 0. -1.
         -1   -1    0    0    0  501 -0.00000000000E+00 -0.00000000000E+00 -0.35435256706E+02  0.35435256706E+02  0.00000000000E+00 0.  1.
          5    1    1    2  502    0 -0.43403749388E+02 -0.85968863898E+01  0.13509392961E+03  0.14221685601E+03  0.41800000000E+01 0.  1.
         -5    1    1    2    0  502  0.66669348754E+01  0.10289133642E+03  0.10866306693E+03  0.14985396106E+03  0.41800000000E+01 0.  1.
        -11    1    1    2    0    0  0.56908573632E+02 -0.96136243170E+02  0.36464108653E+03  0.38137105946E+03  0.00000000000E+00 0. -1.
         11    1    1    2    0    0 -0.20171759119E+02  0.18417931415E+01  0.32294447421E+02  0.38121167377E+02  0.00000000000E+00 0.  1.
</event>
<event>
 6    1  0.4988969E-006  0.8161430E+02  0.7561462E-02  0.1324532E+00
          3   -1    0    0  501    0  0.00000000000E+00  0.00000000000E+00  0.35918398934E+02  0.35918398934E+02  0.00000000000E+00 0. -1.
         -3   -1    0    0    0  501 -0.00000000000E+00 -0.00000000000E+00 -0.48779944338E+03  0.48779944338E+03  0.00000000000E+00 0.  1.
          5    1    1    2  502    0 -0.95550593757E-01 -0.47308231315E+02 -0.70887671154E+02  0.85326503513E+02  0.41800000000E+01 0. -1.
         -5    1    1    2    0  502  0.14533263005E+02  0.54420269920E+02 -0.33411049070E+03  0.33885110876E+03  0.41800000000E+01 0. -1.
        -11    1    1    2    0    0 -0.33609713914E+02 -0.17019196978E+02 -0.62448374878E+02  0.72931923464E+02  0.00000000000E+00 0.  1.
         11    1    1    2    0    0  0.19172001502E+02  0.99071583731E+01  0.15565492288E+02  0.26608306576E+02  0.00000000000E+00 0. -1.
</event>
<event>
 6    1  0.4988969E-006  0.9737555E+02  0.7561462E-02  0.1285914E+00
         -2   -1    0    0    0  501 -0.00000000000E+00  0.00000000000E+00  0.16356295162E+03  0.16356295162E+03  0.00000000000E+00 0.  1.
          2   -1    0    0  501    0  0.00000000000E+00 -0.00000000000E+00 -0.92517455942E+02  0.92517455942E+02  0.00000000000E+00 0. -1.
          5    1    1    2  502    0 -0.36694244330E+02  0.27761398499E+02  0.56901231906E+00  0.46205616419E+02  0.41800000000E+01 0. -1.
         -5    1    1    2    0  502  0.26931824428E+02 -0.58858237075E+02  0.92949535765E+02  0.11334330081E+03  0.41800000000E+01 0. -1.
        -11    1    1    2    0    0 -0.24579569432E+02  0.41125153125E+02  0.91570651556E+01  0.48777918111E+02  0.00000000000E+00 0.  1.
         11    1    1    2    0    0  0.34341989334E+02 -0.10028314549E+02 -0.31630117558E+02  0.47753572231E+02  0.00000000000E+00 0. -1.
</event>
<event>
 6    1  0.4988969E-006  0.9901019E+02  0.7561462E-02  0.1282391E+00
         -2   -1    0    0    0  501 -0.00000000000E+00  0.00000000000E+00  0.16001618581E+02  0.16001618581E+02  0.00000000000E+00 0.  1.
          2   -1    0    0  501    0  0.00000000000E+00 -0.00000000000E+00 -0.86346654102E+03  0.86346654102E+03  0.00000000000E+00 0. -1.
          5    1    1    2  502    0  0.36062191680E+02  0.25156501902E+02 -0.59505893427E+02  0.74106376306E+02  0.41800000000E+01 0. -1.
         -5    1    1    2    0  502 -0.49359285748E+02  0.18148477364E+02 -0.42752361753E+03  0.43076631979E+03  0.41800000000E+01 0. -1.
        -11    1    1    2    0    0 -0.34645316996E+02  0.25714625038E+01 -0.14877892140E+03  0.15278114368E+03  0.00000000000E+00 0.  1.
         11    1    1    2    0    0  0.47942411065E+02 -0.45876441769E+02 -0.21165649008E+03  0.22181431982E+03  0.00000000000E+00 0. -1.
</event>
<event>
 6    1  0.4988969E-006  0.1219511E+03  0.7561462E-02  0.1239913E+00
          2   -1    0    0  501    0  0.00000000000E+00  0.00000000000E+00  0.73542218521E+02  0.73542218521E+02  0.00000000000E+00 0. -1.
         -2   -1    0    0    0  501 -0.00000000000E+00 -0.00000000000E+00 -0.25641474936E+03  0.25641474936E+03  0.00000000000E+00 0.  1.
          5    1    1    2  502    0  0.10234425883E+01 -0.85567972214E+02 -0.26162109306E+02  0.89581547580E+02  0.41800000000E+01 0. -1.
         -5    1    1    2    0  502  0.49394204904E+02  0.17703648339E+02 -0.77022029793E+02  0.93290257348E+02  0.41800000000E+01 0. -1.
        -11    1    1    2    0    0 -0.65633796832E+02  0.53746935392E+02 -0.90194920859E+02  0.12382104869E+03  0.00000000000E+00 0.  1.
         11    1    1    2    0    0  0.15216149339E+02  0.14117388483E+02  0.10506529117E+02  0.23264114262E+02  0.00000000000E+00 0. -1.
</event>
<event>
 6    1  0.4988969E-006  0.1365683E+03  0.7561462E-02  0.1218023E+00
          1   -1    0    0  501    0  0.00000000000E+00  0.00000000000E+00  0.10622712184E+04  0.10622712184E+04  0.00000000000E+00 0. -1.
         -1   -1    0    0    0  501 -0.00000000000E+00 -0.00000000000E+00 -0.19146062026E+02  0.19146062026E+02  0.00000000000E+00 0.  1.
          5    1    1    2  502    0 -0.36147402493E+02  0.11319867241E+03  0.35985401874E+03  0.37898939477E+03  0.41800000000E+01 0.  1.
         -5    1    1    2    0  502  0.13387695262E+02 -0.29177280439E+02  0.71254080301E+02  0.78263404205E+02  0.41800000000E+01 0.  1.
        -11    1    1    2    0    0 -0.32244428862E+02 -0.22404708707E+02  0.16765838041E+03  0.17219467671E+03  0.00000000000E+00 0.  1.
         11    1    1    2    0    0  0.55004136093E+02 -0.61616683268E+02  0.44435867687E+03  0.45196980469E+03  0.00000000000E+00 0. -1.
</event>
<event>
 6    1  0.4988969E-006  0.1123512E+03  0.7561462E-02  0.1256277E+00
         -3   -1    0    0    0  501 -0.00000000000E+00  0.00000000000E+00  0.71821991575E+02  0.71821991575E+02  0.00000000000E+00 0.  1.
          3   -1    0    0  501    0  0.00000000000E+00 -0.00000000000E+00 -0.28032891523E+03  0.28032891523E+03  0.00000000000E+00 0. -1.
          5    1    1    2  502    0  0.14793316411E+02  0.46223774804E+02  0.23916715924E+02  0.54267497346E+02  0.41800000000E+01 0. -1.
         -5    1    1    2    0  502  0.40356830000E+02 -0.57261313416E+02 -0.47912440173E+02  0.84974149393E+02  0.41800000000E+01 0. -1.
        -11    1    1    2    0    0 -0.26147132641E+02  0.50481929448E+02 -0.89602134603E+02  0.10611616404E+03  0.00000000000E+00 0.  1.
         11    1    1    2    0    0 -0.29003013770E+02 -0.39444390837E+02 -0.94909064800E+02  0.10679309602E+03  0.00000000000E+00 0. -1.
</event>
<event>
 6    1  0.4988969E-006  0.8472639E+02  0.7561462E-02  0.1316150E+00
          4   -1    0    0  501    0  0.00000000000E+00  0.00000000000E+00  0.18348947843E+03  0.18348947843E+03  0.00000000000E+00 0.  1.
         -4   -1    0    0    0  501 -0.00000000000E+00 -0.00000000000E+00 -0.11524587775E+03  0.11524587775E+03  0.00000000000E+00 0. -1.
          5    1    1    2  502    0 -0.40900739634E+02 -0.30661248642E+02  0.23369457826E+02  0.56361215653E+02  0.41800000000E+01 0. -1.
         -5    1    1    2    0  502 -0.30205082579E+01  0.41938173176E+02 -0.75544143630E+02  0.86558210912E+02  0.41800000000E+01 0. -1.
        -11    1    1    2    0    0  0.98330056787E+01 -0.33702325548E+02  0.10739038071E+03  0.11298331123E+03  0.00000000000E+00 0.  1.
         11    1    1    2    0    0  0.34088242213E+02  0.22425401013E+02  0.13027905773E+02  0.42832618372E+02  0.00000000000E+00 0. -1.
</event>
<event>
 6    1  0.4988969E-006  0.8782633E+02  0.7561462E-02  0.1308203E+00
          2   -1    0    0  501    0  0.00000000000E+00  0.00000000000E+00  0.52811188400E+03  0.52811188400E+03  0.00000000000E+00 0. -1.
         -2   -1    0    0    0  501 -0.00000000000E+00 -0.00000000000E+00 -0.26665182275E+02  0.26665182275E+02  0.00000000000E+00 0.  1.
          5    1    1    2  502    0 -0.37885209687E+02 -0.14572598170E+02  0.15946288252E+03  0.16460113315E+03  0.41800000000E+01 0. -1.
         -5    1    1    2    0  502  0.41957184174E+02  0.34909389442E+02  0.27406512498E+02  0.61218135404E+02  0.41800000000E+01 0. -1.
        -11    1    1    2    0    0 -0.11047836634E+02  0.28607756458E+02  0.42406939947E+02  0.52333612330E+02  0.00000000000E+00 0.  1.
         11    1    1    2    0    0  0.69758621475E+01 -0.48944547729E+02  0.27217036675E+03  0.27662418539E+03  0.00000000000E+00 0. -1.
</event>
<event>
 6    1  0.4988969E-006  0.1197483E+03  0.7561462E-02  0.1243513E+00
         -2   -1    0    0    0  501 -0.00000000000E+00  0.00000000000E+00  0.17506057138E+03  0.17506057138E+03  0.00000000000E+00 0.  1.
          2   -1    0    0  501    0  0.00000000000E+00 -0.00000000000E+00 -0.10832900076E+03  0.10832900076E+03  0.00000000000E+00 0. -1.
          5    1    1    2  502    0  0.14418799099E+02  0.41864929493E+02  0.17208523574E+02  0.47688360975E+02  0.41800000000E+01 0. -1.
         -5    1    1    2    0  502 -0.96165583219E+02 -0.36376799544E+02  0.69751934662E+00  0.10290310916E+03  0.41800000000E+01 0. -1.
        -11    1    1    2    0    0  0.61744389854E+02  0.14944367710E+02 -0.12852756558E+02  0.64814328322E+02  0.00000000000E+00 0. -1.
         11    1    1    2    0    0  0.20002394266E+02 -0.20432497658E+02  0.61678284251E+02  0.67983773690E+02  0.00000000000E+00 0.  1.
</event>
<event>
 6    1  0.4988969E-006  0.9327384E+02  0.7561462E-02  0.1295112E+00
         -2   -1    0    0    0  501 -0.00000000000E+00  0.00000000000E+00  0.35744294853E+02  0.35744294853E+02  0.00000000000E+00 0.  1.
          2   -1    0    0  501    0  0.00000000000E+00 -0.00000000000E+00 -0.29853728948E+03  0.29853728948E+03  0.00000000000E+00 0. -1.
          5    1    1    2  502    0  0.32532845309E+02 -0.22694434804E+02 -0.12121253555E+03  0.12760632653E+03  0.41800000000E+01 0. -1.
         -5    1    1    2    0  502 -0.46408626590E+02  0.28363665840E+02 -0.31415861500E+02  0.62949876216E+02  0.41800000000E+01 0.  1.
        -11    1    1    2    0    0  0.50142892639E+02  0.12310701718E+02 -0.66375332863E+02  0.84092495929E+02  0.00000000000E+00 0. -1.
         11    1    1    2    0    0 -0.36267111359E+02 -0.17979932754E+02 -0.43789264716E+02  0.59632885663E+02  0.00000000000E+00 0.  1.
</event>
<event>
 6    1  0.4988969E-006  0.1632012E+03  0.7561462E-02  0.1185129E+00
          2   -1    0    0  501    0  0.00000000000E+00  0.00000000000E+00  0.87124050876E+03  0.87124050876E+03  0.00000000000E+00 0. -1.
         -2   -1    0    0    0  501 -0.00000000000E+00 -0.00000000000E+00 -0.32475161267E+02  0.32475161267E+02  0.00000000000E+00 0.  1.
          5    1    1    2  502    0 -0.31861394947E+02 -0.80869168665E+02  0.20387236624E+03  0.22166728456E+03  0.41800000000E+01 0. -1.
         -5    1    1    2    0  502 -0.81903339596E+02  0.31102537371E+02  0.15297033510E+03  0.17633184820E+03  0.41800000000E+01 0. -1.
        -11    1    1    2    0    0  0.12383921344E+03  0.59741035501E+02  0.41094698658E+03  0.43333886035E+03  0.00000000000E+00 0.  1.
         11    1    1    2    0    0 -0.10074478902E+02 -0.99744042074E+01  0.70975659574E+02  0.72377676921E+02  0.00000000000E+00 0. -1.
</event>
<event>
 6    1  0.4988969E-006  0.1557148E+03  0.7561462E-02  0.1193621E+00
         -2   -1    0    0    0  501 -0.00000000000E+00  0.00000000000E+00  0.31804133850E+02  0.31804133850E+02  0.00000000000E+00 0.  1.
          2   -1    0    0  501    0  0.00000000000E+00 -0.00000000000E+00 -0.93309833221E+03  0.93309833221E+03  0.00000000000E+00 0. -1.
          5    1    1    2  502    0  0.56815947635E+01  0.35464140234E+02 -0.62156486184E+02  0.71908879399E+02  0.41800000000E+01 0.  1.
         -5    1    1    2    0  502  0.12231025169E+03 -0.69313636041E+02 -0.46687909606E+03  0.48760408176E+03  0.41800000000E+01 0.  1.
        -11    1    1    2    0    0 -0.62776475339E+02  0.29221197904E+02 -0.79537795710E+02  0.10545627155E+03  0.00000000000E+00 0.  1.
         11    1    1    2    0    0 -0.65215371110E+02  0.46282979024E+01 -0.29272082040E+03  0.29993323335E+03  0.00000000000E+00 0. -1.
</event>
<event>
 6    1  0.4988969E-006  0.1830512E+03  0.7561462E-02  0.1164882E+00
          1   -1    0    0  501    0  0.00000000000E+00  0.00000000000E+00  0.14271047412E+03  0.14271047412E+03  0.00000000000E+00 0. -1.
         -1   -1    0    0    0  501 -0.00000000000E+00 -0.00000000000E+00 -0.45835466396E+03  0.45835466396E+03  0.00000000000E+00 0.  1.
          5    1    1    2  502    0 -0.38983333671E+02  0.40455291962E+02 -0.19642383189E+02  0.59662606121E+02  0.41800000000E+01 0. -1.
         -5    1    1    2    0  502 -0.11962677734E+03  0.40709546290E+02 -0.31666496813E+03  0.34097215056E+03  0.41800000000E+01 0. -1.
        -11    1    1    2    0    0  0.27904120863E+02 -0.34892548797E+02 -0.28869316030E+02  0.53193677544E+02  0.00000000000E+00 0. -1.
         11    1    1    2    0    0  0.13070599015E+03 -0.46272289455E+02  0.49532477513E+02  0.14723670385E+03  0.00000000000E+00 0.  1.
</event>
<event>
 6    1  0.4988969E-006  0.1957502E+03  0.7561462E-02  0.1153375E+00
         -1   -1    0    0    0  501 -0.00000000000E+00  0.00000000000E+00  0.43658114663E+03  0.43658114663E+03  0.00000000000E+00 0.  1.
          1   -1    0    0  501    0  0.00000000000E+00 -0.00000000000E+00 -0.96550636503E+02  0.96550636503E+02  0.00000000000E+00 0. -1.
          5    1    1    2  502    0 -0.31267673983E+01 -0.17253064269E+03  0.17295821243E+03  0.24435346322E+03  0.41800000000E+01 0. -1.
         -5    1    1    2    0  502 -0.38487538279E+02  0.65289600489E+01  0.44081510377E+02  0.59030245461E+02  0.41800000000E+01 0. -1.
        -11    1    1    2    0    0 -0.12987148070E+02  0.45851245834E+02 -0.23835918832E+01  0.47714612749E+02  0.00000000000E+00 0. -1.
         11    1    1    2    0    0  0.54601453747E+02  0.12015043681E+03  0.12537437920E+03  0.18203346170E+03  0.00000000000E+00 0.  1.
</event>
<event>
 6    1  0.4988969E-006  0.1233026E+03  0.7561462E-02  0.1237746E+00
          2   -1    0    0  501    0  0.00000000000E+00  0.00000000000E+00  0.39352410119E+03  0.39352410119E+03  0.00000000000E+00 0. -1.
         -2   -1    0    0    0  501 -0.00000000000E+00 -0.00000000000E+00 -0.45848895825E+02  0.45848895825E+02  0.00000000000E+00 0.  1.
          5    1    1    2  502    0 -0.44149707453E+02 -0.96389463900E+02  0.89429861266E+02  0.13876346027E+03  0.41800000000E+01 0. -1.
         -5    1    1    2    0  502  0.72399198186E+01  0.31945125991E+02  0.67955964419E+02  0.75553907998E+02  0.41800000000E+01 0. -1.
        -11    1    1    2    0    0 -0.20549478618E+02  0.40140306161E+02  0.13269332516E+03  0.14014650831E+03  0.00000000000E+00 0. -1.
         11    1    1    2    0    0  0.57459266253E+02  0.24304031748E+02  0.57596054523E+02  0.84909120442E+02  0.00000000000E+00 0.  1.
</event>
<event>
 6    1  0.4988969E-006  0.8394206E+02  0.7561462E-02  0.1318223E+00
          2   -1    0    0  501    0  0.00000000000E+00  0.00000000000E+00  0.28445661944E+02  0.28445661944E+02  0.00000000000E+00 0. -1.
         -2   -1    0    0    0  501 -0.00000000000E+00 -0.00000000000E+00 -0.44419026352E+03  0.44419026352E+03  0.00000000000E+00 0.  1.
          5    1    1    2  502    0 -0.12380643294E+02 -0.63208378087E+02 -0.23366483482E+03  0.24241556637E+03  0.41800000000E+01 0.  1.
         -5    1    1    2    0  502 -0.18563473733E+01  0.34938970264E+02 -0.16168092274E+02  0.38769282641E+02  0.41800000000E+01 0.  1.
        -11    1    1    2    0    0  0.12160444517E+02 -0.18034688233E+02 -0.28592187500E+01  0.21938585241E+02  0.00000000000E+00 0. -1.
         11    1    1    2    0    0  0.20765461499E+01  0.46304096056E+02 -0.16305245573E+03  0.16951249120E+03  0.00000000000E+00 0.  1.
</event>
<event>
 6    1  0.4988969E-006  0.1099110E+03  0.7561462E-02  0.1260735E+00
         -1   -1    0    0    0  501 -0.00000000000E+00  0.00000000000E+00  0.59623064432E+02  0.59623064432E+02  0.00000000000E+00 0.  1.
          1   -1    0    0  501    0  0.00000000000E+00 -0.00000000000E+00 -0.33640177164E+03  0.33640177164E+03  0.00000000000E+00 0. -1.
          5    1    1    2  502    0  0.19046812327E+02  0.41219043205E+02 -0.15992886550E+03  0.16630245038E+03  0.41800000000E+01 0. -1.
         -5    1    1    2    0  502 -0.58760243758E+02 -0.49053131567E+02  0.10128714796E+01  0.76664687254E+02  0.41800000000E+01 0.  1.
        -11    1    1    2    0    0 -0.26219461592E+02  0.16629194115E+02 -0.40472577795E+02  0.51009997221E+02  0.00000000000E+00 0. -1.
         11    1    1    2    0    0  0.65932893024E+02 -0.87951057523E+01 -0.77390135396E+02  0.10204770122E+03  0.00000000000E+00 0.  1.
</event>
<event>
 6    1  0.4988969E-006  0.1246307E+03  0.7561462E-02  0.1235648E+00
          3   -1    0    0  501    0  0.00000000000E+00  0.00000000000E+00  0.11224647469E+03  0.11224647469E+03  0.00000000000E+00 0. -1.
         -3   -1    0    0    0  501 -0.00000000000E+00 -0.00000000000E+00 -0.31419185293E+03  0.31419185293E+03  0.00000000000E+00 0.  1.
          5    1    1    2  502    0  0.35166050658E+02 -0.73854179666E+01 -0.13548229190E+02  0.38629294993E+02  0.41800000000E+01 0. -1.
         -5    1    1    2    0  502 -0.15687112870E+02  0.88753039719E+02 -0.23761782642E+03  0.25417098851E+03  0.41800000000E+01 0. -1.
        -11    1    1    2    0    0 -0.53222802321E+02 -0.29133937342E+02  0.34256870012E+02  0.69677730552E+02  0.00000000000E+00 0.  1.
         11    1    1    2    0    0  0.33743864532E+02 -0.52233684410E+02  0.14963807347E+02  0.63960313562E+02  0.00000000000E+00 0. -1.
</event>
<event>
 6    1  0.4988969E-006  0.1306261E+03  0.7561462E-02  0.1226530E+00
         -2   -1    0    0    0  501 -0.00000000000E+00  0.00000000000E+00  0.19497562886E+03  0.19497562886E+03  0.00000000000E+00 0.  1.
          2   -1    0    0  501    0  0.00000000000E+00 -0.00000000000E+00 -0.14120468521E+03  0.14120468521E+03  0.00000000000E+00 0. -1.
          5    1    1    2  502    0  0.10278653872E+03  0.26747037084E+02  0.80818827861E+02  0.13352764460E+03  0.41800000000E+01 0. -1.
         -5    1    1    2    0  502 -0.27289333256E+02 -0.25828705611E+02  0.49137008679E+02  0.61997965814E+02  0.41800000000E+01 0. -1.
        -11    1    1    2    0    0 -0.63231081619E+02  0.39742537090E+02 -0.39246223605E+02  0.84367677486E+02  0.00000000000E+00 0.  1.
         11    1    1    2    0    0 -0.12266123845E+02 -0.40660868563E+02 -0.36938669283E+02  0.56287026168E+02  0.00000000000E+00 0. -1.
</event>
<event>
 6    1  0.4988969E-006  0.2368558E+03  0.7561462E-02  0.1121905E+00
          1   -1    0    0  501    0  0.00000000000E+00  0.00000000000E+00  0.12407227137E+04  0.12407227137E+04  0.00000000000E+00 0. -1.
         -1   -1    0    0    0  501 -0.00000000000E+00 -0.00000000000E+00 -0.53188485751E+02  0.53188485751E+02  0.00000000000E+00 0.  1.
          5    1    1    2  502    0  0.60110146802E+02 -0.90487358213E+02  0.32226753986E+03  0.34011032238E+03  0.41800000000E+01 0. -1.
         -5    1    1    2    0  502  0.11383236186E+03 -0.51493068870E+02  0.13178672222E+03  0.18164403459E+03  0.41800000000E+01 0. -1.
        -11    1    1    2    0    0 -0.11757319305E+03  0.41321973218E+02  0.34035349731E+03  0.36245201659E+03  0.00000000000E+00 0.  1.
         11    1    1    2    0    0 -0.56369315614E+02  0.10065845386E+03  0.39312646852E+03  0.40970482585E+03  0.00000000000E+00 0. -1.
</event>
<event>
 6    1  0.4988969E-006  0.1140604E+03  0.7561462E-02  0.1253230E+00
          2   -1    0    0  501    0  0.00000000000E+00  0.00000000000E+00  0.76045127118E+03  0.76045127118E+03  0.00000000000E+00 0. -1.
         -2   -1    0    0    0  501 -0.00000000000E+00 -0.00000000000E+00 -0.20349248363E+02  0.20349248363E+02  0.00000000000E+00 0.  1.
          5    1    1    2  502    0 -0.19076160536E+02  0.25526194132E+02  0.35559853273E+02  0.47931847997E+02  0.41800000000E+01 0. -1.
         -5    1    1    2    0  502  0.45547355874E+02 -0.80186609815E+02  0.34875221837E+03  0.36076313037E+03  0.41800000000E+01 0. -1.
        -11    1    1    2    0    0  0.30787445671E+02  0.20597074220E+02  0.18717415149E+03  0.19080426951E+03  0.00000000000E+00 0. -1.
         11    1    1    2    0    0 -0.57258641009E+02  0.34063341464E+02  0.16861579969E+03  0.18130127166E+03  0.00000000000E+00 0.  1.
</event>
<event>
 6    1  0.4988969E-006  0.1405170E+03  0.7561462E-02  0.1212635E+00
         -1   -1    0    0    0  501 -0.00000000000E+00  0.00000000000E+00  0.32631591341E+02  0.32631591341E+02  0.00000000000E+00 0.  1.
          1   -1    0    0  501    0  0.00000000000E+00 -0.00000000000E+00 -0.78133493195E+03  0.78133493195E+03  0.00000000000E+00 0. -1.
          5    1    1    2  502    0 -0.31851658297E+02  0.73987276837E+02 -0.16294362812E+03  0.18181513583E+03  0.41800000000E+01 0. -1.
         -5    1    1    2    0  502  0.67517691501E+02  0.13880756028E+02 -0.64228880125E+02  0.94308724388E+02  0.41800000000E+01 0. -1.
        -11    1    1    2    0    0  0.15569221310E+02 -0.77493381415E+02 -0.30176212845E+03  0.31194231355E+03  0.00000000000E+00 0.  1.
         11    1    1    2    0    0 -0.51235254514E+02 -0.10374651450E+02 -0.21976870391E+03  0.22590034952E+03  0.00000000000E+00 0. -1.
</event>
<event>
 6    1  0.9972001E-006  0.1758578E+03  0.7561462E-02  0.1171873E+00
         -1   -1    0    0    0  501 -0.00000000000E+00  0.00000000000E+00  0.16364803722E+02  0.16364803722E+02  0.00000000000E+00 0.  1.
          1   -1    0    0  501    0  0.00000000000E+00 -0.00000000000E+00 -0.19863885955E+04  0.19863885955E+04  0.00000000000E+00 0. -1.
          5    1    1    2  502    0 -0.10374198268E+03 -0.14891722988E+02 -0.46010027117E+03  0.47190453941E+03  0.41800000000E+01 0.  1.
         -5    1    1    2    0  502 -0.62383174092E+01 -0.76057757690E+02 -0.62613620533E+03  0.63078341698E+03  0.41800000000E+01 0.  1.
        -11    1    1    2    0    0  0.75881125201E+02  0.10822298012E+03 -0.68848859362E+03  0.70106112581E+03  0.00000000000E+00 0.  1.
         11    1    1    2    0    0  0.34099174884E+02 -0.17273499440E+02 -0.19529872165E+03  0.19900431701E+03  0.00000000000E+00 0. -1.
</event>
<event>
 6    1  0.4988969E-006  0.8805384E+02  0.7561462E-02  0.1307634E+00
          1   -1    0    0  501    0  0.00000000000E+00  0.00000000000E+00  0.16326952484E+03  0.16326952484E+03  0.00000000000E+00 0. -1.
         -1   -1    0    0    0  501 -0.00000000000E+00 -0.00000000000E+00 -0.85742611978E+02  0.85742611978E+02  0.00000000000E+00 0.  1.
          5    1    1    2  502    0 -0.37347080734E+02  0.42049224156E+02 -0.44813211544E+02  0.72032201274E+02  0.41800000000E+01 0.  1.
         -5    1    1    2    0  502  0.17997403625E+02 -0.13439737937E+02  0.53318136412E+02  0.58007147521E+02  0.41800000000E+01 0.  1.
        -11    1    1    2    0    0 -0.13732554051E+02 -0.53646779781E+02  0.37775153928E+02  0.67033739833E+02  0.00000000000E+00 0.  1.
         11    1    1    2    0    0  0.33082231161E+02  0.25037293562E+02  0.31246834062E+02  0.51939048185E+02  0.00000000000E+00 0. -1.
</event>
<event>
 6    1  0.4988969E-006  0.8804899E+02  0.7561462E-02  0.1307646E+00
          1   -1    0    0  501    0  0.00000000000E+00  0.00000000000E+00  0.70126606382E+02  0.70126606382E+02  0.00000000000E+00 0. -1.
         -1   -1    0    0    0  501 -0.00000000000E+00 -0.00000000000E+00 -0.18911750909E+03  0.18911750909E+03  0.00000000000E+00 0.  1.
          5    1    1    2  502    0 -0.50817068880E+02  0.45167458155E+02 -0.69076593724E+01  0.68466502202E+02  0.41800000000E+01 0. -1.
         -5    1    1    2    0  502  0.85446723440E+01 -0.45828550418E+02 -0.70394702154E+02  0.84534927398E+02  0.41800000000E+01 0. -1.
        -11    1    1    2    0    0  0.17247020862E+02 -0.21628284483E+02  0.21287096289E+02  0.34905341808E+02  0.00000000000E+00 0. -1.
         11    1    1    2    0    0  0.25025375674E+02  0.22289376746E+02 -0.62975637474E+02  0.71337344067E+02  0.00000000000E+00 0.  1.
</event>
<event>
 6    1  0.4988969E-006  0.1077414E+03  0.7561462E-02  0.1264811E+00
         -2   -1    0    0    0  501 -0.00000000000E+00  0.00000000000E+00  0.27967395066E+02  0.27967395066E+02  0.00000000000E+00 0.  1.
          2   -1    0    0  501    0  0.00000000000E+00 -0.00000000000E+00 -0.52444216996E+03  0.52444216996E+03  0.00000000000E+00 0. -1.
          5    1    1    2  502    0  0.16056447637E+02  0.46173880868E+02 -0.11252712177E+03  0.12275855294E+03  0.41800000000E+01 0.  1.
         -5    1    1    2    0  502  0.14486536489E+02 -0.77405621311E+02 -0.95085158276E+02  0.12353197835E+03  0.41800000000E+01 0.  1.
        -11    1    1    2    0    0 -0.11043883566E+02 -0.25381902537E+02 -0.31730830769E+02  0.42107647309E+02  0.00000000000E+00 0.  1.
         11    1    1    2    0    0 -0.19499100560E+02  0.56613642980E+02 -0.25713166408E+03  0.26401138643E+03  0.00000000000E+00 0. -1.
</event>
<event>
 6    1  0.4988969E-006  0.1430313E+03  0.7561462E-02  0.1209307E+00
          2   -1    0    0  501    0  0.00000000000E+00  0.00000000000E+00  0.18447670884E+02  0.18447670884E+02  0.00000000000E+00 0. -1.
         -2   -1    0    0    0  501 -0.00000000000E+00 -0.00000000000E+00 -0.14862230704E+04  0.14862230704E+04  0.00000000000E+00 0.  1.
          5    1    1    2  502    0  0.34329903008E+02 -0.18387629142E+02 -0.13099149490E+03  0.13672194880E+03  0.41800000000E+01 0.  1.
         -5    1    1    2    0  502 -0.89114019398E+02 -0.79710748856E+02 -0.89401268740E+03  0.90198185656E+03  0.41800000000E+01 0.  1.
        -11    1    1    2    0    0  0.62251983180E+02  0.53627051895E+02 -0.37936282836E+03  0.38815889226E+03  0.00000000000E+00 0.  1.
         11    1    1    2    0    0 -0.74678667911E+01  0.44471326103E+02 -0.63408388819E+02  0.77808043623E+02  0.00000000000E+00 0. -1.
</event>
<event>
 6    1  0.4988969E-006  0.7663781E+02  0.7561462E-02  0.1338873E+00
          2   -1    0    0  501    0  0.00000000000E+00  0.00000000000E+00  0.12890315043E+03  0.12890315043E+03  0.00000000000E+00 0. -1.
         -2   -1    0    0    0  501 -0.00000000000E+00 -0.00000000000E+00 -0.13666416802E+03  0.13666416802E+03  0.00000000000E+00 0.  1.
          5    1    1    2  502    0  0.52325342125E+02 -0.34949915158E+02 -0.90513074705E+02  0.11031557955E+03  0.41800000000E+01 0. -1.
         -5    1    1    2    0  502 -0.11159606060E+02 -0.53548314260E+01  0.35619370865E+02  0.37939728621E+02  0.41800000000E+01 0. -1.
        -11    1    1    2    0    0 -0.43344233553E+02  0.50599214865E+02  0.67214553847E+02  0.94640368639E+02  0.00000000000E+00 0. -1.
         11    1    1    2    0    0  0.21784974876E+01 -0.10294468281E+02 -0.20081867596E+02  0.22671641640E+02  0.00000000000E+00 0.  1.
</event>
<event>
 6    1  0.4988969E-006  0.1252267E+03  0.7561462E-02  0.1234715E+00
          1   -1    0    0  501    0  0.00000000000E+00  0.00000000000E+00  0.15794267647E+03  0.15794267647E+03  0.00000000000E+00 0. -1.
         -1   -1    0    0    0  501 -0.00000000000E+00 -0.00000000000E+00 -0.11137661946E+03  0.11137661946E+03  0.00000000000E+00 0.  1.
          5    1    1    2  502    0  0.41420762947E+02 -0.74478452396E+02  0.17914092129E+02  0.87184325261E+02  0.41800000000E+01 0. -1.
         -5    1    1    2    0  502  0.23075520894E+02  0.45865500432E+02 -0.23304428772E+02  0.56539301330E+02  0.41800000000E+01 0. -1.
        -11    1    1    2    0    0 -0.59825649822E+02  0.58317628427E+02  0.31793461848E+02  0.89391713141E+02  0.00000000000E+00 0.  1.
         11    1    1    2    0    0 -0.46706340190E+01 -0.29704676463E+02  0.20162931799E+02  0.36203956202E+02  0.00000000000E+00 0. -1.
</event>
<event>
 6    1  0.4988969E-006  0.9008968E+02  0.7561462E-02  0.1302635E+00
          2   -1    0    0  501    0  0.00000000000E+00  0.00000000000E+00  0.71026870474E+02  0.71026870474E+02  0.00000000000E+00 0.  1.
         -2   -1    0    0    0  501 -0.00000000000E+00 -0.00000000000E+00 -0.17373548319E+03  0.17373548319E+03  0.00000000000E+00 0. -1.
          5    1    1    2  502    0 -0.48960344668E+02 -0.40591664903E+02 -0.38936863758E+02  0.74688354976E+02  0.41800000000E+01 0. -1.
         -5    1    1    2    0  502  0.28033182837E+02  0.57553826257E+02 -0.44451029514E+02  0.78049142735E+02  0.41800000000E+01 0. -1.
        -11    1    1    2    0    0  0.19172483776E+01 -0.29470703003E+02  0.27254852736E+02  0.40187375810E+02  0.00000000000E+00 0.  1.
         11    1    1    2    0    0  0.19009913454E+02  0.12508541650E+02 -0.46575572184E+02  0.51837480147E+02  0.00000000000E+00 0. -1.
</event>
<event>
 6    1  0.4988969E-006  0.9668866E+02  0.7561462E-02  0.1287417E+00
         -1   -1    0    0    0  501 -0.00000000000E+00  0.00000000000E+00  0.51010950618E+02  0.51010950618E+02  0.00000000000E+00 0.  1.
          1   -1    0    0  501    0  0.00000000000E+00 -0.00000000000E+00 -0.29564169331E+03  0.29564169331E+03  0.00000000000E+00 0. -1.
          5    1    1    2  502    0 -0.13013237300E+02 -0.43976221866E+02 -0.58655920211E+02  0.74573734052E+02  0.41800000000E+01 0.  1.
         -5    1    1    2    0  502  0.17263048264E+02  0.63651948195E+02 -0.25490444824E+01  0.66132846393E+02  0.41800000000E+01 0.  1.
        -11    1    1    2    0    0 -0.26955009916E+02  0.21327729935E+02 -0.30344238374E+02  0.45849944670E+02  0.00000000000E+00 0.  1.
         11    1    1    2    0    0  0.22705198952E+02 -0.41003456263E+02 -0.15308153962E+03  0.16009611881E+03  0.00000000000E+00 0. -1.
</event>
<event>
 6    1  0.4988969E-006  0.1063357E+03  0.7561462E-02  0.1267510E+00
         -2   -1    0    0    0  501 -0.00000000000E+00  0.00000000000E+00  0.39850264392E+02  0.39850264392E+02  0.00000000000E+00 0.  1.
          2   -1    0    0  501    0  0.00000000000E+00 -0.00000000000E+00 -0.39199537603E+03  0.39199537603E+03  0.00000000000E+00 0. -1.
          5    1    1    2  502    0 -0.40758820149E+02 -0.46373618665E+02 -0.29196023988E+02  0.68422760429E+02  0.41800000000E+01 0. -1.
         -5    1    1    2    0  502 -0.57764498359E+00  0.62681067226E+02 -0.91587683693E+02  0.11106316251E+03  0.41800000000E+01 0. -1.
        -11    1    1    2    0    0 -0.69010870546E+01  0.24083267158E+02 -0.13481574817E+03  0.13712372047E+03  0.00000000000E+00 0. -1.
         11    1    1    2    0    0  0.48237552187E+02 -0.40390715719E+02 -0.96545655789E+02  0.11523599702E+03  0.00000000000E+00 0.  1.
</event>
<event>
 6    1  0.4988969E-006  0.6159005E+02  0.7561462E-02  0.1391278E+00
         -2   -1    0    0    0  501 -0.00000000000E+00  0.00000000000E+00  0.29270895262E+03  0.29270895262E+03  0.00000000000E+00 0.  1.
          2   -1    0    0  501    0  0.00000000000E+00 -0.00000000000E+00 -0.41777708456E+02  0.41777708456E+02  0.00000000000E+00 0. -1.
          5    1    1    2  502    0  0.66072965317E+01  0.69975145102E+01  0.16746892702E+03  0.16779730478E+03  0.41800000000E+01 0.  1.
         -5    1    1    2    0  502  0.45889970360E+02 -0.19089456291E+02  0.24233727780E+01  0.49936378090E+02  0.41800000000E+01 0.  1.
        -11    1    1    2    0    0 -0.32321864046E+02 -0.90714276759E+01  0.80817748422E+02  0.87512868514E+02  0.00000000000E+00 0.  1.
         11    1    1    2    0    0 -0.20175402845E+02  0.21163369457E+02  0.22119594334E+00  0.29240109684E+02  0.00000000000E+00 0. -1.
</event>
<event>
 6    1  0.4988969E-006  0.1849898E+03  0.7561462E-02  0.1163059E+00
         -2   -1    0    0    0  501 -0.00000000000E+00  0.00000000000E+00  0.60384646481E+02  0.60384646481E+02  0.00000000000E+00 0.  1.
          2   -1    0    0  501    0  0.00000000000E+00 -0.00000000000E+00 -0.69296702587E+03  0.69296702587E+03  0.00000000000E+00 0. -1.
          5    1    1    2  502    0  0.11144970551E+02  0.32653926932E+02 -0.15524291856E+03  0.15908590596E+03  0.41800000000E+01 0. -1.
         -5    1    1    2    0  502  0.12902244799E+03  0.64017674651E+02 -0.11754996380E+03  0.18595838552E+03  0.41800000000E+01 0. -1.
        -11    1    1    2    0    0 -0.14418988695E+03 -0.63222093914E+02 -0.27206631197E+03  0.31433713552E+03  0.00000000000E+00 0.  1.
         11    1    1    2    0    0  0.40224684126E+01 -0.33449507669E+02 -0.87723185054E+02  0.93970245352E+02  0.00000000000E+00 0. -1.
</event>
<event>
 6    1  0.4988969E-006  0.1587107E+03  0.7561462E-02  0.1190160E+00
          1   -1    0    0  501    0  0.00000000000E+00  0.00000000000E+00  0.37834984319E+02  0.37834984319E+02  0.00000000000E+00 0. -1.
         -1   -1    0    0    0  501 -0.00000000000E+00 -0.00000000000E+00 -0.79476498960E+03  0.79476498960E+03  0.00000000000E+00 0.  1.
          5    1    1    2  502    0  0.27231602611E+02  0.85153263628E+02 -0.16158452282E+03  0.18471510199E+03  0.41800000000E+01 0.  1.
         -5    1    1    2    0  502  0.78358221016E+02 -0.83887147380E+01 -0.32298791308E+03  0.33248916634E+03  0.41800000000E+01 0.  1.
        -11    1    1    2    0    0 -0.55915501319E+02  0.19248031919E+01 -0.52788927113E+02  0.76921511821E+02  0.00000000000E+00 0.  1.
         11    1    1    2    0    0 -0.49674322308E+02 -0.78689352082E+02 -0.21956864226E+03  0.23847419377E+03  0.00000000000E+00 0. -1.
</event>
<event>
 6    1  0.4988969E-006  0.7654361E+02  0.7561462E-02  0.1339157E+00
          1   -1    0    0  501    0  0.00000000000E+00  0.00000000000E+00  0.10665570623E+03  0.10665570623E+03  0.00000000000E+00 0. -1.
         -1   -1    0    0    0  501 -0.00000000000E+00 -0.00000000000E+00 -0.12279558197E+03  0.12279558197E+03  0.00000000000E+00 0.  1.
          5    1    1    2  502    0 -0.19447184814E+02  0.27086148575E+02 -0.58970029937E+02  0.67873332559E+02  0.41800000000E+01 0. -1.
         -5    1    1    2    0  502 -0.13992867850E+02 -0.15784436817E+02  0.58259228742E+02  0.62101199101E+02  0.41800000000E+01 0. -1.
        -11    1    1    2    0    0  0.46795044024E+02  0.29316874530E+02 -0.12510571178E+02  0.56619516677E+02  0.00000000000E+00 0. -1.
         11    1    1    2    0    0 -0.13354991360E+02 -0.40618586288E+02 -0.29185033673E+01  0.42857239857E+02  0.00000000000E+00 0.  1.
</event>
<event>
 6    1  0.4988969E-006  0.8665967E+02  0.7561462E-02  0.1311149E+00
         -1   -1    0    0    0  501 -0.00000000000E+00  0.00000000000E+00  0.15389597609E+03  0.15389597609E+03  0.00000000000E+00 0.  1.
          1   -1    0    0  501    0  0.00000000000E+00 -0.00000000000E+00 -0.10015981529E+03  0.10015981529E+03  0.00000000000E+00 0. -1.
          5    1    1    2  502    0  0.44396085640E+02 -0.10830248809E+02  0.99030061178E+02  0.10914546315E+03  0.41800000000E+01 0. -1.
         -5    1    1    2    0  502 -0.23525157669E+02 -0.20340540360E+02 -0.25759178492E+02  0.40597762279E+02  0.41800000000E+01 0. -1.
        -11    1    1    2    0    0  0.12703488048E+02  0.53984863017E+02 -0.29068761187E+02  0.62615788109E+02  0.00000000000E+00 0. -1.
         11    1    1    2    0    0 -0.33574416020E+02 -0.22814073848E+02  0.95340393046E+01  0.41696777838E+02  0.00000000000E+00 0.  1.
</event>
<event>
 6    1  0.4988969E-006  0.1248393E+03  0.7561462E-02  0.1235321E+00
         -1   -1    0    0    0  501 -0.00000000000E+00  0.00000000000E+00  0.59283041034E+02  0.59283041034E+02  0.00000000000E+00 0.  1.
          1   -1    0    0  501    0  0.00000000000E+00 -0.00000000000E+00 -0.39208431019E+03  0.39208431019E+03  0.00000000000E+00 0. -1.
          5    1    1    2  502    0  0.33462236441E+02  0.22543178566E+02 -0.35190758449E+02  0.53700819805E+02  0.41800000000E+01 0. -1.
         -5    1    1    2    0  502 -0.96121353274E+02 -0.12949860336E+01 -0.20531663634E+02  0.98387057867E+02  0.41800000000E+01 0. -1.
        -11    1    1    2    0    0  0.41175271619E+02  0.34138546530E+02 -0.12192486002E+03  0.13314095855E+03  0.00000000000E+00 0. -1.
         11    1    1    2    0    0  0.21483845215E+02 -0.55386739063E+02 -0.15515398705E+03  0.16613851500E+03  0.00000000000E+00 0.  1.
</event>
<event>
 6    1  0.4988969E-006  0.9912661E+02  0.7561462E-02  0.1282143E+00
          1   -1    0    0  501    0  0.00000000000E+00  0.00000000000E+00  0.36106470226E+03  0.36106470226E+03  0.00000000000E+00 0. -1.
         -1   -1    0    0    0  501 -0.00000000000E+00 -0.00000000000E+00 -0.37503825146E+02  0.37503825146E+02  0.00000000000E+00 0.  1.
          5    1    1    2  502    0 -0.31313052409E+02 -0.36459505311E+02  0.11014727539E+03  0.12024848213E+03  0.41800000000E+01 0.  1.
         -5    1    1    2    0  502  0.53398080341E+01  0.60720035398E+02  0.21410637708E+02  0.64740436016E+02  0.41800000000E+01 0.  1.
        -11    1    1    2    0    0  0.53203834290E+02 -0.30008499092E+02  0.97411441648E+02  0.11497889791E+03  0.00000000000E+00 0. -1.
         11    1    1    2    0    0 -0.27230589915E+02  0.57479690054E+01  0.94591522363E+02  0.98600711345E+02  0.00000000000E+00 0.  1.
</event>
<event>
 6    1  0.5793152E-006  0.1969378E+03  0.7561462E-02  0.1152349E+00
         -1   -1    0    0    0  501 -0.00000000000E+00  0.00000000000E+00  0.67309940867E+02  0.67309940867E+02  0.00000000000E+00 0.  1.
          1   -1    0    0  501    0  0.00000000000E+00 -0.00000000000E+00 -0.69424870543E+03  0.69424870543E+03  0.00000000000E+00 0. -1.
          5    1    1    2  502    0 -0.18765036189E+02  0.13545132965E+03 -0.93356925628E+02  0.16562661999E+03  0.41800000000E+01 0. -1.
         -5    1    1    2    0  502  0.22098279143E+02  0.48476386803E+02 -0.17483776114E+03  0.18282234311E+03  0.41800000000E+01 0. -1.
        -11    1    1    2    0    0  0.41740134179E+02 -0.76942881882E+02 -0.17680139621E+03  0.19728451428E+03  0.00000000000E+00 0.  1.
         11    1    1    2    0    0 -0.45073377133E+02 -0.10698483457E+03 -0.18194268159E+03  0.21582516892E+03  0.00000000000E+00 0. -1.
</event>
<event>
 6    1  0.4988969E-006  0.2168877E+03  0.7561462E-02  0.1136225E+00
          3   -1    0    0  501    0  0.00000000000E+00  0.00000000000E+00  0.12818887129E+03  0.12818887129E+03  0.00000000000E+00 0. -1.
         -3   -1    0    0    0  501 -0.00000000000E+00 -0.00000000000E+00 -0.40534807583E+03  0.40534807583E+03  0.00000000000E+00 0.  1.
          5    1    1    2  502    0 -0.50085046466E+02  0.10625014041E+03 -0.81985801881E+02  0.14330648389E+03  0.41800000000E+01 0.  1.
         -5    1    1    2    0  502  0.73698459612E+02  0.91044110691E+02 -0.87821839727E+02  0.14646037339E+03  0.41800000000E+01 0.  1.
        -11    1    1    2    0    0 -0.41715746823E+01 -0.82059529227E+02  0.41189794103E+01  0.82268671824E+02  0.00000000000E+00 0. -1.
         11    1    1    2    0    0 -0.19441838465E+02 -0.11523472187E+03 -0.11147054235E+03  0.16150141801E+03  0.00000000000E+00 0.  1.
</event>
<event>
 6    1  0.4988969E-006  0.1565124E+03  0.7561462E-02  0.1192691E+00
          2   -1    0    0  501    0  0.00000000000E+00  0.00000000000E+00  0.23697066611E+03  0.23697066611E+03  0.00000000000E+00 0.  1.
         -2   -1    0    0    0  501 -0.00000000000E+00 -0.00000000000E+00 -0.10475840177E+03  0.10475840177E+03  0.00000000000E+00 0. -1.
          5    1    1    2  502    0 -0.36008400180E+02 -0.72958665026E+02  0.22491641833E+02  0.84515785734E+02  0.41800000000E+01 0. -1.
         -5    1    1    2    0  502  0.80059127353E+02 -0.32681325301E+02  0.49110839411E+02  0.99533310221E+02  0.41800000000E+01 0. -1.
        -11    1    1    2    0    0  0.24221805939E+02  0.54629567578E+02  0.18084679056E+02  0.62435095526E+02  0.00000000000E+00 0.  1.
         11    1    1    2    0    0 -0.68272533113E+02  0.51010422749E+02  0.42525104036E+02  0.95244876397E+02  0.00000000000E+00 0. -1.
</event>
<event>
 6    1  0.4988969E-006  0.1093263E+03  0.7561462E-02  0.1261823E+00
          3   -1    0    0  501    0  0.00000000000E+00  0.00000000000E+00  0.58514817857E+02  0.58514817857E+02  0.00000000000E+00 0. -1.
         -3   -1    0    0    0  501 -0.00000000000E+00 -0.00000000000E+00 -0.22778994572E+03  0.22778994572E+03  0.00000000000E+00 0.  1.
          5    1    1    2  502    0 -0.45932824391E+02  0.40363806164E+02 -0.27930399288E+02  0.67354590111E+02  0.41800000000E+01 0. -1.
         -5    1    1    2    0  502  0.11992747708E+02 -0.64036255438E+02 -0.77918527485E+02  0.10165253235E+03  0.41800000000E+01 0. -1.
        -11    1    1    2    0    0  0.20779636302E+02 -0.30179728496E+02 -0.46766788325E+02  0.59411630067E+02  0.00000000000E+00 0.  1.
         11    1    1    2    0    0  0.13160440382E+02  0.53852177770E+02 -0.16659412768E+02  0.57886011051E+02  0.00000000000E+00 0. -1.
</event>
<event>
 6    1  0.4988969E-006  0.1359587E+03  0.7561462E-02  0.1218873E+00
          1   -1    0    0  501    0  0.00000000000E+00  0.00000000000E+00  0.57537633625E+02  0.57537633625E+02  0.00000000000E+00 0. -1.
         -1   -1    0    0    0  501 -0.00000000000E+00 -0.00000000000E+00 -0.46696283348E+03  0.46696283348E+03  0.00000000000E+00 0.  1.
          5    1    1    2  502    0 -0.37749203876E+02  0.19653519910E+02 -0.10587216089E+03  0.11418252970E+03  0.41800000000E+01 0. -1.
         -5    1    1    2    0  502  0.10245226826E+03  0.38925960515E+02 -0.24991490749E+03  0.27292239017E+03  0.41800000000E+01 0. -1.
        -11    1    1    2    0    0 -0.28547770262E+02 -0.74640798713E+02 -0.56283662853E+02  0.97744947305E+02  0.00000000000E+00 0.  1.
         11    1    1    2    0    0 -0.36155294122E+02  0.16061318289E+02  0.26455313712E+01  0.39650599925E+02  0.00000000000E+00 0. -1.
</event>
<event>
 6    1  0.4988969E-006  0.1335018E+03  0.7561462E-02  0.1222350E+00
          1   -1    0    0  501    0  0.00000000000E+00  0.00000000000E+00  0.51280795380E+03  0.51280795380E+03  0.00000000000E+00 0. -1.
         -1   -1    0    0    0  501 -0.00000000000E+00 -0.00000000000E+00 -0.71060080421E+02  0.71060080421E+02  0.00000000000E+00 0.  1.
          5    1    1    2  502    0  0.76827798820E+01 -0.36367627346E+01 -0.28666288311E+02  0.30190721015E+02  0.41800000000E+01 0. -1.
         -5    1    1    2    0  502 -0.11396763655E+03 -0.21029931757E+02  0.89901958719E+02  0.14673348218E+03  0.41800000000E+01 0. -1.
        -11    1    1    2    0    0  0.32196927238E+01 -0.26362313331E+02  0.10678738678E+03  0.11004037423E+03  0.00000000000E+00 0.  1.
         11    1    1    2    0    0  0.10306516395E+03  0.51029007822E+02  0.27372481619E+03  0.29690345680E+03  0.00000000000E+00 0. -1.
</event>
<event>
 6    1  0.4988969E-006  0.1777203E+03  0.7561462E-02  0.1170028E+00
         -3   -1    0    0    0  501 -0.00000000000E+00  0.00000000000E+00  0.75461963264E+02  0.75461963264E+02  0.00000000000E+00 0.  1.
          3   -1    0    0  501    0  0.00000000000E+00 -0.00000000000E+00 -0.48886508013E+03  0.48886508013E+03  0.00000000000E+00 0. -1.
          5    1    1    2  502    0 -0.29347709613E+02  0.36843826342E+02 -0.93876622807E+02  0.10511445338E+03  0.41800000000E+01 0.  1.
         -5    1    1    2    0  502  0.74769187393E+02  0.10822503237E+03 -0.59442054752E+02  0.14440886153E+03  0.41800000000E+01 0.  1.
        -11    1    1    2    0    0 -0.72892545081E+02 -0.11073611919E+03 -0.20778979883E+03  0.24648004325E+03  0.00000000000E+00 0.  1.
         11    1    1    2    0    0  0.27471067300E+02 -0.34332739522E+02 -0.52294640480E+02  0.68323685239E+02  0.00000000000E+00 0. -1.
</event>
<event>
 6    1  0.4988969E-006  0.8961857E+02  0.7561462E-02  0.1303778E+00
          1   -1    0    0  501    0  0.00000000000E+00  0.00000000000E+00  0.18878730691E+03  0.18878730691E+03  0.00000000000E+00 0. -1.
         -1   -1    0    0    0  501 -0.00000000000E+00 -0.00000000000E+00 -0.12297714669E+03  0.12297714669E+03  0.00000000000E+00 0.  1.
          5    1    1    2  502    0  0.55867637556E+02 -0.39717735157E+02  0.24290478375E+02  0.72843607487E+02  0.41800000000E+01 0. -1.
         -5    1    1    2    0  502  0.82562451918E+01  0.73993687106E+01 -0.73946066291E+02  0.74889314070E+02  0.41800000000E+01 0.  1.
        -11    1    1    2    0    0 -0.33824810216E+02 -0.19238616104E+02  0.91820021478E+02  0.99725415417E+02  0.00000000000E+00 0. -1.
         11    1    1    2    0    0 -0.30299072532E+02  0.51556982550E+02  0.23645726666E+02  0.64306116626E+02  0.00000000000E+00 0.  1.
</event>
<event>
 6    1  0.4988969E-006  0.1171213E+03  0.7561462E-02  0.1247923E+00
          1   -1    0    0  501    0  0.00000000000E+00  0.00000000000E+00  0.31682754815E+02  0.31682754815E+02  0.00000000000E+00 0. -1.
         -1   -1    0    0    0  501 -0.00000000000E+00 -0.00000000000E+00 -0.72794852099E+03  0.72794852099E+03  0.00000000000E+00 0.  1.
          5    1    1    2  502    0  0.20411359150E+02  0.67948334734E+01 -0.76738037472E+01  0.23219668564E+02  0.41800000000E+01 0. -1.
         -5    1    1    2    0  502 -0.24654858539E+02  0.84877034002E+02 -0.49511686490E+03  0.50296138546E+03  0.41800000000E+01 0. -1.
        -11    1    1    2    0    0 -0.38108756942E+02 -0.27658469149E+02 -0.11209512293E+03  0.12158365374E+03  0.00000000000E+00 0.  1.
         11    1    1    2    0    0  0.42352256331E+02 -0.64013398327E+02 -0.81379974601E+02  0.11186656805E+03  0.00000000000E+00 0. -1.
</event>
<event>
 6    1  0.4988969E-006  0.9965185E+02  0.7561462E-02  0.1281030E+00
          1   -1    0    0  501    0  0.00000000000E+00  0.00000000000E+00  0.88884085834E+02  0.88884085834E+02  0.00000000000E+00 0. -1.
         -1   -1    0    0    0  501 -0.00000000000E+00 -0.00000000000E+00 -0.16227877677E+03  0.16227877677E+03  0.00000000000E+00 0.  1.
          5    1    1    2  502    0  0.86969271483E+02 -0.19822770765E+01 -0.24657159342E+02  0.90515366162E+02  0.41800000000E+01 0. -1.
         -5    1    1    2    0  502 -0.43781637276E+02 -0.46767334579E+01 -0.26254410863E+02  0.51434133493E+02  0.41800000000E+01 0. -1.
        -11    1    1    2    0    0 -0.15538228537E+02 -0.22793275245E+02  0.31446596904E+02  0.41831308840E+02  0.00000000000E+00 0. -1.
         11    1    1    2    0    0 -0.27649405670E+02  0.29452285779E+02 -0.53929717632E+02  0.67382054105E+02  0.00000000000E+00 0.  1.
</event>
<event>
 6    1  0.4988969E-006  0.9284555E+02  0.7561462E-02  0.1296103E+00
          2   -1    0    0  501    0  0.00000000000E+00  0.00000000000E+00  0.11219752675E+03  0.11219752675E+03  0.00000000000E+00 0. -1.
         -2   -1    0    0    0  501 -0.00000000000E+00 -0.00000000000E+00 -0.12135314156E+03  0.12135314156E+03  0.00000000000E+00 0.  1.
          5    1    1    2  502    0  0.40744791018E+02  0.50049036852E+02 -0.25173995517E+02  0.69399182525E+02  0.41800000000E+01 0.  1.
         -5    1    1    2    0  502 -0.35371236943E+02 -0.48944179902E+02 -0.22947543438E+02  0.64735765223E+02  0.41800000000E+01 0.  1.
        -11    1    1    2    0    0  0.15298651767E+02 -0.24739121943E+02  0.56430638487E+02  0.63486139120E+02  0.00000000000E+00 0. -1.
         11    1    1    2    0    0 -0.20672205842E+02  0.23634264993E+02 -0.17464714342E+02  0.35929581450E+02  0.00000000000E+00 0.  1.
</event>
<event>
 6    1  0.4988969E-006  0.1196077E+03  0.7561462E-02  0.1243746E+00
         -3   -1    0    0    0  501 -0.00000000000E+00  0.00000000000E+00  0.59502812974E+02  0.59502812974E+02  0.00000000000E+00 0.  1.
          3   -1    0    0  501    0  0.00000000000E+00 -0.00000000000E+00 -0.49825285467E+03  0.49825285467E+03  0.00000000000E+00 0. -1.
          5    1    1    2  502    0  0.92227426043E+02 -0.32127874903E+02 -0.47761143519E+01  0.97869209298E+02  0.41800000000E+01 0. -1.
         -5    1    1    2    0  502 -0.51440322846E+01 -0.13207762770E+02 -0.81931420888E+02  0.83253445540E+02  0.41800000000E+01 0. -1.
        -11    1    1    2    0    0 -0.30130665330E+02  0.60638962275E+02 -0.24759301126E+03  0.25668509884E+03  0.00000000000E+00 0.  1.
         11    1    1    2    0    0 -0.56952728428E+02 -0.15303324602E+02 -0.10444949520E+03  0.11994791397E+03  0.00000000000E+00 0. -1.
</event>
<event>
 6    1  0.4988969E-006  0.9583685E+02  0.7561462E-02  0.1289302E+00
         -2   -1    0    0    0  501 -0.00000000000E+00  0.00000000000E+00  0.69365919629E+02  0.69365919629E+02  0.00000000000E+00 0.  1.
          2   -1    0    0  501    0  0.00000000000E+00 -0.00000000000E+00 -0.22197409933E+03  0.22197409933E+03  0.00000000000E+00 0. -1.
          5    1    1    2  502    0 -0.18838162395E+02 -0.17890829494E+02  0.19581352145E+02  0.32800303264E+02  0.41800000000E+01 0. -1.
         -5    1    1    2    0  502  0.80134630384E+02 -0.66754867717E+01 -0.71614007915E+02  0.10775973107E+03  0.41800000000E+01 0.  1.
        -11    1    1    2    0    0 -0.45287820281E+02  0.41577853989E+02 -0.10965846853E+03  0.12571668278E+03  0.00000000000E+00 0. -1.
         11    1    1    2    0    0 -0.16008647708E+02 -0.17011537724E+02  0.90829445961E+01  0.25063301851E+02  0.00000000000E+00 0.  1.
</event>
<event>
 6    1  0.4988969E-006  0.9027294E+02  0.7561462E-02  0.1302192E+00
         -1   -1    0    0    0  501 -0.00000000000E+00  0.00000000000E+00  0.20255581599E+03  0.20255581599E+03  0.00000000000E+00 0.  1.
          1   -1    0    0  501    0  0.00000000000E+00 -0.00000000000E+00 -0.86315118364E+02  0.86315118364E+02  0.00000000000E+00 0. -1.
          5    1    1    2  502    0 -0.31237649605E+02  0.16090564654E+02 -0.72220011252E+01  0.36115463779E+02  0.41800000000E+01 0. -1.
         -5    1    1    2    0  502  0.62704076879E+02  0.25555152788E+02  0.13065471838E+03  0.14721750890E+03  0.41800000000E+01 0. -1.
        -11    1    1    2    0    0  0.12782543079E+02 -0.28378044413E+02  0.32232440972E+02  0.44806663157E+02  0.00000000000E+00 0.  1.
         11    1    1    2    0    0 -0.44248970353E+02 -0.13267673029E+02 -0.39424460607E+02  0.60731298513E+02  0.00000000000E+00 0. -1.
</event>
<event>
 6    1  0.4988969E-006  0.1464150E+03  0.7561462E-02  0.1204949E+00
         -1   -1    0    0    0  501 -0.00000000000E+00  0.00000000000E+00  0.11625281864E+03  0.11625281864E+03  0.00000000000E+00 0.  1.
          1   -1    0    0  501    0  0.00000000000E+00 -0.00000000000E+00 -0.30183996171E+03  0.30183996171E+03  0.00000000000E+00 0. -1.
          5    1    1    2  502    0 -0.21360483393E+02  0.25668670938E+01  0.33000196306E+02  0.39614951895E+02  0.41800000000E+01 0. -1.
         -5    1    1    2    0  502  0.49023107586E+02 -0.12462854387E+03 -0.30153796550E+02  0.13733995366E+03  0.41800000000E+01 0. -1.
        -11    1    1    2    0    0 -0.38810281499E+02  0.46603849859E+02 -0.35592404338E+02  0.70320523450E+02  0.00000000000E+00 0.  1.
         11    1    1    2    0    0  0.11147657305E+02  0.75457826920E+02 -0.15284113849E+03  0.17081735135E+03  0.00000000000E+00 0. -1.
</event>
<event>
 6    1  0.4988969E-006  0.1066002E+03  0.7561462E-02  0.1266999E+00
          1   -1    0    0  501    0  0.00000000000E+00  0.00000000000E+00  0.55629005129E+03  0.55629005129E+03  0.00000000000E+00 0. -1.
         -1   -1    0    0    0  501 -0.00000000000E+00 -0.00000000000E+00 -0.27287104868E+02  0.27287104868E+02  0.00000000000E+00 0.  1.
          5    1    1    2  502    0  0.74816138651E+01  0.54987310985E+02  0.62676356209E+02  0.83817521694E+02  0.41800000000E+01 0. -1.
         -5    1    1    2    0  502 -0.13355461417E+02 -0.68338187119E+02  0.99531352313E+02  0.12154192142E+03  0.41800000000E+01 0. -1.
        -11    1    1    2    0    0  0.46224168786E+02  0.41747087460E+01  0.13493858761E+03  0.14269731742E+03  0.00000000000E+00 0.  1.
         11    1    1    2    0    0 -0.40350321234E+02  0.91761673882E+01  0.23185665029E+03  0.23552039563E+03  0.00000000000E+00 0. -1.
</event>
<event>
 6    1  0.4988969E-006  0.3033830E+03  0.7561462E-02  0.1083562E+00
          1   -1    0    0  501    0  0.00000000000E+00  0.00000000000E+00  0.67186306944E+03  0.67186306944E+03  0.00000000000E+00 0. -1.
         -1   -1    0    0    0  501 -0.00000000000E+00 -0.00000000000E+00 -0.18955915451E+03  0.18955915451E+03  0.00000000000E+00 0.  1.
          5    1    1    2  502    0  0.11890140491E+02 -0.70286866269E+02 -0.38568290789E+02  0.81157898353E+02  0.41800000000E+01 0. -1.
         -5    1    1    2    0  502 -0.61847803169E+01 -0.23243055595E+03  0.95254175508E+02  0.25130269636E+03  0.41800000000E+01 0. -1.
        -11    1    1    2    0    0  0.76321303623E+00  0.57026913762E+02  0.14565769041E+03  0.15642510720E+03  0.00000000000E+00 0.  1.
         11    1    1    2    0    0 -0.64685732099E+01  0.24569050845E+03  0.27996033980E+03  0.37253652203E+03  0.00000000000E+00 0. -1.
</event>
<event>
 6    1  0.4988969E-006  0.1200031E+03  0.7561462E-02  0.1243092E+00
         -1   -1    0    0    0  501 -0.00000000000E+00  0.00000000000E+00  0.15037567322E+04  0.15037567322E+04  0.00000000000E+00 0.  1.
          1   -1    0    0  501    0  0.00000000000E+00 -0.00000000000E+00 -0.18723650996E+02  0.18723650996E+02  0.00000000000E+00 0. -1.
          5    1    1    2  502    0 -0.86991355835E+02 -0.31573081461E+02  0.49160988216E+03  0.50026203544E+03  0.41800000000E+01 0.  1.
         -5    1    1    2    0  502  0.23556788927E+02 -0.30417240437E+02  0.71581554007E+03  0.71686085862E+03  0.41800000000E+01 0.  1.
        -11    1    1    2    0    0  0.26113399092E+02 -0.96912820533E+01  0.16155445142E+03  0.16393801064E+03  0.00000000000E+00 0.  1.
         11    1    1    2    0    0  0.37321167816E+02  0.71681603952E+02  0.11605320754E+03  0.14141947847E+03  0.00000000000E+00 0. -1.
</event>
<event>
 6    1  0.4988969E-006  0.2087707E+03  0.7561462E-02  0.1142543E+00
          1   -1    0    0  501    0  0.00000000000E+00  0.00000000000E+00  0.40014293813E+03  0.40014293813E+03  0.00000000000E+00 0. -1.
         -1   -1    0    0    0  501 -0.00000000000E+00 -0.00000000000E+00 -0.12192766241E+03  0.12192766241E+03  0.00000000000E+00 0.  1.
          5    1    1    2  502    0  0.67463193666E+02  0.60537493398E+02  0.76758611206E+02  0.11885044132E+03  0.41800000000E+01 0. -1.
         -5    1    1    2    0  502 -0.27424662371E+02  0.12429856166E+03  0.25465824838E+02  0.12987773162E+03  0.41800000000E+01 0. -1.
        -11    1    1    2    0    0 -0.38214395566E+02 -0.42718667356E+02  0.16357128044E+02  0.59605202852E+02  0.00000000000E+00 0.  1.
         11    1    1    2    0    0 -0.18241357287E+01 -0.14211738770E+03  0.15963371163E+03  0.21373722475E+03  0.00000000000E+00 0. -1.
</event>
<event>
 6    1  0.4988969E-006  0.1278856E+03  0.7561462E-02  0.1230627E+00
         -1   -1    0    0    0  501 -0.00000000000E+00  0.00000000000E+00  0.13605771717E+03  0.13605771717E+03  0.00000000000E+00 0.  1.
          1   -1    0    0  501    0  0.00000000000E+00 -0.00000000000E+00 -0.13447704105E+03  0.13447704105E+03  0.00000000000E+00 0. -1.
          5    1    1    2  502    0 -0.31125922176E+02 -0.47880306465E+02  0.13164074205E+02  0.58754676649E+02  0.41800000000E+01 0.  1.
         -5    1    1    2    0  502 -0.35539480075E+02  0.80629687271E+02  0.20406651205E+02  0.90543386986E+02  0.41800000000E+01 0.  1.
        -11    1    1    2    0    0  0.83906513635E+02 -0.14427137356E+02 -0.64429831483E+01  0.85381247089E+02  0.00000000000E+00 0.  1.
         11    1    1    2    0    0 -0.17241111384E+02 -0.18322243451E+02 -0.25547066140E+02  0.35855447497E+02  0.00000000000E+00 0. -1.
</event>
<event>
 6    1  0.4988969E-006  0.9497126E+02  0.7561462E-02  0.1291241E+00
          4   -1    0    0  501    0  0.00000000000E+00  0.00000000000E+00  0.26290298971E+03  0.26290298971E+03  0.00000000000E+00 0. -1.
         -4   -1    0    0    0  501 -0.00000000000E+00 -0.00000000000E+00 -0.12829324839E+03  0.12829324839E+03  0.00000000000E+00 0.  1.
          5    1    1    2  502    0  0.11026048032E+02 -0.58265129430E+02  0.13015109763E+03  0.14308451928E+03  0.41800000000E+01 0. -1.
         -5    1    1    2    0  502  0.12396631478E+02  0.27127253585E+02 -0.98511655149E+02  0.10301253787E+03  0.41800000000E+01 0.  1.
        -11    1    1    2    0    0  0.34929527805E+02  0.22092996583E+02  0.56256450907E+02  0.69806594813E+02  0.00000000000E+00 0. -1.
         11    1    1    2    0    0 -0.58352207315E+02  0.90448792617E+01  0.46713847927E+02  0.75292586139E+02  0.00000000000E+00 0.  1.
</event>
<event>
 6    1  0.4988969E-006  0.1566124E+03  0.7561462E-02  0.1192575E+00
          2   -1    0    0  501    0  0.00000000000E+00  0.00000000000E+00  0.51786893630E+02  0.51786893630E+02  0.00000000000E+00 0. -1.
         -2   -1    0    0    0  501 -0.00000000000E+00 -0.00000000000E+00 -0.56550630139E+03  0.56550630139E+03  0.00000000000E+00 0.  1.
          5    1    1    2  502    0 -0.42900502470E+02  0.11948545972E+03 -0.24584956572E+03  0.27672497098E+03  0.41800000000E+01 0. -1.
         -5    1    1    2    0  502 -0.32077873825E+02 -0.27328660255E+02 -0.13237328834E+03  0.13898203310E+03  0.41800000000E+01 0. -1.
        -11    1    1    2    0    0  0.77725719784E+02 -0.32683299803E+02 -0.52089868727E+02  0.99110241781E+02  0.00000000000E+00 0. -1.
         11    1    1    2    0    0 -0.27473434880E+01 -0.59473499659E+02 -0.83406684977E+02  0.10247594916E+03  0.00000000000E+00 0.  1.
</event>
<event>
 6    1  0.4988969E-006  0.1514340E+03  0.7561462E-02  0.1198722E+00
          1   -1    0    0  501    0  0.00000000000E+00  0.00000000000E+00  0.16458860067E+03  0.16458860067E+03  0.00000000000E+00 0. -1.
         -1   -1    0    0    0  501 -0.00000000000E+00 -0.00000000000E+00 -0.25338690369E+03  0.25338690369E+03  0.00000000000E+00 0.  1.
          5    1    1    2  502    0 -0.61971600818E+02  0.79531846378E+02 -0.16197989770E+03  0.19084222163E+03  0.41800000000E+01 0. -1.
         -5    1    1    2    0  502 -0.45951022729E+02  0.11931036588E+02  0.13327754344E+02  0.49486842289E+02  0.41800000000E+01 0. -1.
        -11    1    1    2    0    0  0.10318326855E+03 -0.53855062952E+02  0.12606187609E+02  0.11707292890E+03  0.00000000000E+00 0. -1.
         11    1    1    2    0    0  0.47393549934E+01 -0.37607820015E+02  0.47247652727E+02  0.60573511539E+02  0.00000000000E+00 0.  1.
</event>
<event>
 6    1  0.4988969E-006  0.1638329E+03  0.7561462E-02  0.1184436E+00
         -1   -1    0    0    0  501 -0.00000000000E+00  0.00000000000E+00  0.65624306362E+02  0.65624306362E+02  0.00000000000E+00 0.  1.
          1   -1    0    0  501    0  0.00000000000E+00 -0.00000000000E+00 -0.55441900288E+03  0.55441900288E+03  0.00000000000E+00 0. -1.
          5    1    1    2  502    0 -0.27507605289E+02 -0.59163296104E+02 -0.58508067964E+02  0.87736140623E+02  0.41800000000E+01 0. -1.
         -5    1    1    2    0  502  0.99394511538E+02 -0.43352124466E+02 -0.46527381480E+02  0.11807178006E+03  0.41800000000E+01 0. -1.
        -11    1    1    2    0    0 -0.93235106992E+02  0.82111811934E+02 -0.33419315560E+03  0.35653919852E+03  0.00000000000E+00 0. -1.
         11    1    1    2    0    0  0.21348200742E+02  0.20403608635E+02 -0.49566091480E+02  0.57696190038E+02  0.00000000000E+00 0.  1.
</event>
<event>
 6    1  0.4988969E-006  0.1125030E+03  0.7561462E-02  0.1256004E+00
         -1   -1    0    0    0  501 -0.00000000000E+00  0.00000000000E+00  0.41271843827E+02  0.41271843827E+02  0.00000000000E+00 0.  1.
          1   -1    0    0  501    0  0.00000000000E+00 -0.00000000000E+00 -0.41008459949E+03  0.41008459949E+03  0.00000000000E+00 0. -1.
          5    1    1    2  502    0  0.25630195585E+02  0.93845679351E+02 -0.79344033922E+02  0.12560599738E+03  0.41800000000E+01 0. -1.
         -5    1    1    2    0  502 -0.41796735712E+01 -0.38143644712E+02 -0.56815951101E+02  0.68687204067E+02  0.41800000000E+01 0. -1.
        -11    1    1    2    0    0 -0.45454142364E+02 -0.36623135468E+02 -0.68169424048E+02  0.89746328530E+02  0.00000000000E+00 0.  1.
         11    1    1    2    0    0  0.24003620350E+02 -0.19078899171E+02 -0.16448334659E+03  0.16731691334E+03  0.00000000000E+00 0. -1.
</event>
<event>
 6    1  0.4988969E-006  0.1200340E+03  0.7561462E-02  0.1243041E+00
          2   -1    0    0  501    0  0.00000000000E+00  0.00000000000E+00  0.44740466643E+02  0.44740466643E+02  0.00000000000E+00 0. -1.
         -2   -1    0    0    0  501 -0.00000000000E+00 -0.00000000000E+00 -0.49006826290E+03  0.49006826290E+03  0.00000000000E+00 0.  1.
          5    1    1    2  502    0  0.87760434667E+02  0.14961955814E+02 -0.74424273949E+02  0.11611287167E+03  0.41800000000E+01 0.  1.
         -5    1    1    2    0  502 -0.67474270426E+01  0.43540100924E+02 -0.17316104840E+03  0.17872741604E+03  0.41800000000E+01 0.  1.
        -11    1    1    2    0    0 -0.26435403656E+01 -0.18517561688E+02  0.46549228160E+01  0.19275806156E+02  0.00000000000E+00 0. -1.
         11    1    1    2    0    0 -0.78369467258E+02 -0.39984495051E+02 -0.20239739672E+03  0.22069263568E+03  0.00000000000E+00 0.  1.
</event>
<event>
 6    1  0.4988969E-006  0.1198840E+03  0.7561462E-02  0.1243288E+00
         -3   -1    0    0    0  501 -0.00000000000E+00  0.00000000000E+00  0.38360739831E+03  0.38360739831E+03  0.00000000000E+00 0.  1.
          3   -1    0    0  501    0  0.00000000000E+00 -0.00000000000E+00 -0.78066609143E+02  0.78066609143E+02  0.00000000000E+00 0. -1.
          5    1    1    2  502    0 -0.88336990404E+02 -0.10960446642E+02  0.20089280854E+03  0.21977021679E+03  0.41800000000E+01 0.  1.
         -5    1    1    2    0  502  0.31686026268E+02 -0.51185129603E+02  0.10100640984E+03  0.11765920696E+03  0.41800000000E+01 0.  1.
        -11    1    1    2    0    0  0.72930808247E+01  0.31231618169E+02  0.43226885878E+02  0.53825334779E+02  0.00000000000E+00 0.  1.
         11    1    1    2    0    0  0.49357883311E+02  0.30913958076E+02 -0.39585315089E+02  0.70419248928E+02  0.00000000000E+00 0. -1.
</event>
<event>
 6    1  0.4988969E-006  0.1175198E+03  0.7561462E-02  0.1247246E+00
         -1   -1    0    0    0  501 -0.00000000000E+00  0.00000000000E+00  0.92787454825E+02  0.92787454825E+02  0.00000000000E+00 0.  1.
          1   -1    0    0  501    0  0.00000000000E+00 -0.00000000000E+00 -0.28632477037E+03  0.28632477037E+03  0.00000000000E+00 0. -1.
          5    1    1    2  502    0  0.44698727075E+02  0.28660342775E+02  0.35904026273E+02  0.64233659033E+02  0.41800000000E+01 0. -1.
         -5    1    1    2    0  502 -0.45560675095E+02  0.63348466366E+02 -0.47593587603E+02  0.91495493260E+02  0.41800000000E+01 0. -1.
        -11    1    1    2    0    0 -0.13063150698E+02 -0.28182947301E+01  0.62443630563E+01  0.14750619015E+02  0.00000000000E+00 0.  1.
         11    1    1    2    0    0  0.13925098717E+02 -0.89190514411E+02 -0.18809211727E+03  0.20863245388E+03  0.00000000000E+00 0. -1.
</event>
<event>
 6    1  0.4988969E-006  0.1827678E+03  0.7561462E-02  0.1165151E+00
         -2   -1    0    0    0  501 -0.00000000000E+00  0.00000000000E+00  0.99636635238E+02  0.99636635238E+02  0.00000000000E+00 0.  1.
          2   -1    0    0  501    0  0.00000000000E+00 -0.00000000000E+00 -0.37374448908E+03  0.37374448908E+03  0.00000000000E+00 0. -1.
          5    1    1    2  502    0  0.12373487678E+03  0.64162471367E+02 -0.11606877053E+03  0.18142925441E+03  0.41800000000E+01 0. -1.
         -5    1    1    2    0  502 -0.20652082435E+02  0.60122434977E+02 -0.35603061052E+02  0.72981271931E+02  0.41800000000E+01 0. -1.
        -11    1    1    2    0    0 -0.57248770798E+02 -0.55557799664E+02 -0.11415223091E+02  0.80587828979E+02  0.00000000000E+00 0.  1.
         11    1    1    2    0    0 -0.45834023548E+02 -0.68727106680E+02 -0.11102079917E+03  0.13838276900E+03  0.00000000000E+00 0. -1.
</event>
<event>
 6    1  0.4988969E-006  0.1850481E+03  0.7561462E-02  0.1163005E+00
         -2   -1    0    0    0  501 -0.00000000000E+00  0.00000000000E+00  0.64362590613E+02  0.64362590613E+02  0.00000000000E+00 0.  1.
          2   -1    0    0  501    0  0.00000000000E+00 -0.00000000000E+00 -0.57547492783E+03  0.57547492783E+03  0.00000000000E+00 0. -1.
          5    1    1    2  502    0  0.66285878958E+02  0.10404692385E+03 -0.17886645587E+03  0.21732524369E+03  0.41800000000E+01 0. -1.
         -5    1    1    2    0  502  0.65877696625E+02 -0.39427103801E+02 -0.51971300188E+02  0.92805473276E+02  0.41800000000E+01 0.  1.
        -11    1    1    2    0    0 -0.81613971065E+02 -0.82598337243E+02 -0.22174263639E+03  0.25030605742E+03  0.00000000000E+00 0.  1.
         11    1    1    2    0    0 -0.50549604518E+02  0.17978517197E+02 -0.58531944776E+02  0.79400744057E+02  0.00000000000E+00 0. -1.
</event>
<event>
 6    1  0.4988969E-006  0.1089295E+03  0.7561462E-02  0.1262565E+00
         -1   -1    0    0    0  501 -0.00000000000E+00  0.00000000000E+00  0.19942900349E+03  0.19942900349E+03  0.00000000000E+00 0.  1.
          1   -1    0    0  501    0  0.00000000000E+00 -0.00000000000E+00 -0.99953706194E+02  0.99953706194E+02  0.00000000000E+00 0. -1.
          5    1    1    2  502    0 -0.45699368505E+02  0.45359052005E+02  0.61080152378E+01  0.64812468945E+02  0.41800000000E+01 0. -1.
         -5    1    1    2    0  502  0.61654597194E+02 -0.22200046759E+02  0.11834861307E+03  0.13534399894E+03  0.41800000000E+01 0.  1.
        -11    1    1    2    0    0 -0.29978107763E+02  0.24044656060E+02 -0.31321935489E+02  0.49577172901E+02  0.00000000000E+00 0. -1.
         11    1    1    2    0    0  0.14022879074E+02 -0.47203661305E+02  0.63406044783E+01  0.49649068907E+02  0.00000000000E+00 0.  1.
</event>
<event>
 6    1  0.4988969E-006  0.1546254E+03  0.7561462E-02  0.1194902E+00
          1   -1    0    0  501    0  0.00000000000E+00  0.00000000000E+00  0.18110425055E+03  0.18110425055E+03  0.00000000000E+00 0. -1.
         -1   -1    0    0    0  501 -0.00000000000E+00 -0.00000000000E+00 -0.16299839731E+03  0.16299839731E+03  0.00000000000E+00 0.  1.
          5    1    1    2  502    0  0.13155275471E+03 -0.50303530211E+02  0.46289045012E+02  0.14831291418E+03  0.41800000000E+01 0.  1.
         -5    1    1    2    0  502 -0.20877098267E+01  0.34324396220E+02 -0.99775775212E+01  0.36049232466E+02  0.41800000000E+01 0.  1.
        -11    1    1    2    0    0 -0.74863774610E+02  0.23779786520E+02 -0.52788348304E+02  0.94639699452E+02  0.00000000000E+00 0.  1.
         11    1    1    2    0    0 -0.54601270274E+02 -0.78006525285E+01  0.34582734060E+02  0.65100801765E+02  0.00000000000E+00 0. -1.
</event>
<event>
 6    1  0.4988969E-006  0.9468059E+02  0.7561462E-02  0.1291897E+00
         -3   -1    0    0    0  501 -0.00000000000E+00  0.00000000000E+00  0.88029893936E+02  0.88029893936E+02  0.00000000000E+00 0.  1.
          3   -1    0    0  501    0  0.00000000000E+00 -0.00000000000E+00 -0.16990911970E+03  0.16990911970E+03  0.00000000000E+00 0. -1.
          5    1    1    2  502    0 -0.49880689081E+02 -0.18916152364E+02  0.43600555133E+02  0.69024522971E+02  0.41800000000E+01 0. -1.
         -5    1    1    2    0  502  0.46500583889E+02  0.54731744650E+00 -0.34084786554E+02  0.57808727134E+02  0.41800000000E+01 0. -1.
        -11    1    1    2    0    0  0.18624321891E+02 -0.31730276801E+02 -0.58990077933E+02  0.69523414231E+02  0.00000000000E+00 0. -1.
         11    1    1    2    0    0 -0.15244216699E+02  0.50099111718E+02 -0.32404916407E+02  0.61582349298E+02  0.00000000000E+00 0.  1.
</event>
<event>
 6    1  0.4988969E-006  0.1131433E+03  0.7561462E-02  0.1254857E+00
         -2   -1    0    0    0  501 -0.00000000000E+00  0.00000000000E+00  0.67459084744E+02  0.67459084744E+02  0.00000000000E+00 0.  1.
          2   -1    0    0  501    0  0.00000000000E+00 -0.00000000000E+00 -0.23788959496E+03  0.23788959496E+03  0.00000000000E+00 0. -1.
          5    1    1    2  502    0 -0.26585861519E+01 -0.47468729860E+02  0.12576210429E+02  0.49355666985E+02  0.41800000000E+01 0.  1.
         -5    1    1    2    0  502 -0.54015807925E+02  0.46791716094E+02 -0.68016774831E+02  0.98746778476E+02  0.41800000000E+01 0.  1.
        -11    1    1    2    0    0  0.30397387835E+02 -0.44983892878E+02 -0.52660016664E+02  0.75634840918E+02  0.00000000000E+00 0. -1.
         11    1    1    2    0    0  0.26277006242E+02  0.45660906643E+02 -0.62329929145E+02  0.81611393321E+02  0.00000000000E+00 0.  1.
</event>
<event>
 6    1  0.4988969E-006  0.1438858E+03  0.7561462E-02  0.1208194E+00
          1   -1    0    0  501    0  0.00000000000E+00  0.00000000000E+00  0.10836433993E+03  0.10836433993E+03  0.00000000000E+00 0. -1.
         -1   -1    0    0    0  501 -0.00000000000E+00 -0.00000000000E+00 -0.23729127046E+03  0.23729127046E+03  0.00000000000E+00 0.  1.
          5    1    1    2  502    0  0.23288213643E+02  0.42361638669E+02 -0.90750654266E+02  0.10290774011E+03  0.41800000000E+01 0.  1.
         -5    1    1    2    0  502  0.87253036018E+02 -0.39062478824E+02 -0.20909086041E+02  0.97947086864E+02  0.41800000000E+01 0.  1.
        -11    1    1    2    0    0  0.14708894381E+02 -0.10549837362E+02 -0.47763105522E+01  0.18720677999E+02  0.00000000000E+00 0.  1.
         11    1    1    2    0    0 -0.12525014404E+03  0.72506775170E+01 -0.12490879670E+02  0.12608010542E+03  0.00000000000E+00 0. -1.
</event>
<event>
 6    1  0.4988969E-006  0.9700209E+02  0.7561462E-02  0.1286729E+00
          3   -1    0    0  501    0  0.00000000000E+00  0.00000000000E+00  0.68388385142E+02  0.68388385142E+02  0.00000000000E+00 0. -1.
         -3   -1    0    0    0  501 -0.00000000000E+00 -0.00000000000E+00 -0.19386946287E+03  0.19386946287E+03  0.00000000000E+00 0.  1.
          5    1    1    2  502    0  0.51607784933E+02  0.35803671671E+02 -0.38131636798E+01  0.63065672026E+02  0.41800000000E+01 0. -1.
         -5    1    1    2    0  502 -0.14632792608E+02 -0.49666150546E+02 -0.70903855884E+02  0.87895815081E+02  0.41800000000E+01 0. -1.
        -11    1    1    2    0    0  0.17000813397E+02  0.18265973144E+02  0.12590809494E+02  0.27949989531E+02  0.00000000000E+00 0. -1.
         11    1    1    2    0    0 -0.53975805723E+02 -0.44034942685E+01 -0.63354867658E+02  0.83346371373E+02  0.00000000000E+00 0.  1.
</event>
<event>
 6    1  0.4988969E-006  0.2791178E+03  0.7561462E-02  0.1096172E+00
         -1   -1    0    0    0  501 -0.00000000000E+00  0.00000000000E+00  0.35969072190E+03  0.35969072190E+03  0.00000000000E+00 0.  1.
          1   -1    0    0  501    0  0.00000000000E+00 -0.00000000000E+00 -0.41583309919E+03  0.41583309919E+03  0.00000000000E+00 0. -1.
          5    1    1    2  502    0  0.35050517779E+02  0.34549028788E+02  0.27645675895E+02  0.56603268302E+02  0.41800000000E+01 0. -1.
         -5    1    1    2    0  502 -0.11655226340E+03  0.21541525580E+03  0.20406224380E+03  0.31882132031E+03  0.41800000000E+01 0.  1.
        -11    1    1    2    0    0  0.62212585859E+01 -0.46943091771E+02 -0.10972753714E+02  0.48608222015E+02  0.00000000000E+00 0.  1.
         11    1    1    2    0    0  0.75280487033E+02 -0.20302119282E+03 -0.27687754327E+03  0.35149101046E+03  0.00000000000E+00 0. -1.
</event>
<event>
 6    1  0.4988969E-006  0.9730960E+02  0.7561462E-02  0.1286057E+00
          2   -1    0    0  501    0  0.00000000000E+00  0.00000000000E+00  0.71498575338E+02  0.71498575338E+02  0.00000000000E+00 0. -1.
         -2   -1    0    0    0  501 -0.00000000000E+00 -0.00000000000E+00 -0.18059573508E+03  0.18059573508E+03  0.00000000000E+00 0.  1.
          5    1    1    2  502    0  0.69881169816E+02 -0.39835216620E+02 -0.57172870507E+02  0.98774652113E+02  0.41800000000E+01 0.  1.
         -5    1    1    2    0  502 -0.41303779825E+02  0.22181797682E+02 -0.14485182134E+02  0.49247611898E+02  0.41800000000E+01 0.  1.
        -11    1    1    2    0    0  0.13590702256E+02 -0.97388022015E+01 -0.49596750751E+02  0.52339174059E+02  0.00000000000E+00 0.  1.
         11    1    1    2    0    0 -0.42168092247E+02  0.27392221140E+02  0.12157643646E+02  0.51732872352E+02  0.00000000000E+00 0. -1.
</event>
<event>
 6    1  0.4988969E-006  0.3069065E+03  0.7561462E-02  0.1081838E+00
          1   -1    0    0  501    0  0.00000000000E+00  0.00000000000E+00  0.14688651819E+04  0.14688651819E+04  0.00000000000E+00 0. -1.
         -1   -1    0    0    0  501 -0.00000000000E+00 -0.00000000000E+00 -0.73091666429E+02  0.73091666429E+02  0.00000000000E+00 0.  1.
          5    1    1    2  502    0  0.20744804724E+03  0.90773035959E+02  0.27860611363E+03  0.35904494887E+03  0.41800000000E+01 0. -1.
         -5    1    1    2    0  502  0.64098822595E+02  0.36697541152E+02  0.25723596642E+03  0.26766244302E+03  0.41800000000E+01 0. -1.
        -11    1    1    2    0    0 -0.33886602323E+02 -0.55519777859E+02  0.18160262820E+03  0.19289961669E+03  0.00000000000E+00 0. -1.
         11    1    1    2    0    0 -0.23766026751E+03 -0.71950799251E+02  0.67832880724E+03  0.72234983975E+03  0.00000000000E+00 0.  1.
</event>
<event>
 6    1  0.4988969E-006  0.9858133E+02  0.7561462E-02  0.1283308E+00
         -2   -1    0    0    0  501 -0.00000000000E+00  0.00000000000E+00  0.32924880793E+02  0.32924880793E+02  0.00000000000E+00 0.  1.
          2   -1    0    0  501    0  0.00000000000E+00 -0.00000000000E+00 -0.39256680052E+03  0.39256680052E+03  0.00000000000E+00 0. -1.
          5    1    1    2  502    0 -0.43726123692E+02 -0.39298453661E+02 -0.60805441914E+02  0.84682445168E+02  0.41800000000E+01 0.  1.
         -5    1    1    2    0  502  0.47880281873E+02  0.45712786550E+02 -0.74135090963E+02  0.99476953906E+02  0.41800000000E+01 0.  1.
        -11    1    1    2    0    0 -0.34553004062E+02  0.11732252147E+02 -0.43844972212E+02  0.57043294246E+02  0.00000000000E+00 0.  1.
         11    1    1    2    0    0  0.30398845881E+02 -0.18146585037E+02 -0.18085641464E+03  0.18428898800E+03  0.00000000000E+00 0. -1.
</event>
<event>
 6    1  0.4988969E-006  0.9117113E+02  0.7561462E-02  0.1300040E+00
          1   -1    0    0  501    0  0.00000000000E+00  0.00000000000E+00  0.10800996401E+03  0.10800996401E+03  0.00000000000E+00 0. -1.
         -1   -1    0    0    0  501 -0.00000000000E+00 -0.00000000000E+00 -0.17543007180E+03  0.17543007180E+03  0.00000000000E+00 0.  1.
          5    1    1    2  502    0 -0.22191385882E+02 -0.26043411676E+02 -0.83056943136E+02  0.89925775516E+02  0.41800000000E+01 0.  1.
         -5    1    1    2    0  502 -0.47723769606E+02 -0.19102317285E+02  0.41236676349E+02  0.66033268792E+02  0.41800000000E+01 0.  1.
        -11    1    1    2    0    0  0.35863360794E+02  0.50384929387E+02 -0.54561302284E+02  0.82472768013E+02  0.00000000000E+00 0.  1.
         11    1    1    2    0    0  0.34051794694E+02 -0.52392004264E+01  0.28961461281E+02  0.45008223498E+02  0.00000000000E+00 0. -1.
</event>
<event>
 6    1  0.4988969E-006  0.8362041E+02  0.7561462E-02  0.1319080E+00
         -3   -1    0    0    0  501 -0.00000000000E+00  0.00000000000E+00  0.41272250273E+03  0.41272250273E+03  0.00000000000E+00 0.  1.
          3   -1    0    0  501    0  0.00000000000E+00 -0.00000000000E+00 -0.31629344455E+02  0.31629344455E+02  0.00000000000E+00 0. -1.
          5    1    1    2  502    0 -0.32504689152E+02 -0.36416958089E+02  0.25475404596E+02  0.55219727386E+02  0.41800000000E+01 0.  1.
         -5    1    1    2    0  502 -0.15851973046E+01  0.25313007083E+02  0.23049601054E+03  0.23192486812E+03  0.41800000000E+01 0.  1.
        -11    1    1    2    0    0 -0.21806604221E+02  0.26737449951E+02  0.65306896630E+02  0.73860747119E+02  0.00000000000E+00 0.  1.
         11    1    1    2    0    0  0.55896490677E+02 -0.15633498945E+02  0.59814846508E+02  0.83346504558E+02  0.00000000000E+00 0. -1.
</event>
<event>
 6    1  0.4988969E-006  0.1141630E+03  0.7561462E-02  0.1253049E+00
         -2   -1    0    0    0  501 -0.00000000000E+00  0.00000000000E+00  0.12155476303E+04  0.12155476303E+04  0.00000000000E+00 0.  1.
          2   -1    0    0  501    0  0.00000000000E+00 -0.00000000000E+00 -0.13326395290E+02  0.13326395290E+02  0.00000000000E+00 0. -1.
          5    1    1    2  502    0  0.49106174981E+02  0.72967532528E+02  0.38176860323E+03  0.39179129143E+03  0.41800000000E+01 0. -1.
         -5    1    1    2    0  502 -0.12717013731E+02 -0.33150028080E+02  0.45103646788E+03  0.45245111842E+03  0.41800000000E+01 0. -1.
        -11    1    1    2    0    0  0.25119583202E+02  0.82722373840E+01  0.61000440906E+02  0.66486669057E+02  0.00000000000E+00 0. -1.
         11    1    1    2    0    0 -0.61508744453E+02 -0.48089741832E+02  0.30841572299E+03  0.31814494669E+03  0.00000000000E+00 0.  1.
</event>
<event>
 6    1  0.4988969E-006  0.8194541E+02  0.7561462E-02  0.1323620E+00
          2   -1    0    0  501    0  0.00000000000E+00  0.00000000000E+00  0.19931761646E+03  0.19931761646E+03  0.00000000000E+00 0. -1.
         -2   -1    0    0    0  501 -0.00000000000E+00 -0.00000000000E+00 -0.60665097653E+02  0.60665097653E+02  0.00000000000E+00 0.  1.
          5    1    1    2  502    0 -0.19661296783E+02  0.64202186993E+02  0.40281395341E+02  0.78412694230E+02  0.41800000000E+01 0. -1.
         -5    1    1    2    0  502  0.16834450392E+02 -0.54524215681E+02  0.18208348952E+02  0.60044193618E+02  0.41800000000E+01 0. -1.
        -11    1    1    2    0    0 -0.14883927088E+02  0.57053067621E+01 -0.15975012314E+02  0.22567295568E+02  0.00000000000E+00 0.  1.
         11    1    1    2    0    0  0.17710773479E+02 -0.15383278074E+02  0.96137786830E+02  0.98958530699E+02  0.00000000000E+00 0. -1.
</event>
<event>
 6    1  0.4988969E-006  0.1526351E+03  0.7561462E-02  0.1197272E+00
          2   -1    0    0  501    0  0.00000000000E+00  0.00000000000E+00  0.11338052430E+03  0.11338052430E+03  0.00000000000E+00 0. -1.
         -2   -1    0    0    0  501 -0.00000000000E+00 -0.00000000000E+00 -0.29834465066E+03  0.29834465066E+03  0.00000000000E+00 0.  1.
          5    1    1    2  502    0  0.13919039882E+03 -0.60541758094E+02 -0.14690919802E+03  0.21127956943E+03  0.41800000000E+01 0. -1.
         -5    1    1    2    0  502 -0.21959359015E+02  0.24495245318E+01 -0.57589333627E+02  0.61824084032E+02  0.41800000000E+01 0. -1.
        -11    1    1    2    0    0 -0.77011591342E+02  0.35391850612E+02 -0.75359837192E+01  0.85089125870E+02  0.00000000000E+00 0.  1.
         11    1    1    2    0    0 -0.40219448460E+02  0.22700382951E+02  0.27070389004E+02  0.53532395625E+02  0.00000000000E+00 0. -1.
</event>
<event>
 6    1  0.4988969E-006  0.9751237E+02  0.7561462E-02  0.1285616E+00
         -1   -1    0    0    0  501 -0.00000000000E+00  0.00000000000E+00  0.62936348063E+02  0.62936348063E+02  0.00000000000E+00 0.  1.
          1   -1    0    0  501    0  0.00000000000E+00 -0.00000000000E+00 -0.19382882853E+03  0.19382882853E+03  0.00000000000E+00 0. -1.
          5    1    1    2  502    0  0.70526631701E+02 -0.26938604564E+01 -0.25087750925E+02  0.75020865829E+02  0.41800000000E+01 0.  1.
         -5    1    1    2    0  502 -0.51556335862E+02  0.17922726522E+02 -0.41959291394E+02  0.68973432768E+02  0.41800000000E+01 0.  1.
        -11    1    1    2    0    0 -0.34839792438E+02 -0.31415574635E+02 -0.20589035897E+01  0.46957305617E+02  0.00000000000E+00 0.  1.
         11    1    1    2    0    0  0.15869496599E+02  0.16186708569E+02 -0.61786534563E+02  0.65813572384E+02  0.00000000000E+00 0. -1.
</event>
<event>
 6    1  0.4988969E-006  0.1122100E+03  0.7561462E-02  0.1256531E+00
         -1   -1    0    0    0  501 -0.00000000000E+00  0.00000000000E+00  0.23539877035E+02  0.23539877035E+02  0.00000000000E+00 0.  1.
          1   -1    0    0  501    0  0.00000000000E+00 -0.00000000000E+00 -0.71856591823E+03  0.71856591823E+03  0.00000000000E+00 0. -1.
          5    1    1    2  502    0  0.32691373815E+02 -0.32680933635E+02 -0.17100956574E+03  0.17719625650E+03  0.41800000000E+01 0.  1.
         -5    1    1    2    0  502 -0.77525303796E+02 -0.50587035532E+01 -0.97251226253E+02  0.12454331222E+03  0.41800000000E+01 0.  1.
        -11    1    1    2    0    0 -0.47602105666E+01 -0.22029676097E+02 -0.40299767421E+02  0.46173991464E+02  0.00000000000E+00 0.  1.
         11    1    1    2    0    0  0.49594140548E+02  0.59769313285E+02 -0.38646548178E+03  0.39419223508E+03  0.00000000000E+00 0. -1.
</event>
<event>
 6    1  0.4988969E-006  0.1253596E+03  0.7561462E-02  0.1234508E+00
         -1   -1    0    0    0  501 -0.00000000000E+00  0.00000000000E+00  0.43267597942E+02  0.43267597942E+02  0.00000000000E+00 0.  1.
          1   -1    0    0  501    0  0.00000000000E+00 -0.00000000000E+00 -0.37299811395E+03  0.37299811395E+03  0.00000000000E+00 0. -1.
          5    1    1    2  502    0  0.50688816372E+02  0.29550169936E+02 -0.10820068314E+03  0.12315611589E+03  0.41800000000E+01 0. -1.
         -5    1    1    2    0  502 -0.88024695411E+01 -0.79385861114E+02 -0.95079488255E+02  0.12424644825E+03  0.41800000000E+01 0. -1.
        -11    1    1    2    0    0  0.15031917569E+02  0.52821581333E+02 -0.62170964243E+02  0.82953642447E+02  0.00000000000E+00 0.  1.
         11    1    1    2    0    0 -0.56918264399E+02 -0.29858901551E+01 -0.64279380373E+02  0.85909505315E+02  0.00000000000E+00 0. -1.
</event>
<event>
 6    1  0.4988969E-006  0.1932574E+03  0.7561462E-02  0.1155556E+00
         -1   -1    0    0    0  501 -0.00000000000E+00  0.00000000000E+00  0.44491402534E+03  0.44491402534E+03  0.00000000000E+00 0.  1.
          1   -1    0    0  501    0  0.00000000000E+00 -0.00000000000E+00 -0.93948221046E+02  0.93948221046E+02  0.00000000000E+00 0. -1.
          5    1    1    2  502    0  0.50059861496E+02 -0.93658080570E+01  0.56629668646E+01  0.51412544065E+02  0.41800000000E+01 0. -1.
         -5    1    1    2    0  502  0.92031819014E+02  0.10620310457E+03  0.19953020857E+03  0.24408754918E+03  0.41800000000E+01 0. -1.
        -11    1    1    2    0    0 -0.90978802657E+02 -0.67301235517E+01  0.71041306824E+02  0.11562570809E+03  0.00000000000E+00 0. -1.
         11    1    1    2    0    0 -0.51112877853E+02 -0.90107172962E+02  0.74731322034E+02  0.12773644505E+03  0.00000000000E+00 0.  1.
</event>
<event>
 6    1  0.4988969E-006  0.1078507E+03  0.7561462E-02  0.1264603E+00
          4   -1    0    0  501    0  0.00000000000E+00  0.00000000000E+00  0.44998286616E+02  0.44998286616E+02  0.00000000000E+00 0.  1.
         -4   -1    0    0    0  501 -0.00000000000E+00 -0.00000000000E+00 -0.34081714719E+03  0.34081714719E+03  0.00000000000E+00 0. -1.
          5    1    1    2  502    0  0.12499181996E+02  0.77789116872E+02 -0.10564377868E+03  0.13185392155E+03  0.41800000000E+01 0.  1.
         -5    1    1    2    0  502  0.23903310346E+02 -0.46574610797E+02 -0.11229957187E+03  0.12397269401E+03  0.41800000000E+01 0.  1.
        -11    1    1    2    0    0 -0.44423387020E+01  0.21873825069E+02  0.83289304838E+01  0.23823720937E+02  0.00000000000E+00 0.  1.
         11    1    1    2    0    0 -0.31960153640E+02 -0.53088331145E+02 -0.86204440502E+02  0.10616509731E+03  0.00000000000E+00 0. -1.
</event>
<event>
 6    1  0.4988969E-006  0.1280356E+03  0.7561462E-02  0.1230400E+00
          1   -1    0    0  501    0  0.00000000000E+00  0.00000000000E+00  0.88105729760E+03  0.88105729760E+03  0.00000000000E+00 0. -1.
         -1   -1    0    0    0  501 -0.00000000000E+00 -0.00000000000E+00 -0.23249797255E+02  0.23249797255E+02  0.00000000000E+00 0.  1.
          5    1    1    2  502    0  0.36746053034E+02  0.18767256887E+02  0.51133113936E+02  0.65837300108E+02  0.41800000000E+01 0. -1.
         -5    1    1    2    0  502 -0.33939942460E+02 -0.93628209291E+02  0.23628698995E+03  0.25645111676E+03  0.41800000000E+01 0. -1.
        -11    1    1    2    0    0  0.41692202827E+02  0.44925491875E+02  0.33913454499E+03  0.34462846546E+03  0.00000000000E+00 0.  1.
         11    1    1    2    0    0 -0.44498313401E+02  0.29935460529E+02  0.23125285147E+03  0.23739021253E+03  0.00000000000E+00 0. -1.
</event>
<event>
 6    1  0.4988969E-006  0.8179532E+02  0.7561462E-02  0.1324032E+00
          4   -1    0    0  501    0  0.00000000000E+00  0.00000000000E+00  0.23070438737E+03  0.23070438737E+03  0.00000000000E+00 0. -1.
         -4   -1    0    0    0  501 -0.00000000000E+00 -0.00000000000E+00 -0.58834457199E+02  0.58834457199E+02  0.00000000000E+00 0.  1.
          5    1    1    2  502    0  0.38677149902E+02 -0.52869877449E+01  0.75766063463E+02  0.85333715123E+02  0.41800000000E+01 0.  1.
         -5    1    1    2    0  502 -0.40760210234E+02  0.32183937483E+02 -0.17923708645E+02  0.55099294931E+02  0.41800000000E+01 0.  1.
        -11    1    1    2    0    0  0.34538095610E+02 -0.15114773217E+02  0.92962827555E+01  0.38829850513E+02  0.00000000000E+00 0.  1.
         11    1    1    2    0    0 -0.32455035278E+02 -0.11782176522E+02  0.10473129260E+03  0.11027598400E+03  0.00000000000E+00 0. -1.
</event>
<event>
 6    1  0.4988969E-006  0.1407530E+03  0.7561462E-02  0.1212319E+00
         -1   -1    0    0    0  501 -0.00000000000E+00  0.00000000000E+00  0.17843267047E+03  0.17843267047E+03  0.00000000000E+00 0.  1.
          1   -1    0    0  501    0  0.00000000000E+00 -0.00000000000E+00 -0.14358334444E+03  0.14358334444E+03  0.00000000000E+00 0. -1.
          5    1    1    2  502    0 -0.31661455415E+02  0.21207149935E+02  0.53745021710E+02  0.66016594323E+02  0.41800000000E+01 0.  1.
         -5    1    1    2    0  502  0.67280143511E+02  0.87810106060E+02 -0.41820338482E+01  0.11077993611E+03  0.41800000000E+01 0.  1.
        -11    1    1    2    0    0 -0.47934326418E+02 -0.40204838598E+02 -0.35953674217E+02  0.72158127647E+02  0.00000000000E+00 0. -1.
         11    1    1    2    0    0  0.12315638322E+02 -0.68812417397E+02  0.21240012388E+02  0.73061356828E+02  0.00000000000E+00 0.  1.
</event>
<event>
 6    1  0.4988969E-006  0.1226835E+03  0.7561462E-02  0.1238735E+00
         -3   -1    0    0    0  501 -0.00000000000E+00  0.00000000000E+00  0.12976326986E+03  0.12976326986E+03  0.00000000000E+00 0.  1.
          3   -1    0    0  501    0  0.00000000000E+00 -0.00000000000E+00 -0.15761096257E+03  0.15761096257E+03  0.00000000000E+00 0. -1.
          5    1    1    2  502    0  0.84488321035E+02 -0.11855144613E+01  0.39622861086E+02  0.93419084541E+02  0.41800000000E+01 0.  1.
         -5    1    1    2    0  502 -0.17562393975E+02 -0.53839901974E+02 -0.19565606989E+02  0.60062118707E+02  0.41800000000E+01 0.  1.
        -11    1    1    2    0    0 -0.20643772661E+02  0.53863809738E+02 -0.62787711097E+02  0.85262958041E+02  0.00000000000E+00 0. -1.
         11    1    1    2    0    0 -0.46282154399E+02  0.11616066968E+01  0.14882764289E+02  0.48630071137E+02  0.00000000000E+00 0.  1.
</event>
<event>
 6    1  0.4988969E-006  0.1079427E+03  0.7561462E-02  0.1264428E+00
          2   -1    0    0  501    0  0.00000000000E+00  0.00000000000E+00  0.61209601932E+03  0.61209601932E+03  0.00000000000E+00 0. -1.
         -2   -1    0    0    0  501 -0.00000000000E+00 -0.00000000000E+00 -0.25183297193E+02  0.25183297193E+02  0.00000000000E+00 0.  1.
          5    1    1    2  502    0 -0.14878204555E+02  0.81043347586E+02  0.14006213696E+03  0.16255540523E+03  0.41800000000E+01 0. -1.
         -5    1    1    2    0  502 -0.25935960300E+02 -0.45946965352E+02  0.11460249600E+03  0.12623391839E+03  0.41800000000E+01 0. -1.
        -11    1    1    2    0    0 -0.14873283849E+02 -0.47200765025E+00  0.65537560016E+01  0.16260045553E+02  0.00000000000E+00 0.  1.
         11    1    1    2    0    0  0.55687448704E+02 -0.34624374584E+02  0.32569433316E+03  0.33222994735E+03  0.00000000000E+00 0. -1.
</event>
<event>
 6    1  0.4988969E-006  0.8676117E+02  0.7561462E-02  0.1310890E+00
         -2   -1    0    0    0  501 -0.00000000000E+00  0.00000000000E+00  0.12111314849E+03  0.12111314849E+03  0.00000000000E+00 0.  1.
          2   -1    0    0  501    0  0.00000000000E+00 -0.00000000000E+00 -0.15032557498E+03  0.15032557498E+03  0.00000000000E+00 0. -1.
          5    1    1    2  502    0 -0.31450437780E+02 -0.15523741163E+02  0.83460569566E+02  0.90627013900E+02  0.41800000000E+01 0.  1.
         -5    1    1    2    0  502  0.26969283668E+02 -0.83558561689E+01 -0.35483096950E+02  0.45537733398E+02  0.41800000000E+01 0.  1.
        -11    1    1    2    0    0 -0.15913579453E+02 -0.39762768392E+02 -0.40924578839E+02  0.59238002282E+02  0.00000000000E+00 0. -1.
         11    1    1    2    0    0  0.20394733564E+02  0.63642365724E+02 -0.36265320259E+02  0.76035973891E+02  0.00000000000E+00 0.  1.
</event>
<event>
 6    1  0.4988969E-006  0.1473058E+03  0.7561462E-02  0.1203823E+00
         -2   -1    0    0    0  501 -0.00000000000E+00  0.00000000000E+00  0.55160182244E+02  0.55160182244E+02  0.00000000000E+00 0.  1.
          2   -1    0    0  501    0  0.00000000000E+00 -0.00000000000E+00 -0.62988813259E+03  0.62988813259E+03  0.00000000000E+00 0. -1.
          5    1    1    2  502    0  0.70754556470E+01  0.24657846853E+02 -0.13325461764E+03  0.13576574312E+03  0.41800000000E+01 0. -1.
         -5    1    1    2    0  502  0.74429815478E+02  0.79320793646E+02 -0.41386236626E+02  0.11645547956E+03  0.41800000000E+01 0. -1.
        -11    1    1    2    0    0 -0.30989476894E+02 -0.10475774898E+03 -0.21771539118E+03  0.24358679194E+03  0.00000000000E+00 0.  1.
         11    1    1    2    0    0 -0.50515794231E+02  0.77910848256E+00 -0.18237170491E+03  0.18924030022E+03  0.00000000000E+00 0. -1.
</event>
<event>
 6    1  0.4988969E-006  0.1058356E+03  0.7561462E-02  0.1268482E+00
         -2   -1    0    0    0  501 -0.00000000000E+00  0.00000000000E+00  0.41323315752E+02  0.41323315752E+02  0.00000000000E+00 0.  1.
          2   -1    0    0  501    0  0.00000000000E+00 -0.00000000000E+00 -0.43577663716E+03  0.43577663716E+03  0.00000000000E+00 0. -1.
          5    1    1    2  502    0  0.73377118221E+02 -0.16101582400E+02 -0.25394257710E+03  0.26485423783E+03  0.41800000000E+01 0.  1.
         -5    1    1    2    0  502 -0.51747398225E+01 -0.19389411555E+02  0.76532480669E+01  0.21880855071E+02  0.41800000000E+01 0.  1.
        -11    1    1    2    0    0 -0.84139515943E+02  0.84729719118E+01 -0.85324852731E+02  0.12013151081E+03  0.00000000000E+00 0. -1.
         11    1    1    2    0    0  0.15937137545E+02  0.27018022043E+02 -0.62839139645E+02  0.70233349198E+02  0.00000000000E+00 0.  1.
</event>
<event>
 6    1  0.4988969E-006  0.1391222E+03  0.7561462E-02  0.1214515E+00
          1   -1    0    0  501    0  0.00000000000E+00  0.00000000000E+00  0.72415906040E+02  0.72415906040E+02  0.00000000000E+00 0. -1.
         -1   -1    0    0    0  501 -0.00000000000E+00 -0.00000000000E+00 -0.37945741298E+03  0.37945741298E+03  0.00000000000E+00 0.  1.
          5    1    1    2  502    0 -0.23095552809E+02 -0.10095585278E+03 -0.16180197514E+03  0.19215316893E+03  0.41800000000E+01 0.  1.
         -5    1    1    2    0  502  0.62452812729E+02 -0.18711952322E+01 -0.82534433702E+02  0.10360144949E+03  0.41800000000E+01 0.  1.
        -11    1    1    2    0    0 -0.32733547339E+02  0.57477210696E+02  0.13201433150E+02  0.67449186118E+02  0.00000000000E+00 0.  1.
         11    1    1    2    0    0 -0.66237125813E+01  0.45349837316E+02 -0.75906531242E+02  0.88669514480E+02  0.00000000000E+00 0. -1.
</event>
<event>
 6    1  0.4988969E-006  0.1223830E+03  0.7561462E-02  0.1239217E+00
          2   -1    0    0  501    0  0.00000000000E+00  0.00000000000E+00  0.25469274607E+03  0.25469274607E+03  0.00000000000E+00 0.  1.
         -2   -1    0    0    0  501 -0.00000000000E+00 -0.00000000000E+00 -0.71786680227E+02  0.71786680227E+02  0.00000000000E+00 0. -1.
          5    1    1    2  502    0 -0.92927715770E+02  0.28864696162E+02  0.66744166603E+02  0.11807195780E+03  0.41800000000E+01 0. -1.
         -5    1    1    2    0  502  0.39826352119E+02  0.31419336729E+02  0.26065144273E+02  0.57185463096E+02  0.41800000000E+01 0. -1.
        -11    1    1    2    0    0  0.18973911107E+02 -0.59371304702E+02  0.86720019086E+01  0.62929839836E+02  0.00000000000E+00 0. -1.
         11    1    1    2    0    0  0.34127452544E+02 -0.91272818908E+00  0.81424753054E+02  0.88292165563E+02  0.00000000000E+00 0.  1.
</event>
<event>
 6    1  0.4988969E-006  0.1006700E+03  0.7561462E-02  0.1278893E+00
         -3   -1    0    0    0  501 -0.00000000000E+00  0.00000000000E+00  0.46066665186E+02  0.46066665186E+02  0.00000000000E+00 0.  1.
          3   -1    0    0  501    0  0.00000000000E+00 -0.00000000000E+00 -0.57333578782E+03  0.57333578782E+03  0.00000000000E+00 0. -1.
          5    1    1    2  502    0  0.61290607535E+02 -0.61589526002E+01 -0.14244194736E+03  0.15524706772E+03  0.41800000000E+01 0. -1.
         -5    1    1    2    0  502  0.22291692019E+02  0.11100856550E+01  0.26396298503E+02  0.34819373887E+02  0.41800000000E+01 0. -1.
        -11    1    1    2    0    0 -0.58375519877E+00 -0.27670539070E+02 -0.48886219390E+02  0.56177058919E+02  0.00000000000E+00 0.  1.
         11    1    1    2    0    0 -0.82998544356E+02  0.32719406015E+02 -0.36233725439E+03  0.37315895248E+03  0.00000000000E+00 0. -1.
</event>
<event>
 6    1  0.4988969E-006  0.1772637E+03  0.7561462E-02  0.1170478E+00
         -2   -1    0    0    0  501 -0.00000000000E+00  0.00000000000E+00  0.24664661292E+03  0.24664661292E+03  0.00000000000E+00 0.  1.
          2   -1    0    0  501    0  0.00000000000E+00 -0.00000000000E+00 -0.14737056517E+03  0.14737056517E+03  0.00000000000E+00 0. -1.
          5    1    1    2  502    0 -0.11404075955E+03 -0.78919477001E+02  0.13312656867E+02  0.13938535763E+03  0.41800000000E+01 0.  1.
         -5    1    1    2    0  502  0.31264776133E+02 -0.49433156553E+02  0.78232326366E+01  0.59159095347E+02  0.41800000000E+01 0.  1.
        -11    1    1    2    0    0  0.43975235336E+02  0.35533742468E+02 -0.14872819868E+02  0.58460832593E+02  0.00000000000E+00 0. -1.
         11    1    1    2    0    0  0.38800748078E+02  0.92818891086E+02  0.93012978120E+02  0.13701189252E+03  0.00000000000E+00 0.  1.
</event>
<event>
 6    1  0.4988969E-006  0.9476038E+02  0.7561462E-02  0.1291717E+00
          1   -1    0    0  501    0  0.00000000000E+00  0.00000000000E+00  0.45788307542E+03  0.45788307542E+03  0.00000000000E+00 0. -1.
         -1   -1    0    0    0  501 -0.00000000000E+00 -0.00000000000E+00 -0.50884231531E+02  0.50884231531E+02  0.00000000000E+00 0.  1.
          5    1    1    2  502    0  0.24749920073E+02 -0.13650484391E+02  0.55148590661E+02  0.62110657054E+02  0.41800000000E+01 0. -1.
         -5    1    1    2    0  502 -0.93399752897E+01  0.73207193404E+02 -0.42441395036E+01  0.74040620098E+02  0.41800000000E+01 0.  1.
        -11    1    1    2    0    0 -0.61100142720E+01 -0.71573944823E+02  0.34812194799E+03  0.35545611898E+03  0.00000000000E+00 0. -1.
         11    1    1    2    0    0 -0.92999305109E+01  0.12017235810E+02  0.79724447452E+01  0.17159910817E+02  0.00000000000E+00 0.  1.
</event>
<event>
 6    1  0.4988969E-006  0.1337939E+03  0.7561462E-02  0.1221932E+00
          2   -1    0    0  501    0  0.00000000000E+00  0.00000000000E+00  0.29422774889E+03  0.29422774889E+03  0.00000000000E+00 0. -1.
         -2   -1    0    0    0  501 -0.00000000000E+00 -0.00000000000E+00 -0.93779039770E+02  0.93779039770E+02  0.00000000000E+00 0.  1.
          5    1    1    2  502    0  0.66704999909E+02 -0.63058459058E+02  0.14203225641E+03  0.16916430041E+03  0.41800000000E+01 0. -1.
         -5    1    1    2    0  502  0.29258151088E+02 -0.21656024258E+02 -0.25290436726E+02  0.44520797180E+02  0.41800000000E+01 0. -1.
        -11    1    1    2    0    0 -0.81635671756E+02  0.37718095883E+02  0.86941599991E+02  0.12508348999E+03  0.00000000000E+00 0. -1.
         11    1    1    2    0    0 -0.14327479240E+02  0.46996387433E+02 -0.32347105539E+01  0.49238201079E+02  0.00000000000E+00 0.  1.
</event>
<event>
 6    1  0.4988969E-006  0.7791910E+02  0.7561462E-02  0.1335063E+00
         -2   -1    0    0    0  501 -0.00000000000E+00  0.00000000000E+00  0.12127009780E+03  0.12127009780E+03  0.00000000000E+00 0.  1.
          2   -1    0    0  501    0  0.00000000000E+00 -0.00000000000E+00 -0.30180420786E+03  0.30180420786E+03  0.00000000000E+00 0. -1.
          5    1    1    2  502    0  0.15355184322E+02  0.38625249015E+02 -0.23964934768E+02  0.48161001292E+02  0.41800000000E+01 0.  1.
         -5    1    1    2    0  502 -0.27085011642E+02 -0.29645190759E+01  0.98351899573E+02  0.10214183657E+03  0.41800000000E+01 0.  1.
        -11    1    1    2    0    0 -0.22909161429E+02  0.13324573949E+02 -0.14631730263E+03  0.14869810691E+03  0.00000000000E+00 0. -1.
         11    1    1    2    0    0  0.34638988749E+02 -0.48985303889E+02 -0.10860377224E+03  0.12407336089E+03  0.00000000000E+00 0.  1.
</event>
<event>
 6    1  0.4988969E-006  0.1137238E+03  0.7561462E-02  0.1253825E+00
         -3   -1    0    0    0  501 -0.00000000000E+00  0.00000000000E+00  0.18499262748E+03  0.18499262748E+03  0.00000000000E+00 0.  1.
          3   -1    0    0  501    0  0.00000000000E+00 -0.00000000000E+00 -0.12418513992E+03  0.12418513992E+03  0.00000000000E+00 0. -1.
          5    1    1    2  502    0 -0.59971177295E+02  0.56898451443E+02  0.11036471415E+03  0.13795585675E+03  0.41800000000E+01 0.  1.
         -5    1    1    2    0  502 -0.99282054962E+00  0.17414396213E+02 -0.33141697820E+02  0.37684100394E+02  0.41800000000E+01 0.  1.
        -11    1    1    2    0    0  0.66262637879E+02 -0.89095023512E+02 -0.27410859790E+02  0.11436789597E+03  0.00000000000E+00 0. -1.
         11    1    1    2    0    0 -0.52986400346E+01  0.14782175855E+02  0.10995331022E+02  0.19169914281E+02  0.00000000000E+00 0.  1.
</event>
<event>
 6    1  0.4988969E-006  0.1604058E+03  0.7561462E-02  0.1188239E+00
          2   -1    0    0  501    0  0.00000000000E+00  0.00000000000E+00  0.47209602834E+03  0.47209602834E+03  0.00000000000E+00 0. -1.
         -2   -1    0    0    0  501 -0.00000000000E+00 -0.00000000000E+00 -0.77731234128E+02  0.77731234128E+02  0.00000000000E+00 0.  1.
          5    1    1    2  502    0  0.27287594832E+02 -0.29346884005E+01 -0.19418852534E+02  0.33879041625E+02  0.41800000000E+01 0. -1.
         -5    1    1    2    0  502  0.15381872331E+02  0.12992314714E+03  0.10795437991E+03  0.16967099546E+03  0.41800000000E+01 0. -1.
        -11    1    1    2    0    0  0.52498522079E+00  0.14350956868E+02  0.21949623652E+02  0.26229974285E+02  0.00000000000E+00 0.  1.
         11    1    1    2    0    0 -0.43194452383E+02 -0.14133941561E+03  0.28387964318E+03  0.32004725110E+03  0.00000000000E+00 0. -1.
</event>
<event>
 6    1  0.4988969E-006  0.1050649E+03  0.7561462E-02  0.1269992E+00
         -1   -1    0    0    0  501 -0.00000000000E+00  0.00000000000E+00  0.25216670869E+03  0.25216670869E+03  0.00000000000E+00 0.  1.
          1   -1    0    0  501    0  0.00000000000E+00 -0.00000000000E+00 -0.54568765497E+02  0.54568765497E+02  0.00000000000E+00 0. -1.
          5    1    1    2  502    0 -0.37102159396E+02  0.72579607288E+02  0.76888090497E+02  0.11213215634E+03  0.41800000000E+01 0. -1.
         -5    1    1    2    0  502  0.39725482827E+01 -0.49217950889E+02  0.57514776542E+02  0.75918441437E+02  0.41800000000E+01 0. -1.
        -11    1    1    2    0    0  0.54247417673E+02 -0.18155065707E+02  0.60298622769E+01  0.57521717412E+02  0.00000000000E+00 0. -1.
         11    1    1    2    0    0 -0.21117806559E+02 -0.52065906926E+01  0.57165213874E+02  0.61163158991E+02  0.00000000000E+00 0.  1.
</event>
<event>
 6    1  0.4988969E-006  0.8883352E+02  0.7561462E-02  0.1305701E+00
          1   -1    0    0  501    0  0.00000000000E+00  0.00000000000E+00  0.47566538702E+02  0.47566538702E+02  0.00000000000E+00 0. -1.
         -1   -1    0    0    0  501 -0.00000000000E+00 -0.00000000000E+00 -0.30802555199E+03  0.30802555199E+03  0.00000000000E+00 0.  1.
          5    1    1    2  502    0 -0.22210229044E+02  0.23074712394E+02  0.37644403891E+01  0.32517380548E+02  0.41800000000E+01 0.  1.
         -5    1    1    2    0  502  0.64890312118E+02  0.24667137026E+01 -0.16598329151E+03  0.17828281673E+03  0.41800000000E+01 0.  1.
        -11    1    1    2    0    0 -0.54411149211E+02 -0.25327796466E+01 -0.10483081455E+03  0.11813758001E+03  0.00000000000E+00 0.  1.
         11    1    1    2    0    0  0.11731066136E+02 -0.23008646450E+02  0.65906523786E+01  0.26654313402E+02  0.00000000000E+00 0. -1.
</event>
<event>
 6    1  0.4988969E-006  0.8606806E+02  0.7561462E-02  0.1312663E+00
         -1   -1    0    0    0  501 -0.00000000000E+00  0.00000000000E+00  0.19753694229E+03  0.19753694229E+03  0.00000000000E+00 0.  1.
          1   -1    0    0  501    0  0.00000000000E+00 -0.00000000000E+00 -0.72041953920E+02  0.72041953920E+02  0.00000000000E+00 0. -1.
          5    1    1    2  502    0  0.41999428023E+02 -0.44559544705E+02  0.11457501640E+03  0.12997850500E+03  0.41800000000E+01 0. -1.
         -5    1    1    2    0  502 -0.13151751671E+02  0.75202441978E+01 -0.25959068179E+02  0.30345811334E+02  0.41800000000E+01 0. -1.
        -11    1    1    2    0    0 -0.50527658581E+02  0.48914154582E+02  0.44698445498E+02  0.83328205490E+02  0.00000000000E+00 0. -1.
         11    1    1    2    0    0  0.21679982229E+02 -0.11874854075E+02 -0.78194053512E+01  0.25926374386E+02  0.00000000000E+00 0.  1.
</event>
<event>
 6    1  0.4988969E-006  0.1173978E+03  0.7561462E-02  0.1247453E+00
          2   -1    0    0  501    0  0.00000000000E+00  0.00000000000E+00  0.60636708783E+03  0.60636708783E+03  0.00000000000E+00 0. -1.
         -2   -1    0    0    0  501 -0.00000000000E+00 -0.00000000000E+00 -0.30684826074E+02  0.30684826074E+02  0.00000000000E+00 0.  1.
          5    1    1    2  502    0 -0.62844253182E+02  0.37507108579E+02  0.11541646138E+03  0.13672825351E+03  0.41800000000E+01 0. -1.
         -5    1    1    2    0  502  0.58869259298E+02  0.20977836508E+02  0.62024519044E+02  0.88148582958E+02  0.41800000000E+01 0. -1.
        -11    1    1    2    0    0  0.22417860704E+02  0.12394301075E+02  0.48517056797E+02  0.54864232228E+02  0.00000000000E+00 0.  1.
         11    1    1    2    0    0 -0.18442866821E+02 -0.70879246162E+02  0.34972422454E+03  0.35731084521E+03  0.00000000000E+00 0. -1.
</event>
<event>
 6    1  0.4988969E-006  0.1204932E+03  0.7561462E-02  0.1242286E+00
          4   -1    0    0  501    0  0.00000000000E+00  0.00000000000E+00  0.10170271044E+03  0.10170271044E+03  0.00000000000E+00 0. -1.
         -4   -1    0    0    0  501 -0.00000000000E+00 -0.00000000000E+00 -0.37944128122E+03  0.37944128122E+03  0.00000000000E+00 0.  1.
          5    1    1    2  502    0 -0.71557125214E+02 -0.74792699089E+01 -0.11771338812E+03  0.13802273650E+03  0.41800000000E+01 0. -1.
         -5    1    1    2    0  502  0.22391424447E+02 -0.43286158657E+02 -0.20555625155E+03  0.21129579355E+03  0.41800000000E+01 0.  1.
        -11    1    1    2    0    0 -0.14218230232E+02 -0.20297135934E+02 -0.29754856720E+01  0.24959673737E+02  0.00000000000E+00 0.  1.
         11    1    1    2    0    0  0.63383930999E+02  0.71062564500E+02  0.48506554561E+02  0.10686578787E+03  0.00000000000E+00 0. -1.
</event>
<event>
 6    1  0.4988969E-006  0.8365761E+02  0.7561462E-02  0.1318981E+00
          2   -1    0    0  501    0  0.00000000000E+00  0.00000000000E+00  0.46039675041E+03  0.46039675041E+03  0.00000000000E+00 0.  1.
         -2   -1    0    0    0  501 -0.00000000000E+00 -0.00000000000E+00 -0.35642017728E+02  0.35642017728E+02  0.00000000000E+00 0. -1.
          5    1    1    2  502    0  0.10177051573E+01  0.55952060995E+02  0.10170413220E+02  0.57031382225E+02  0.41800000000E+01 0.  1.
         -5    1    1    2    0  502 -0.12598186267E+02  0.76066135464E+01  0.17458060492E+03  0.17524963589E+03  0.41800000000E+01 0.  1.
        -11    1    1    2    0    0  0.41685426312E+02 -0.35735754648E+02  0.19631379466E+03  0.20384755309E+03  0.00000000000E+00 0.  1.
         11    1    1    2    0    0 -0.30104945202E+02 -0.27822919893E+02  0.43689919889E+02  0.59910196936E+02  0.00000000000E+00 0. -1.
</event>
<event>
 6    1  0.4988969E-006  0.1113129E+03  0.7561462E-02  0.1258158E+00
         -2   -1    0    0    0  501 -0.00000000000E+00  0.00000000000E+00  0.16617795546E+02  0.16617795546E+02  0.00000000000E+00 0.  1.
          2   -1    0    0  501    0  0.00000000000E+00 -0.00000000000E+00 -0.80406536521E+03  0.80406536521E+03  0.00000000000E+00 0. -1.
          5    1    1    2  502    0 -0.37241327645E+00 -0.45620412559E+02 -0.13625554801E+03  0.14375119998E+03  0.41800000000E+01 0. -1.
         -5    1    1    2    0  502 -0.10901088969E+01  0.85178905755E+02 -0.27697718155E+03  0.28981108644E+03  0.41800000000E+01 0. -1.
        -11    1    1    2    0    0  0.41998230204E+02 -0.20177416214E+02 -0.26432812612E+03  0.26840331169E+03  0.00000000000E+00 0. -1.
         11    1    1    2    0    0 -0.40535708031E+02 -0.19381076982E+02 -0.10988671398E+03  0.11871756264E+03  0.00000000000E+00 0.  1.
</event>
<event>
 6    1  0.4988969E-006  0.1044232E+03  0.7561462E-02  0.1271260E+00
          2   -1    0    0  501    0  0.00000000000E+00  0.00000000000E+00  0.32668288324E+02  0.32668288324E+02  0.00000000000E+00 0. -1.
         -2   -1    0    0    0  501 -0.00000000000E+00 -0.00000000000E+00 -0.44586250537E+03  0.44586250537E+03  0.00000000000E+00 0.  1.
          5    1    1    2  502    0 -0.26072413285E+01  0.69103378627E+02 -0.23509304032E+03  0.24508832010E+03  0.41800000000E+01 0.  1.
         -5    1    1    2    0  502  0.32416810743E+02 -0.37385186961E+02 -0.56788690062E+02  0.75438249859E+02  0.41800000000E+01 0.  1.
        -11    1    1    2    0    0 -0.50352091916E+02 -0.43227330378E+02 -0.11634263945E+03  0.13393858670E+03  0.00000000000E+00 0. -1.
         11    1    1    2    0    0  0.20542522502E+02  0.11509138712E+02 -0.49698472154E+01  0.24065637037E+02  0.00000000000E+00 0.  1.
</event>
<event>
 6    1  0.4988969E-006  0.8512191E+02  0.7561462E-02  0.1315114E+00
          3   -1    0    0  501    0  0.00000000000E+00  0.00000000000E+00  0.15640771822E+03  0.15640771822E+03  0.00000000000E+00 0. -1.
         -3   -1    0    0    0  501 -0.00000000000E+00 -0.00000000000E+00 -0.17210308407E+03  0.17210308407E+03  0.00000000000E+00 0.  1.
          5    1    1    2  502    0 -0.55001130977E+02  0.11327277277E+02  0.85757731474E+01  0.56960055340E+02  0.41800000000E+01 0. -1.
         -5    1    1    2    0  502 -0.69862731242E+01 -0.21892580809E+01 -0.12434875933E+03  0.12463421364E+03  0.41800000000E+01 0. -1.
        -11    1    1    2    0    0 -0.20035027035E+02  0.82333020563E+01  0.33328614719E+02  0.39749039361E+02  0.00000000000E+00 0. -1.
         11    1    1    2    0    0  0.82022431136E+02 -0.17371321252E+02  0.66749005609E+02  0.10716749396E+03  0.00000000000E+00 0.  1.
</event>
<event>
 6    1  0.4988969E-006  0.1228085E+03  0.7561462E-02  0.1238535E+00
         -4   -1    0    0    0  501 -0.00000000000E+00  0.00000000000E+00  0.42421528520E+03  0.42421528520E+03  0.00000000000E+00 0.  1.
          4   -1    0    0  501    0  0.00000000000E+00 -0.00000000000E+00 -0.39598984581E+02  0.39598984581E+02  0.00000000000E+00 0. -1.
          5    1    1    2  502    0  0.30142725207E+02 -0.50233663229E+02  0.50405259485E+02  0.77396171663E+02  0.41800000000E+01 0. -1.
         -5    1    1    2    0  502  0.39033506454E+02  0.63186737921E+02  0.17078775776E+03  0.18628502107E+03  0.41800000000E+01 0. -1.
        -11    1    1    2    0    0 -0.26090223039E+02 -0.49527935351E+02  0.10410574116E+03  0.11820203661E+03  0.00000000000E+00 0.  1.
         11    1    1    2    0    0 -0.43086008623E+02  0.36574860658E+02  0.59317542218E+02  0.81931040430E+02  0.00000000000E+00 0. -1.
</event>
<event>
 6    1  0.4988969E-006  0.1168369E+03  0.7561462E-02  0.1248408E+00
         -2   -1    0    0    0  501 -0.00000000000E+00  0.00000000000E+00  0.12202921078E+02  0.12202921078E+02  0.00000000000E+00 0. -1.
          2   -1    0    0  501    0  0.00000000000E+00 -0.00000000000E+00 -0.12010709763E+04  0.12010709763E+04  0.00000000000E+00 0.  1.
          5    1    1    2  502    0 -0.39813445675E+02  0.16926901265E+02 -0.35259223331E+03  0.35526101086E+03  0.41800000000E+01 0. -1.
         -5    1    1    2    0  502  0.51949161008E+02 -0.67633082597E+02 -0.34836419754E+03  0.35867539046E+03  0.41800000000E+01 0. -1.
        -11    1    1    2    0    0 -0.38766100278E+02  0.64181421406E+02 -0.38262181265E+03  0.38989936766E+03  0.00000000000E+00 0.  1.
         11    1    1    2    0    0  0.26630384945E+02 -0.13475240075E+02 -0.10528981173E+03  0.10943812841E+03  0.00000000000E+00 0. -1.
</event>
<event>
 6    1  0.4988969E-006  0.9944787E+02  0.7561462E-02  0.1281461E+00
          2   -1    0    0  501    0  0.00000000000E+00  0.00000000000E+00  0.13665338896E+02  0.13665338896E+02  0.00000000000E+00 0. -1.
         -2   -1    0    0    0  501 -0.00000000000E+00 -0.00000000000E+00 -0.11286117488E+04  0.11286117488E+04  0.00000000000E+00 0.  1.
          5    1    1    2  502    0  0.32083579285E+02  0.51482017778E+02 -0.42490744343E+03  0.42923602143E+03  0.41800000000E+01 0. -1.
         -5    1    1    2    0  502 -0.36761060565E+02 -0.52554931207E+02 -0.48789487491E+03  0.49211002604E+03  0.41800000000E+01 0. -1.
        -11    1    1    2    0    0  0.35789493471E+02 -0.14993853889E+02 -0.16651230995E+03  0.17097383677E+03  0.00000000000E+00 0.  1.
         11    1    1    2    0    0 -0.31112012191E+02  0.16066767318E+02 -0.35631781608E+02  0.49957203437E+02  0.00000000000E+00 0. -1.
</event>
<event>
 6    1  0.4988969E-006  0.1215100E+03  0.7561462E-02  0.1240627E+00
         -2   -1    0    0    0  501 -0.00000000000E+00  0.00000000000E+00  0.62199029343E+03  0.62199029343E+03  0.00000000000E+00 0.  1.
          2   -1    0    0  501    0  0.00000000000E+00 -0.00000000000E+00 -0.46331943380E+03  0.46331943380E+03  0.00000000000E+00 0. -1.
          5    1    1    2  502    0 -0.73373371563E+02  0.62895462971E+01  0.30534425142E+03  0.31412703532E+03  0.41800000000E+01 0. -1.
         -5    1    1    2    0  502  0.75283804355E+02 -0.18309968236E+02  0.30271806108E+03  0.31250376484E+03  0.41800000000E+01 0.  1.
        -11    1    1    2    0    0 -0.30939889947E+02 -0.28336264703E+02 -0.21953194085E+03  0.22350501949E+03  0.00000000000E+00 0.  1.
         11    1    1    2    0    0  0.29029457156E+02  0.40356686642E+02 -0.22985951202E+03  0.23517390758E+03  0.00000000000E+00 0. -1.
</event>
<event>
 6    1  0.4988969E-006  0.8118908E+02  0.7561462E-02  0.1325710E+00
         -1   -1    0    0    0  501 -0.00000000000E+00  0.00000000000E+00  0.25290782607E+02  0.25290782607E+02  0.00000000000E+00 0.  1.
          1   -1    0    0  501    0  0.00000000000E+00 -0.00000000000E+00 -0.64597966253E+03  0.64597966253E+03  0.00000000000E+00 0. -1.
          5    1    1    2  502    0  0.11479649078E+02  0.37429559527E+02 -0.17151877839E+01  0.39410259305E+02  0.41800000000E+01 0. -1.
         -5    1    1    2    0  502 -0.23575262137E+02 -0.25476562088E+01 -0.19585668319E+03  0.19733118427E+03  0.41800000000E+01 0. -1.
        -11    1    1    2    0    0 -0.19152786054E+01 -0.65357263761E+02 -0.28159415907E+03  0.28908564586E+03  0.00000000000E+00 0. -1.
         11    1    1    2    0    0  0.14010891664E+02  0.30475360443E+02 -0.14152284988E+03  0.14544335570E+03  0.00000000000E+00 0.  1.
</event>
<event>
 6    1  0.4988969E-006  0.1927942E+03  0.7561462E-02  0.1155965E+00
          2   -1    0    0  501    0  0.00000000000E+00  0.00000000000E+00  0.25343911842E+03  0.25343911842E+03  0.00000000000E+00 0. -1.
         -2   -1    0    0    0  501 -0.00000000000E+00 -0.00000000000E+00 -0.19068354604E+03  0.19068354604E+03  0.00000000000E+00 0.  1.
          5    1    1    2  502    0 -0.24991571522E+02  0.39757064904E+01 -0.35326601140E+02  0.43655767515E+02  0.41800000000E+01 0. -1.
         -5    1    1    2    0  502 -0.13837605800E+02 -0.17546535632E+03 -0.67099855504E+01  0.17618759011E+03  0.41800000000E+01 0. -1.
        -11    1    1    2    0    0  0.52087611752E+02  0.12219866607E+03  0.11067222754E+03  0.17289874273E+03  0.00000000000E+00 0. -1.
         11    1    1    2    0    0 -0.13258434429E+02  0.49290983757E+02 -0.58800684761E+01  0.51380564113E+02  0.00000000000E+00 0.  1.
</event>
<event>
 6    1  0.4988969E-006  0.1212036E+03  0.7561462E-02  0.1241125E+00
          2   -1    0    0  501    0  0.00000000000E+00  0.00000000000E+00  0.16485117670E+03  0.16485117670E+03  0.00000000000E+00 0. -1.
         -2   -1    0    0    0  501 -0.00000000000E+00 -0.00000000000E+00 -0.11095752937E+03  0.11095752937E+03  0.00000000000E+00 0.  1.
          5    1    1    2  502    0 -0.65173139996E+01 -0.98602036640E+02  0.19070049133E+02  0.10072723656E+03  0.41800000000E+01 0. -1.
         -5    1    1    2    0  502 -0.38983168514E+00  0.29628823513E+02 -0.30510965603E+02  0.42736525052E+02  0.41800000000E+01 0. -1.
        -11    1    1    2    0    0 -0.34621887274E+02  0.18826349170E+01  0.30164606347E+02  0.45957837947E+02  0.00000000000E+00 0. -1.
         11    1    1    2    0    0  0.41529032959E+02  0.67090578210E+02  0.35169957459E+02  0.86387106508E+02  0.00000000000E+00 0.  1.
</event>
<event>
 6    1  0.4988969E-006  0.1477131E+03  0.7561462E-02  0.1203312E+00
          2   -1    0    0  501    0  0.00000000000E+00  0.00000000000E+00  0.82608542881E+03  0.82608542881E+03  0.00000000000E+00 0. -1.
         -2   -1    0    0    0  501 -0.00000000000E+00 -0.00000000000E+00 -0.33984297517E+02  0.33984297517E+02  0.00000000000E+00 0.  1.
          5    1    1    2  502    0 -0.22510838933E+02 -0.59102786982E+02  0.35388831529E+03  0.35951952576E+03  0.41800000000E+01 0. -1.
         -5    1    1    2    0  502  0.39929997720E+02 -0.67073481773E+02  0.91676160249E+02  0.12047924067E+03  0.41800000000E+01 0. -1.
        -11    1    1    2    0    0  0.52498415997E+01  0.13065913722E+03  0.31421300504E+03  0.34033686769E+03  0.00000000000E+00 0. -1.
         11    1    1    2    0    0 -0.22669000386E+02 -0.44828684608E+01  0.32323650711E+02  0.39734092206E+02  0.00000000000E+00 0.  1.
</event>
<event>
 6    1  0.4988969E-006  0.1100506E+03  0.7561462E-02  0.1260476E+00
          1   -1    0    0  501    0  0.00000000000E+00  0.00000000000E+00  0.74462095076E+03  0.74462095076E+03  0.00000000000E+00 0. -1.
         -1   -1    0    0    0  501 -0.00000000000E+00 -0.00000000000E+00 -0.19407234087E+02  0.19407234087E+02  0.00000000000E+00 0.  1.
          5    1    1    2  502    0 -0.15532116289E+02 -0.75100778880E+02  0.14347625070E+03  0.16273991686E+03  0.41800000000E+01 0.  1.
         -5    1    1    2    0  502  0.33511413404E+02  0.35029860936E+02  0.18972036988E+03  0.19586065744E+03  0.41800000000E+01 0.  1.
        -11    1    1    2    0    0  0.33819750414E+02  0.13404396570E+02  0.78193886239E+02  0.86242316821E+02  0.00000000000E+00 0.  1.
         11    1    1    2    0    0 -0.51799047528E+02  0.26666521373E+02  0.31382320986E+03  0.31918529373E+03  0.00000000000E+00 0. -1.
</event>
<event>
 6    1  0.4988969E-006  0.1061695E+03  0.7561462E-02  0.1267832E+00
          1   -1    0    0  501    0  0.00000000000E+00  0.00000000000E+00  0.51648446106E+03  0.51648446106E+03  0.00000000000E+00 0. -1.
         -1   -1    0    0    0  501 -0.00000000000E+00 -0.00000000000E+00 -0.27091447074E+02  0.27091447074E+02  0.00000000000E+00 0.  1.
          5    1    1    2  502    0  0.14792217051E+00  0.41572526863E+02  0.11408825483E+03  0.12149855621E+03  0.41800000000E+01 0. -1.
         -5    1    1    2    0  502 -0.56990106250E+01 -0.88849267898E+02  0.14739648595E+03  0.17224943424E+03  0.41800000000E+01 0. -1.
        -11    1    1    2    0    0 -0.20485519258E+01  0.63488792912E+02  0.22209881925E+03  0.23100413179E+03  0.00000000000E+00 0. -1.
         11    1    1    2    0    0  0.75996403804E+01 -0.16212051877E+02  0.58094539564E+01  0.18823785890E+02  0.00000000000E+00 0.  1.
</event>
<event>
 6    1  0.4988969E-006  0.1025925E+03  0.7561462E-02  0.1274937E+00
          4   -1    0    0  501    0  0.00000000000E+00  0.00000000000E+00  0.48983286741E+03  0.48983286741E+03  0.00000000000E+00 0. -1.
         -4   -1    0    0    0  501 -0.00000000000E+00 -0.00000000000E+00 -0.31881271840E+02  0.31881271840E+02  0.00000000000E+00 0.  1.
          5    1    1    2  502    0  0.55042752134E+02  0.56821977743E+02  0.64592637946E+02  0.10221606035E+03  0.41800000000E+01 0.  1.
         -5    1    1    2    0  502 -0.76710083840E+01 -0.20386502753E+02  0.16135264663E+03  0.16286989543E+03  0.41800000000E+01 0.  1.
        -11    1    1    2    0    0  0.24013989424E+02 -0.18130299307E+02  0.34268085477E+02  0.45603520953E+02  0.00000000000E+00 0.  1.
         11    1    1    2    0    0 -0.71385733174E+02 -0.18305175683E+02  0.19773822552E+03  0.21102466251E+03  0.00000000000E+00 0. -1.
</event>
<event>
 6    1  0.4988969E-006  0.1380651E+03  0.7561462E-02  0.1215957E+00
         -3   -1    0    0    0  501 -0.00000000000E+00  0.00000000000E+00  0.24600014682E+02  0.24600014682E+02  0.00000000000E+00 0.  1.
          3   -1    0    0  501    0  0.00000000000E+00 -0.00000000000E+00 -0.10901163197E+04  0.10901163197E+04  0.00000000000E+00 0. -1.
          5    1    1    2  502    0 -0.36730992948E+02 -0.14227906574E+02 -0.40037919207E+02  0.56321457216E+02  0.41800000000E+01 0. -1.
         -5    1    1    2    0  502 -0.34159242518E+02 -0.82030227939E+02 -0.60562850339E+03  0.61212675866E+03  0.41800000000E+01 0. -1.
        -11    1    1    2    0    0  0.33362783606E+02  0.10402075301E+03 -0.26258780839E+03  0.28440420093E+03  0.00000000000E+00 0. -1.
         11    1    1    2    0    0  0.37527451860E+02 -0.77626184986E+01 -0.15726207407E+03  0.16186391763E+03  0.00000000000E+00 0.  1.
</event>
<event>
 6    1  0.4988969E-006  0.9001732E+02  0.7561462E-02  0.1302810E+00
         -2   -1    0    0    0  501 -0.00000000000E+00  0.00000000000E+00  0.10561716983E+03  0.10561716983E+03  0.00000000000E+00 0.  1.
          2   -1    0    0  501    0  0.00000000000E+00 -0.00000000000E+00 -0.13329969439E+03  0.13329969439E+03  0.00000000000E+00 0. -1.
          5    1    1    2  502    0 -0.51567673324E+02 -0.18486361716E+02 -0.67254855544E+01  0.55350474772E+02  0.41800000000E+01 0. -1.
         -5    1    1    2    0  502  0.55912833236E+02  0.31307282121E+02  0.36746813478E+02  0.73987779633E+02  0.41800000000E+01 0. -1.
        -11    1    1    2    0    0 -0.19658697938E+02  0.17876908081E+02 -0.68614563300E+02  0.73579933025E+02  0.00000000000E+00 0. -1.
         11    1    1    2    0    0  0.15313538025E+02 -0.30697828487E+02  0.10910710815E+02  0.35998676797E+02  0.00000000000E+00 0.  1.
</event>
<event>
 6    1  0.4988969E-006  0.9547210E+02  0.7561462E-02  0.1290116E+00
          2   -1    0    0  501    0  0.00000000000E+00  0.00000000000E+00  0.39070192482E+03  0.39070192482E+03  0.00000000000E+00 0. -1.
         -2   -1    0    0    0  501 -0.00000000000E+00 -0.00000000000E+00 -0.34924310350E+02  0.34924310350E+02  0.00000000000E+00 0.  1.
          5    1    1    2  502    0  0.47717946656E+02  0.50354741291E+02  0.16557674088E+03  0.17957096627E+03  0.41800000000E+01 0.  1.
         -5    1    1    2    0  502 -0.18576971225E+02 -0.31853636029E+02  0.94206465639E+01  0.38288104809E+02  0.41800000000E+01 0.  1.
        -11    1    1    2    0    0  0.15191451756E+02 -0.34105522394E+02  0.14202527730E+03  0.14685076185E+03  0.00000000000E+00 0. -1.
         11    1    1    2    0    0 -0.44332427187E+02  0.15604417132E+02  0.38754949715E+02  0.60916402239E+02  0.00000000000E+00 0.  1.
</event>
<event>
 6    1  0.4988969E-006  0.1592090E+03  0.7561462E-02  0.1189593E+00
          3   -1    0    0  501    0  0.00000000000E+00  0.00000000000E+00  0.18212175534E+03  0.18212175534E+03  0.00000000000E+00 0. -1.
         -3   -1    0    0    0  501 -0.00000000000E+00 -0.00000000000E+00 -0.16379463915E+03  0.16379463915E+03  0.00000000000E+00 0.  1.
          5    1    1    2  502    0  0.10510293091E+02 -0.10899336535E+03 -0.18144867044E+00  0.10957885414E+03  0.41800000000E+01 0. -1.
         -5    1    1    2    0  502 -0.72536171893E+02 -0.90199841163E+01 -0.22402876528E+01  0.73248533330E+02  0.41800000000E+01 0. -1.
        -11    1    1    2    0    0  0.44727767502E+02  0.58446901096E+02 -0.33334150145E+02  0.80794671850E+02  0.00000000000E+00 0.  1.
         11    1    1    2    0    0  0.17298111299E+02  0.59566448368E+02  0.54083002650E+02  0.82294335172E+02  0.00000000000E+00 0. -1.
</event>
<event>
 6    1  0.4988969E-006  0.2144397E+03  0.7561462E-02  0.1138098E+00
          1   -1    0    0  501    0  0.00000000000E+00  0.00000000000E+00  0.66940786152E+03  0.66940786152E+03  0.00000000000E+00 0. -1.
         -1   -1    0    0    0  501 -0.00000000000E+00 -0.00000000000E+00 -0.76423721836E+02  0.76423721836E+02  0.00000000000E+00 0.  1.
          5    1    1    2  502    0 -0.15022729194E+03  0.14385348718E+02  0.21126902631E+03  0.25966757861E+03  0.41800000000E+01 0. -1.
         -5    1    1    2    0  502 -0.38735926604E+02 -0.70682828153E+02  0.79924642640E+02  0.11358677347E+03  0.41800000000E+01 0. -1.
        -11    1    1    2    0    0  0.16702352339E+03  0.48676561381E+02  0.30292092290E+03  0.34932413390E+03  0.00000000000E+00 0. -1.
         11    1    1    2    0    0  0.21939695159E+02  0.76209180543E+01 -0.11304521725E+01  0.23253097380E+02  0.00000000000E+00 0.  1.
</event>
<event>
 6    1  0.4988969E-006  0.9965289E+02  0.7561462E-02  0.1281028E+00
          2   -1    0    0  501    0  0.00000000000E+00  0.00000000000E+00  0.13431360328E+03  0.13431360328E+03  0.00000000000E+00 0.  1.
         -2   -1    0    0    0  501 -0.00000000000E+00 -0.00000000000E+00 -0.90666683110E+02  0.90666683110E+02  0.00000000000E+00 0. -1.
          5    1    1    2  502    0 -0.14568436962E+02  0.48202713530E+02 -0.10840987514E+02  0.51679206239E+02  0.41800000000E+01 0. -1.
         -5    1    1    2    0  502 -0.14801372431E+02 -0.55471587917E+02  0.52256149952E+02  0.77745451955E+02  0.41800000000E+01 0.  1.
        -11    1    1    2    0    0  0.60125241648E+02  0.61098112130E+01  0.14946027330E+02  0.62255587775E+02  0.00000000000E+00 0.  1.
         11    1    1    2    0    0 -0.30755432254E+02  0.11590631739E+01 -0.12714269600E+02  0.33300040421E+02  0.00000000000E+00 0. -1.
</event>
<event>
 6    1  0.4988969E-006  0.1984442E+03  0.7561462E-02  0.1151058E+00
          1   -1    0    0  501    0  0.00000000000E+00  0.00000000000E+00  0.10812875446E+04  0.10812875446E+04  0.00000000000E+00 0. -1.
         -1   -1    0    0    0  501 -0.00000000000E+00 -0.00000000000E+00 -0.50626411653E+02  0.50626411653E+02  0.00000000000E+00 0.  1.
          5    1    1    2  502    0 -0.16186423670E+02 -0.27239175217E+02  0.16491163567E+01  0.32002577435E+02  0.41800000000E+01 0.  1.
         -5    1    1    2    0  502  0.11433767481E+01 -0.16816911494E+03  0.36896869213E+03  0.40550897240E+03  0.41800000000E+01 0.  1.
        -11    1    1    2    0    0 -0.21087105816E+01  0.79973453139E+02  0.41930412540E+03  0.42686783603E+03  0.00000000000E+00 0. -1.
         11    1    1    2    0    0  0.17151757504E+02  0.11543483702E+03  0.24073919910E+03  0.26753457041E+03  0.00000000000E+00 0.  1.
</event>
<event>
 6    1  0.4988969E-006  0.1054544E+03  0.7561462E-02  0.1269227E+00
         -2   -1    0    0    0  501 -0.00000000000E+00  0.00000000000E+00  0.26266960657E+03  0.26266960657E+03  0.00000000000E+00 0.  1.
          2   -1    0    0  501    0  0.00000000000E+00 -0.00000000000E+00 -0.53808792687E+02  0.53808792687E+02  0.00000000000E+00 0. -1.
          5    1    1    2  502    0 -0.53540557011E+02 -0.12258729926E+02  0.10787254479E+03  0.12112318533E+03  0.41800000000E+01 0. -1.
         -5    1    1    2    0  502  0.43935441732E+02  0.51528778185E+02  0.49783494889E+02  0.84151094971E+02  0.41800000000E+01 0. -1.
        -11    1    1    2    0    0  0.42114319131E+02 -0.79924592378E+01  0.50293059224E+02  0.66082426458E+02  0.00000000000E+00 0.  1.
         11    1    1    2    0    0 -0.32509203851E+02 -0.31277589021E+02  0.91171497997E+00  0.45121692501E+02  0.00000000000E+00 0. -1.
</event>
<event>
 6    1  0.4988969E-006  0.1092915E+03  0.7561462E-02  0.1261888E+00
         -1   -1    0    0    0  501 -0.00000000000E+00  0.00000000000E+00  0.10778066306E+03  0.10778066306E+03  0.00000000000E+00 0.  1.
          1   -1    0    0  501    0  0.00000000000E+00 -0.00000000000E+00 -0.14743741489E+03  0.14743741489E+03  0.00000000000E+00 0. -1.
          5    1    1    2  502    0  0.34176765147E+02 -0.76888027039E+01  0.17086848038E+02  0.39199511971E+02  0.41800000000E+01 0.  1.
         -5    1    1    2    0  502 -0.53798914823E+02  0.60352066679E+02 -0.72606556837E+02  0.10874686057E+03  0.41800000000E+01 0.  1.
        -11    1    1    2    0    0 -0.27800896144E+02  0.44022259459E+01 -0.81172677228E+01  0.29294358757E+02  0.00000000000E+00 0.  1.
         11    1    1    2    0    0  0.47423045821E+02 -0.57065489921E+02  0.23980224692E+02  0.77977346654E+02  0.00000000000E+00 0. -1.
</event>
<event>
 6    1  0.4988969E-006  0.1239598E+03  0.7561462E-02  0.1236704E+00
         -1   -1    0    0    0  501 -0.00000000000E+00  0.00000000000E+00  0.50728347824E+02  0.50728347824E+02  0.00000000000E+00 0.  1.
          1   -1    0    0  501    0  0.00000000000E+00 -0.00000000000E+00 -0.37017610978E+03  0.37017610978E+03  0.00000000000E+00 0. -1.
          5    1    1    2  502    0 -0.10734549264E+02  0.99989522371E+02 -0.73646502845E+02  0.12471734007E+03  0.41800000000E+01 0.  1.
         -5    1    1    2    0  502 -0.23217173485E+01 -0.38313457736E+02 -0.17408771657E+02  0.42353856327E+02  0.41800000000E+01 0.  1.
        -11    1    1    2    0    0  0.45130603037E+02 -0.61872400483E+02 -0.18175706931E+03  0.19723234399E+03  0.00000000000E+00 0. -1.
         11    1    1    2    0    0 -0.32074336424E+02  0.19633584800E+00 -0.46635418144E+02  0.56600917222E+02  0.00000000000E+00 0.  1.
</event>
<event>
 6    1  0.4988969E-006  0.1723378E+03  0.7561462E-02  0.1175432E+00
          1   -1    0    0  501    0  0.00000000000E+00  0.00000000000E+00  0.41817197921E+03  0.41817197921E+03  0.00000000000E+00 0. -1.
         -1   -1    0    0    0  501 -0.00000000000E+00 -0.00000000000E+00 -0.21424005603E+03  0.21424005603E+03  0.00000000000E+00 0.  1.
          5    1    1    2  502    0 -0.57292795437E+02  0.26918032880E+02 -0.49630300477E+02  0.80546160856E+02  0.41800000000E+01 0. -1.
         -5    1    1    2    0  502  0.97811103726E+02  0.87289955449E+02 -0.10162931615E+03  0.16592931819E+03  0.41800000000E+01 0.  1.
        -11    1    1    2    0    0  0.26380599908E+02 -0.14795681666E+02  0.89542736083E+02  0.94513225703E+02  0.00000000000E+00 0.  1.
         11    1    1    2    0    0 -0.66898908197E+02 -0.99412306664E+02  0.26564880373E+03  0.29142333049E+03  0.00000000000E+00 0. -1.
</event>
<event>
 6    1  0.6694933E-006  0.1320241E+03  0.7561462E-02  0.1224483E+00
          1   -1    0    0  501    0  0.00000000000E+00  0.00000000000E+00  0.33176686967E+03  0.33176686967E+03  0.00000000000E+00 0. -1.
         -1   -1    0    0    0  501 -0.00000000000E+00 -0.00000000000E+00 -0.79586965004E+02  0.79586965004E+02  0.00000000000E+00 0.  1.
          5    1    1    2  502    0 -0.54307829824E+01 -0.10105687057E+02  0.72289990275E+02  0.73313937343E+02  0.41800000000E+01 0.  1.
         -5    1    1    2    0  502  0.11180780885E+03 -0.30446141368E+02  0.14695936579E+02  0.11688197721E+03  0.41800000000E+01 0.  1.
        -11    1    1    2    0    0 -0.90968839907E+02 -0.16217522569E+01  0.14664604861E+03  0.17257758686E+03  0.00000000000E+00 0. -1.
         11    1    1    2    0    0 -0.15408185963E+02  0.42173580682E+02  0.18547929208E+02  0.48580333265E+02  0.00000000000E+00 0.  1.
</event>
<event>
 6    1  0.4988969E-006  0.1064103E+03  0.7561462E-02  0.1267366E+00
         -1   -1    0    0    0  501 -0.00000000000E+00  0.00000000000E+00  0.21132419927E+03  0.21132419927E+03  0.00000000000E+00 0.  1.
          1   -1    0    0  501    0  0.00000000000E+00 -0.00000000000E+00 -0.79836186049E+02  0.79836186049E+02  0.00000000000E+00 0. -1.
          5    1    1    2  502    0  0.27173814750E+02 -0.91237296046E+02  0.99469280280E+02  0.13774712526E+03  0.41800000000E+01 0.  1.
         -5    1    1    2    0  502 -0.22294737014E+02  0.23588956065E+02 -0.49204324675E+01  0.33093461627E+02  0.41800000000E+01 0.  1.
        -11    1    1    2    0    0 -0.15184068797E+02  0.72025942923E+02 -0.79669737894E+01  0.74038942932E+02  0.00000000000E+00 0. -1.
         11    1    1    2    0    0  0.10304991061E+02 -0.43776029421E+01  0.44906139193E+02  0.46280855496E+02  0.00000000000E+00 0.  1.
</event>
<event>
 6    1  0.4988969E-006  0.1678658E+03  0.7561462E-02  0.1180092E+00
         -2   -1    0    0    0  501 -0.00000000000E+00  0.00000000000E+00  0.14541866492E+03  0.14541866492E+03  0.00000000000E+00 0.  1.
          2   -1    0    0  501    0  0.00000000000E+00 -0.00000000000E+00 -0.21537682410E+03  0.21537682410E+03  0.00000000000E+00 0. -1.
          5    1    1    2  502    0 -0.24045947115E+02  0.15050086005E+03 -0.43151131776E+01  0.15252805988E+03  0.41800000000E+01 0.  1.
         -5    1    1    2    0  502 -0.14834353460E+02 -0.23130973939E+02  0.12201204053E+02  0.30355259483E+02  0.41800000000E+01 0.  1.
        -11    1    1    2    0    0  0.36007512857E+02 -0.90668368107E+01 -0.37789514607E+02  0.52979202769E+02  0.00000000000E+00 0. -1.
         11    1    1    2    0    0  0.28727877190E+01 -0.11830304930E+03 -0.40054735450E+02  0.12493296689E+03  0.00000000000E+00 0.  1.
</event>
<event>
 6    1  0.4988969E-006  0.8025235E+02  0.7561462E-02  0.1328337E+00
         -1   -1    0    0    0  501 -0.00000000000E+00  0.00000000000E+00  0.73581447031E+02  0.73581447031E+02  0.00000000000E+00 0.  1.
          1   -1    0    0  501    0  0.00000000000E+00 -0.00000000000E+00 -0.20408152192E+03  0.20408152192E+03  0.00000000000E+00 0. -1.
          5    1    1    2  502    0  0.13915163961E+02  0.72682012894E+01  0.45513822947E+02  0.48326380138E+02  0.41800000000E+01 0.  1.
         -5    1    1    2    0  502 -0.42290596791E+02  0.61653544269E+00 -0.70901381304E+02  0.82664097187E+02  0.41800000000E+01 0.  1.
        -11    1    1    2    0    0 -0.33196434671E+02 -0.20348807717E+02 -0.47646662817E+02  0.61532769546E+02  0.00000000000E+00 0.  1.
         11    1    1    2    0    0  0.61571867501E+02  0.12464070985E+02 -0.57465853719E+02  0.85139722085E+02  0.00000000000E+00 0. -1.
</event>
<event>
 6    1  0.4988969E-006  0.8400404E+02  0.7561462E-02  0.1318058E+00
          1   -1    0    0  501    0  0.00000000000E+00  0.00000000000E+00  0.65114149749E+02  0.65114149749E+02  0.00000000000E+00 0. -1.
         -1   -1    0    0    0  501 -0.00000000000E+00 -0.00000000000E+00 -0.20696537747E+03  0.20696537747E+03  0.00000000000E+00 0.  1.
          5    1    1    2  502    0 -0.28993431897E+02 -0.33399541892E+02 -0.12631466400E+03  0.13389927272E+03  0.41800000000E+01 0.  1.
         -5    1    1    2    0  502  0.39749605059E+02  0.18882911789E+02  0.80943778733E+00  0.44212249994E+02  0.41800000000E+01 0.  1.
        -11    1    1    2    0    0 -0.13515293010E+02 -0.30978853437E+02 -0.31232195976E+02  0.46019588991E+02  0.00000000000E+00 0.  1.
         11    1    1    2    0    0  0.27591198479E+01  0.45495483540E+02  0.14886194471E+02  0.47948415518E+02  0.00000000000E+00 0. -1.
</event>
<event>
 6    1  0.4988969E-006  0.8592371E+02  0.7561462E-02  0.1313034E+00
         -1   -1    0    0    0  501 -0.00000000000E+00  0.00000000000E+00  0.13916450657E+03  0.13916450657E+03  0.00000000000E+00 0.  1.
          1   -1    0    0  501    0  0.00000000000E+00 -0.00000000000E+00 -0.12200550261E+03  0.12200550261E+03  0.00000000000E+00 0. -1.
          5    1    1    2  502    0 -0.42037313444E+02 -0.37233323521E+02  0.76314938484E+02  0.94841437873E+02  0.41800000000E+01 0.  1.
         -5    1    1    2    0  502  0.56898372196E+01 -0.21015310239E+02 -0.45974400913E+02  0.51040527538E+02  0.41800000000E+01 0.  1.
        -11    1    1    2    0    0  0.46758912006E+02  0.15336561509E+02  0.26525679335E+02  0.55903645991E+02  0.00000000000E+00 0.  1.
         11    1    1    2    0    0 -0.10411435782E+02  0.42912072250E+02 -0.39707212940E+02  0.59384397777E+02  0.00000000000E+00 0. -1.
</event>
<event>
 6    1  0.4988969E-006  0.1378382E+03  0.7561462E-02  0.1216268E+00
          1   -1    0    0  501    0  0.00000000000E+00  0.00000000000E+00  0.25380876992E+03  0.25380876992E+03  0.00000000000E+00 0. -1.
         -1   -1    0    0    0  501 -0.00000000000E+00 -0.00000000000E+00 -0.81415637798E+02  0.81415637798E+02  0.00000000000E+00 0.  1.
          5    1    1    2  502    0  0.42677264563E+02  0.30198648547E+01  0.34680547945E+02  0.55232972942E+02  0.41800000000E+01 0. -1.
         -5    1    1    2    0  502 -0.68081224257E+02  0.86969149448E+02  0.36478949986E+02  0.11639103163E+03  0.41800000000E+01 0. -1.
        -11    1    1    2    0    0  0.19862453266E+02 -0.10463459980E+03  0.66655375041E+02  0.12564177469E+03  0.00000000000E+00 0.  1.
         11    1    1    2    0    0  0.55415064278E+01  0.14645585500E+02  0.34578259150E+02  0.37958628452E+02  0.00000000000E+00 0. -1.
</event>
<event>
 6    1  0.4988969E-006  0.1197212E+03  0.7561462E-02  0.1243558E+00
         -2   -1    0    0    0  501 -0.00000000000E+00  0.00000000000E+00  0.37335381433E+02  0.37335381433E+02  0.00000000000E+00 0.  1.
          2   -1    0    0  501    0  0.00000000000E+00 -0.00000000000E+00 -0.38612383599E+03  0.38612383599E+03  0.00000000000E+00 0. -1.
          5    1    1    2  502    0  0.10814628717E+02 -0.70694451667E+02 -0.11217033100E+03  0.13309514359E+03  0.41800000000E+01 0. -1.
         -5    1    1    2    0  502 -0.47293619118E+02  0.40161698376E+02 -0.95350435095E+02  0.11383684069E+03  0.41800000000E+01 0. -1.
        -11    1    1    2    0    0 -0.29310772291E+02 -0.66380412174E+01 -0.45672247553E+02  0.54673020403E+02  0.00000000000E+00 0. -1.
         11    1    1    2    0    0  0.65789762692E+02  0.37170794508E+02 -0.95595440907E+02  0.12185421274E+03  0.00000000000E+00 0.  1.
</event>
<event>
 6    1  0.4988969E-006  0.8287288E+02  0.7561462E-02  0.1321091E+00
          2   -1    0    0  501    0  0.00000000000E+00  0.00000000000E+00  0.10917302499E+03  0.10917302499E+03  0.00000000000E+00 0.  1.
         -2   -1    0    0    0  501 -0.00000000000E+00 -0.00000000000E+00 -0.13775269858E+03  0.13775269858E+03  0.00000000000E+00 0. -1.
          5    1    1    2  502    0  0.63643131350E+02  0.17582288801E+02  0.10370332644E+02  0.66967165437E+02  0.41800000000E+01 0. -1.
         -5    1    1    2    0  502 -0.24348683047E+02 -0.28132539759E+02 -0.65943628614E+02  0.75830948262E+02  0.41800000000E+01 0. -1.
        -11    1    1    2    0    0 -0.86042519443E+01  0.26285043795E+02 -0.27908538445E+02  0.39291515585E+02  0.00000000000E+00 0. -1.
         11    1    1    2    0    0 -0.30690196358E+02 -0.15734792837E+02  0.54902160828E+02  0.64836094281E+02  0.00000000000E+00 0.  1.
</event>
<event>
 6    1  0.4988969E-006  0.4708201E+02  0.7561462E-02  0.1461747E+00
         -2   -1    0    0    0  501 -0.00000000000E+00  0.00000000000E+00  0.37388523853E+03  0.37388523853E+03  0.00000000000E+00 0.  1.
          2   -1    0    0  501    0  0.00000000000E+00 -0.00000000000E+00 -0.34550529237E+02  0.34550529237E+02  0.00000000000E+00 0. -1.
          5    1    1    2  502    0 -0.17471649145E+02  0.19973790109E+02 -0.12612376544E+01  0.26893752724E+02  0.41800000000E+01 0. -1.
         -5    1    1    2    0  502  0.20569941929E+02 -0.11526407350E+02  0.25519585190E+03  0.25631694404E+03  0.41800000000E+01 0. -1.
        -11    1    1    2    0    0 -0.89567095879E+00  0.17394427695E+02 -0.14094383482E+02  0.22405802530E+02  0.00000000000E+00 0.  1.
         11    1    1    2    0    0 -0.22026218248E+01 -0.25841810453E+02  0.99494478528E+02  0.10281926847E+03  0.00000000000E+00 0. -1.
</event>
<event>
 6    1  0.4988969E-006  0.1099003E+03  0.7561462E-02  0.1260755E+00
          2   -1    0    0  501    0  0.00000000000E+00  0.00000000000E+00  0.52662357433E+03  0.52662357433E+03  0.00000000000E+00 0. -1.
         -2   -1    0    0    0  501 -0.00000000000E+00 -0.00000000000E+00 -0.31137665269E+02  0.31137665269E+02  0.00000000000E+00 0.  1.
          5    1    1    2  502    0 -0.19351385141E+02  0.48388948611E+02  0.40367542724E+02  0.66052837638E+02  0.41800000000E+01 0. -1.
         -5    1    1    2    0  502  0.71494966177E+02 -0.72403486157E+01  0.20484093843E+03  0.21712032446E+03  0.41800000000E+01 0. -1.
        -11    1    1    2    0    0  0.98565807304E+01 -0.31229008849E+02  0.26374234096E+02  0.42047632532E+02  0.00000000000E+00 0.  1.
         11    1    1    2    0    0 -0.62000161766E+02 -0.99195911463E+01  0.22390319381E+03  0.23254044497E+03  0.00000000000E+00 0. -1.
</event>
<event>
 6    1  0.4988969E-006  0.9911816E+02  0.7561462E-02  0.1282161E+00
          1   -1    0    0  501    0  0.00000000000E+00  0.00000000000E+00  0.35805391591E+03  0.35805391591E+03  0.00000000000E+00 0. -1.
         -1   -1    0    0    0  501 -0.00000000000E+00 -0.00000000000E+00 -0.36946497983E+02  0.36946497983E+02  0.00000000000E+00 0.  1.
          5    1    1    2  502    0 -0.15379551680E+02 -0.33014831045E+02  0.12014611757E+03  0.12561477479E+03  0.41800000000E+01 0. -1.
         -5    1    1    2    0  502  0.24105946075E+01  0.71206321664E+02  0.40916252323E+02  0.82266416693E+02  0.41800000000E+01 0. -1.
        -11    1    1    2    0    0  0.47311573399E+02 -0.23945944959E+02  0.12601403188E+03  0.13671623710E+03  0.00000000000E+00 0. -1.
         11    1    1    2    0    0 -0.34342616327E+02 -0.14245545660E+02  0.34031016162E+02  0.50402985312E+02  0.00000000000E+00 0.  1.
</event>
<event>
 6    1  0.6390596E-006  0.9403160E+02  0.7561462E-02  0.1293372E+00
         -1   -1    0    0    0  501 -0.00000000000E+00  0.00000000000E+00  0.11085500240E+03  0.11085500240E+03  0.00000000000E+00 0.  1.
          1   -1    0    0  501    0  0.00000000000E+00 -0.00000000000E+00 -0.15416025948E+03  0.15416025948E+03  0.00000000000E+00 0. -1.
          5    1    1    2  502    0  0.54605836921E+02 -0.66930552012E+02  0.45397645451E+02  0.97672487584E+02  0.41800000000E+01 0.  1.
         -5    1    1    2    0  502 -0.72021973664E+01  0.25195800334E+02 -0.33759770494E+02  0.42940592744E+02  0.41800000000E+01 0.  1.
        -11    1    1    2    0    0 -0.31904635782E+02  0.15120945802E+01  0.20186653808E+02  0.37784827727E+02  0.00000000000E+00 0.  1.
         11    1    1    2    0    0 -0.15499003773E+02  0.40222657098E+02 -0.75129785844E+02  0.86617353820E+02  0.00000000000E+00 0. -1.
</event>
<event>
 6    1  0.4988969E-006  0.1626530E+03  0.7561462E-02  0.1185734E+00
          3   -1    0    0  501    0  0.00000000000E+00  0.00000000000E+00  0.36014881389E+03  0.36014881389E+03  0.00000000000E+00 0. -1.
         -3   -1    0    0    0  501 -0.00000000000E+00 -0.00000000000E+00 -0.17525388979E+03  0.17525388979E+03  0.00000000000E+00 0.  1.
          5    1    1    2  502    0  0.19933708620E+02 -0.16596004422E+02  0.12410141287E+02  0.29056223238E+02  0.41800000000E+01 0. -1.
         -5    1    1    2    0  502  0.27630804861E+02  0.12110835522E+03 -0.11498490720E+03  0.16932128149E+03  0.41800000000E+01 0. -1.
        -11    1    1    2    0    0 -0.27083753712E+02  0.28993203054E+02  0.82654248672E+02  0.91683479220E+02  0.00000000000E+00 0.  1.
         11    1    1    2    0    0 -0.20480759770E+02 -0.13350555385E+03  0.20481544134E+03  0.24534171973E+03  0.00000000000E+00 0. -1.
</event>
<event>
 6    1  0.4988969E-006  0.9739457E+02  0.7561462E-02  0.1285872E+00
         -4   -1    0    0    0  501 -0.00000000000E+00  0.00000000000E+00  0.17220666633E+03  0.17220666633E+03  0.00000000000E+00 0.  1.
          4   -1    0    0  501    0  0.00000000000E+00 -0.00000000000E+00 -0.10496913175E+03  0.10496913175E+03  0.00000000000E+00 0. -1.
          5    1    1    2  502    0 -0.17460321234E+02 -0.77851452387E+02  0.10972315867E+03  0.13572897776E+03  0.41800000000E+01 0. -1.
         -5    1    1    2    0  502 -0.21617289644E+01  0.18191300713E+02 -0.22409125358E+02  0.29244448927E+02  0.41800000000E+01 0. -1.
        -11    1    1    2    0    0 -0.15966460720E+02  0.58346252460E+02 -0.38901382452E+02  0.71920307290E+02  0.00000000000E+00 0. -1.
         11    1    1    2    0    0  0.35588510919E+02  0.13138992142E+01  0.18824883725E+02  0.40282064096E+02  0.00000000000E+00 0.  1.
</event>
<event>
 6    1  0.4988969E-006  0.1743546E+03  0.7561462E-02  0.1173381E+00
         -1   -1    0    0    0  501 -0.00000000000E+00  0.00000000000E+00  0.21365040760E+03  0.21365040760E+03  0.00000000000E+00 0.  1.
          1   -1    0    0  501    0  0.00000000000E+00 -0.00000000000E+00 -0.15923000711E+03  0.15923000711E+03  0.00000000000E+00 0. -1.
          5    1    1    2  502    0  0.12090511148E+03  0.10470834025E+02  0.18733619502E+02  0.12286620873E+03  0.41800000000E+01 0. -1.
         -5    1    1    2    0  502  0.14219274807E+02 -0.70041582943E+02  0.22050483745E+02  0.74911329921E+02  0.41800000000E+01 0. -1.
        -11    1    1    2    0    0 -0.66654488544E+00  0.13557713941E+02  0.29140203073E+02  0.32146653395E+02  0.00000000000E+00 0.  1.
         11    1    1    2    0    0 -0.13445784140E+03  0.46013034977E+02 -0.15503905834E+02  0.14295622267E+03  0.00000000000E+00 0. -1.
</event>
<event>
 6    1  0.4988969E-006  0.1158088E+03  0.7561462E-02  0.1250176E+00
         -1   -1    0    0    0  501 -0.00000000000E+00  0.00000000000E+00  0.63857097201E+03  0.63857097201E+03  0.00000000000E+00 0.  1.
          1   -1    0    0  501    0  0.00000000000E+00 -0.00000000000E+00 -0.23770861946E+02  0.23770861946E+02  0.00000000000E+00 0. -1.
          5    1    1    2  502    0  0.39808117660E+02  0.75127673727E+01  0.98366203748E+02  0.10646365739E+03  0.41800000000E+01 0. -1.
         -5    1    1    2    0  502 -0.93189403543E+02 -0.15075480238E+02  0.30225733163E+03  0.31668359913E+03  0.41800000000E+01 0. -1.
        -11    1    1    2    0    0  0.73690419487E+02 -0.25002559643E+01  0.19818249624E+03  0.21145408726E+03  0.00000000000E+00 0.  1.
         11    1    1    2    0    0 -0.20309133605E+02  0.10062968829E+02  0.15994078447E+02  0.27740490169E+02  0.00000000000E+00 0. -1.
</event>
<event>
 6    1  0.4988969E-006  0.1151754E+03  0.7561462E-02  0.1251275E+00
          1   -1    0    0  501    0  0.00000000000E+00  0.00000000000E+00  0.41087492921E+03  0.41087492921E+03  0.00000000000E+00 0.  1.
         -1   -1    0    0    0  501 -0.00000000000E+00 -0.00000000000E+00 -0.41358896564E+02  0.41358896564E+02  0.00000000000E+00 0. -1.
          5    1    1    2  502    0  0.63480982184E+02 -0.33030637038E+02  0.10602892058E+03  0.12798618082E+03  0.41800000000E+01 0.  1.
         -5    1    1    2    0  502 -0.60991021517E+02 -0.42273871324E+02  0.11161715132E+03  0.13410013337E+03  0.41800000000E+01 0.  1.
        -11    1    1    2    0    0  0.17223427940E+02  0.45065248808E+02  0.14575988785E+03  0.15353653646E+03  0.00000000000E+00 0.  1.
         11    1    1    2    0    0 -0.19713388606E+02  0.30239259554E+02  0.61100728989E+01  0.36610975124E+02  0.00000000000E+00 0. -1.
</event>
<event>
 6    1  0.4988969E-006  0.1357127E+03  0.7561462E-02  0.1219217E+00
          3   -1    0    0  501    0  0.00000000000E+00  0.00000000000E+00  0.36410940884E+03  0.36410940884E+03  0.00000000000E+00 0. -1.
         -3   -1    0    0    0  501 -0.00000000000E+00 -0.00000000000E+00 -0.56641758632E+02  0.56641758632E+02  0.00000000000E+00 0.  1.
          5    1    1    2  502    0  0.31266986238E+02  0.22136773067E+02  0.47619439401E+02  0.61259648702E+02  0.41800000000E+01 0.  1.
         -5    1    1    2    0  502 -0.20066739176E+02 -0.11457962125E+03  0.99493992708E+02  0.15312638770E+03  0.41800000000E+01 0.  1.
        -11    1    1    2    0    0 -0.59874637349E+01 -0.11208264677E+02 -0.27886817401E+01  0.13009675818E+02  0.00000000000E+00 0.  1.
         11    1    1    2    0    0 -0.52127833262E+01  0.10365111286E+03  0.16314289984E+03  0.19335545525E+03  0.00000000000E+00 0. -1.
</event>
<event>
 6    1  0.4988969E-006  0.1044177E+03  0.7561462E-02  0.1271271E+00
          1   -1    0    0  501    0  0.00000000000E+00  0.00000000000E+00  0.58280137560E+02  0.58280137560E+02  0.00000000000E+00 0. -1.
         -1   -1    0    0    0  501 -0.00000000000E+00 -0.00000000000E+00 -0.25481479107E+03  0.25481479107E+03  0.00000000000E+00 0.  1.
          5    1    1    2  502    0 -0.55130750067E+02  0.32217175988E+01 -0.48534307718E+02  0.73639870266E+02  0.41800000000E+01 0. -1.
         -5    1    1    2    0  502  0.59023697509E+02 -0.31468386321E+02 -0.12939560408E+03  0.14572148421E+03  0.41800000000E+01 0. -1.
        -11    1    1    2    0    0 -0.87925419974E+00  0.57258824991E+02 -0.27098806334E+02  0.63353701013E+02  0.00000000000E+00 0.  1.
         11    1    1    2    0    0 -0.30136932425E+01 -0.29012156269E+02  0.84940646196E+01  0.30379873142E+02  0.00000000000E+00 0. -1.
</event>
<event>
 6    1  0.4988969E-006  0.1250221E+03  0.7561462E-02  0.1235035E+00
         -2   -1    0    0    0  501 -0.00000000000E+00  0.00000000000E+00  0.98337744238E+02  0.98337744238E+02  0.00000000000E+00 0.  1.
          2   -1    0    0  501    0  0.00000000000E+00 -0.00000000000E+00 -0.20918782080E+03  0.20918782080E+03  0.00000000000E+00 0. -1.
          5    1    1    2  502    0  0.12973653220E+02 -0.42796812556E+02  0.32312968802E+01  0.45031061751E+02  0.41800000000E+01 0. -1.
         -5    1    1    2    0  502  0.25416539034E+02  0.90864124320E+02  0.11316142776E+02  0.95120013836E+02  0.41800000000E+01 0. -1.
        -11    1    1    2    0    0  0.12742404298E+02 -0.57322165020E+02 -0.61835658068E+02  0.85275131654E+02  0.00000000000E+00 0.  1.
         11    1    1    2    0    0 -0.51132596552E+02  0.92548532565E+01 -0.63561858149E+02  0.82099357794E+02  0.00000000000E+00 0. -1.
</event>
<event>
 6    1  0.4988969E-006  0.1144738E+03  0.7561462E-02  0.1252502E+00
         -2   -1    0    0    0  501 -0.00000000000E+00  0.00000000000E+00  0.31079268695E+02  0.31079268695E+02  0.00000000000E+00 0.  1.
          2   -1    0    0  501    0  0.00000000000E+00 -0.00000000000E+00 -0.45739843745E+03  0.45739843745E+03  0.00000000000E+00 0. -1.
          5    1    1    2  502    0  0.41953991438E+02 -0.41816903969E+02 -0.66150983591E+02  0.88894408627E+02  0.41800000000E+01 0. -1.
         -5    1    1    2    0  502 -0.65787049836E+02 -0.22153113571E+01 -0.18039696092E+03  0.19207649372E+03  0.41800000000E+01 0. -1.
        -11    1    1    2    0    0 -0.29833248117E+02  0.39849032259E+02 -0.83784415093E+02  0.97456637935E+02  0.00000000000E+00 0.  1.
         11    1    1    2    0    0  0.53666306515E+02  0.41831830674E+01 -0.95986809148E+02  0.11005016586E+03  0.00000000000E+00 0. -1.
</event>
<event>
 6    1  0.4988969E-006  0.2086320E+03  0.7561462E-02  0.1142654E+00
          2   -1    0    0  501    0  0.00000000000E+00  0.00000000000E+00  0.12815230606E+03  0.12815230606E+03  0.00000000000E+00 0. -1.
         -2   -1    0    0    0  501 -0.00000000000E+00 -0.00000000000E+00 -0.37036173685E+03  0.37036173685E+03  0.00000000000E+00 0.  1.
          5    1    1    2  502    0 -0.58968572121E+02 -0.26663385280E+02 -0.60479176053E+02  0.88675993079E+02  0.41800000000E+01 0.  1.
         -5    1    1    2    0  502 -0.98701932255E+02  0.12213436092E+03 -0.10824943221E+03  0.19077286369E+03  0.41800000000E+01 0.  1.
        -11    1    1    2    0    0  0.63467864776E+02 -0.33339168567E+01 -0.58616810155E+02  0.86459327395E+02  0.00000000000E+00 0.  1.
         11    1    1    2    0    0  0.94202639600E+02 -0.92137058788E+02 -0.14864012373E+02  0.13260585875E+03  0.00000000000E+00 0. -1.
</event>
<event>
 6    1  0.4988969E-006  0.1460312E+03  0.7561462E-02  0.1205436E+00
          1   -1    0    0  501    0  0.00000000000E+00  0.00000000000E+00  0.70266118285E+03  0.70266118285E+03  0.00000000000E+00 0. -1.
         -1   -1    0    0    0  501 -0.00000000000E+00 -0.00000000000E+00 -0.33702094179E+02  0.33702094179E+02  0.00000000000E+00 0.  1.
          5    1    1    2  502    0  0.70221078191E+01  0.27822009862E+02  0.45106780598E+02  0.53623393094E+02  0.41800000000E+01 0.  1.
         -5    1    1    2    0  502 -0.81951574928E+01 -0.13504939769E+03  0.26034481239E+03  0.29343209463E+03  0.41800000000E+01 0.  1.
        -11    1    1    2    0    0  0.34908207833E+02  0.63638863047E+02  0.27996353965E+03  0.28921976315E+03  0.00000000000E+00 0.  1.
         11    1    1    2    0    0 -0.33735158159E+02  0.43588524785E+02  0.83543956036E+02  0.10008802615E+03  0.00000000000E+00 0. -1.
</event>
<event>
 6    1  0.4988969E-006  0.3299016E+02  0.7561462E-02  0.1567209E+00
         -2   -1    0    0    0  501 -0.00000000000E+00  0.00000000000E+00  0.12271845893E+03  0.12271845893E+03  0.00000000000E+00 0.  1.
          2   -1    0    0  501    0  0.00000000000E+00 -0.00000000000E+00 -0.11885102931E+03  0.11885102931E+03  0.00000000000E+00 0. -1.
          5    1    1    2  502    0 -0.15768937140E+02  0.10106976236E+02  0.90373102953E+02  0.92388205332E+02  0.41800000000E+01 0. -1.
         -5    1    1    2    0  502 -0.10146940181E+02  0.36211540286E+01 -0.43016676293E+02  0.44541890293E+02  0.41800000000E+01 0. -1.
        -11    1    1    2    0    0  0.89525289365E+01  0.47624737690E+01  0.27519110518E+02  0.29327979379E+02  0.00000000000E+00 0.  1.
         11    1    1    2    0    0  0.16963348385E+02 -0.18490604034E+02 -0.71008107557E+02  0.75311413244E+02  0.00000000000E+00 0. -1.
</event>
<event>
 6    1  0.4988969E-006  0.2698618E+03  0.7561462E-02  0.1101359E+00
         -1   -1    0    0    0  501 -0.00000000000E+00  0.00000000000E+00  0.81226246328E+02  0.81226246328E+02  0.00000000000E+00 0.  1.
          1   -1    0    0  501    0  0.00000000000E+00 -0.00000000000E+00 -0.13487084872E+04  0.13487084872E+04  0.00000000000E+00 0. -1.
          5    1    1    2  502    0  0.18380514505E+03  0.51283513291E+02 -0.21126831505E+03  0.28472109761E+03  0.41800000000E+01 0.  1.
         -5    1    1    2    0  502  0.68250151222E+02 -0.45153312230E+02 -0.34400387751E+02  0.88869363814E+02  0.41800000000E+01 0.  1.
        -11    1    1    2    0    0 -0.12977239388E+03 -0.46935840361E+02 -0.57305919214E+03  0.58944099367E+03  0.00000000000E+00 0. -1.
         11    1    1    2    0    0 -0.12228290240E+03  0.40805639299E+02 -0.44875434592E+03  0.46690327842E+03  0.00000000000E+00 0.  1.
</event>
<event>
 6    1  0.4988969E-006  0.1616585E+03  0.7561462E-02  0.1186837E+00
          3   -1    0    0  501    0  0.00000000000E+00  0.00000000000E+00  0.73423516709E+02  0.73423516709E+02  0.00000000000E+00 0. -1.
         -3   -1    0    0    0  501 -0.00000000000E+00 -0.00000000000E+00 -0.47721681951E+03  0.47721681951E+03  0.00000000000E+00 0.  1.
          5    1    1    2  502    0  0.10987065311E+03  0.96160928292E+02 -0.32098889702E+03  0.35266106810E+03  0.41800000000E+01 0. -1.
         -5    1    1    2    0  502 -0.40643006309E+01 -0.14386087016E+02  0.14858144803E+01  0.15593526987E+02  0.41800000000E+01 0. -1.
        -11    1    1    2    0    0 -0.22617711898E+02  0.20060181495E+02 -0.14842179655E+02  0.33678807432E+02  0.00000000000E+00 0. -1.
         11    1    1    2    0    0 -0.83188640585E+02 -0.10183502277E+03 -0.69448040608E+02  0.14870693370E+03  0.00000000000E+00 0.  1.
</event>
<event>
 6    1  0.4988969E-006  0.2038132E+03  0.7561462E-02  0.1146561E+00
         -2   -1    0    0    0  501 -0.00000000000E+00  0.00000000000E+00  0.10148272549E+03  0.10148272549E+03  0.00000000000E+00 0. -1.
          2   -1    0    0  501    0  0.00000000000E+00 -0.00000000000E+00 -0.47557039232E+03  0.47557039232E+03  0.00000000000E+00 0.  1.
          5    1    1    2  502    0 -0.68244398929E+02 -0.62119986023E+02 -0.53780830212E+02  0.10689265993E+03  0.41800000000E+01 0. -1.
         -5    1    1    2    0  502  0.47415738886E+02 -0.10993736910E+03 -0.37571569384E+02  0.12555306704E+03  0.41800000000E+01 0. -1.
        -11    1    1    2    0    0 -0.33437841004E+02  0.36859127504E+02 -0.92031470198E+02  0.10462540800E+03  0.00000000000E+00 0.  1.
         11    1    1    2    0    0  0.54266501047E+02  0.13519822762E+03 -0.19070379703E+03  0.23998198284E+03  0.00000000000E+00 0. -1.
</event>
<event>
 6    1  0.4988969E-006  0.1841676E+03  0.7561462E-02  0.1163830E+00
         -1   -1    0    0    0  501 -0.00000000000E+00  0.00000000000E+00  0.61888537186E+02  0.61888537186E+02  0.00000000000E+00 0.  1.
          1   -1    0    0  501    0  0.00000000000E+00 -0.00000000000E+00 -0.76063863624E+03  0.76063863624E+03  0.00000000000E+00 0. -1.
          5    1    1    2  502    0 -0.20486126417E+02 -0.30421740423E+02 -0.53068322956E+02  0.64644280237E+02  0.41800000000E+01 0.  1.
         -5    1    1    2    0  502 -0.11105626517E+03  0.11428456065E+03 -0.11498171101E+03  0.19655208242E+03  0.41800000000E+01 0.  1.
        -11    1    1    2    0    0  0.75512056204E+02 -0.55479022069E+01 -0.14250496986E+03  0.16137074173E+03  0.00000000000E+00 0.  1.
         11    1    1    2    0    0  0.56030335385E+02 -0.78314918024E+02 -0.38819509522E+03  0.39996006904E+03  0.00000000000E+00 0. -1.
</event>
<event>
 6    1  0.4988969E-006  0.7490470E+02  0.7561462E-02  0.1344166E+00
          2   -1    0    0  501    0  0.00000000000E+00  0.00000000000E+00  0.60007164546E+02  0.60007164546E+02  0.00000000000E+00 0. -1.
         -2   -1    0    0    0  501 -0.00000000000E+00 -0.00000000000E+00 -0.61088780304E+03  0.61088780304E+03  0.00000000000E+00 0.  1.
          5    1    1    2  502    0  0.24716488109E+02  0.22191596327E+02 -0.45747905360E+02  0.56689637297E+02  0.41800000000E+01 0. -1.
         -5    1    1    2    0  502 -0.48795443848E+02 -0.42379149530E+02 -0.54505539502E+03  0.54888964619E+03  0.41800000000E+01 0.  1.
        -11    1    1    2    0    0  0.26476273678E+02 -0.44191411613E+01  0.18476146333E+02  0.32586651558E+02  0.00000000000E+00 0.  1.
         11    1    1    2    0    0 -0.23973179389E+01  0.24606694364E+02  0.21446515561E+02  0.32729032533E+02  0.00000000000E+00 0. -1.
</event>
<event>
 6    1  0.4988969E-006  0.1548475E+03  0.7561462E-02  0.1194640E+00
         -4   -1    0    0    0  501 -0.00000000000E+00  0.00000000000E+00  0.33924083199E+02  0.33924083199E+02  0.00000000000E+00 0. -1.
          4   -1    0    0  501    0  0.00000000000E+00 -0.00000000000E+00 -0.93408566328E+03  0.93408566328E+03  0.00000000000E+00 0.  1.
          5    1    1    2  502    0 -0.22051378289E+02 -0.48329290865E+02 -0.32223976495E+02  0.62272310870E+02  0.41800000000E+01 0. -1.
         -5    1    1    2    0  502  0.15353796228E+02 -0.89535806478E+02 -0.36970510640E+03  0.38072527865E+03  0.41800000000E+01 0. -1.
        -11    1    1    2    0    0  0.48315663341E+02  0.58659061883E+02 -0.22143830986E+03  0.23411581309E+03  0.00000000000E+00 0.  1.
         11    1    1    2    0    0 -0.41618081280E+02  0.79206035459E+02 -0.27679418732E+03  0.29089634387E+03  0.00000000000E+00 0. -1.
</event>
<event>
 6    1  0.4988969E-006  0.1032914E+03  0.7561462E-02  0.1273523E+00
          1   -1    0    0  501    0  0.00000000000E+00  0.00000000000E+00  0.14791759374E+03  0.14791759374E+03  0.00000000000E+00 0. -1.
         -1   -1    0    0    0  501 -0.00000000000E+00 -0.00000000000E+00 -0.21297172397E+03  0.21297172397E+03  0.00000000000E+00 0.  1.
          5    1    1    2  502    0  0.65277990107E+02 -0.16617220878E+02 -0.69687025223E+02  0.97010833965E+02  0.41800000000E+01 0. -1.
         -5    1    1    2    0  502 -0.41323573035E+02  0.23127789905E+02 -0.10726093255E+03  0.11732396348E+03  0.41800000000E+01 0.  1.
        -11    1    1    2    0    0  0.31431806768E+02 -0.16145182549E+02  0.62128232730E+02  0.71474070112E+02  0.00000000000E+00 0.  1.
         11    1    1    2    0    0 -0.55386223839E+02  0.96346135232E+01  0.49765594815E+02  0.75080450160E+02  0.00000000000E+00 0. -1.
</event>
<event>
 6    1  0.4988969E-006  0.1250754E+03  0.7561462E-02  0.1234952E+00
          1   -1    0    0  501    0  0.00000000000E+00  0.00000000000E+00  0.13716799610E+03  0.13716799610E+03  0.00000000000E+00 0. -1.
         -1   -1    0    0    0  501 -0.00000000000E+00 -0.00000000000E+00 -0.18497137229E+03  0.18497137229E+03  0.00000000000E+00 0.  1.
          5    1    1    2  502    0 -0.63222512302E+02  0.53757593610E+02 -0.84913841546E+02  0.11880571459E+03  0.41800000000E+01 0. -1.
         -5    1    1    2    0  502  0.65436066780E+02 -0.52990647663E+02 -0.27907683346E+02  0.88804272223E+02  0.41800000000E+01 0.  1.
        -11    1    1    2    0    0 -0.37005681295E+02  0.20171104759E+02  0.55355963557E+01  0.42508078554E+02  0.00000000000E+00 0. -1.
         11    1    1    2    0    0  0.34792126818E+02 -0.20938050706E+02  0.59482552342E+02  0.72021303022E+02  0.00000000000E+00 0.  1.
</event>
<event>
 6    1  0.4988969E-006  0.1187168E+03  0.7561462E-02  0.1245229E+00
         -2   -1    0    0    0  501 -0.00000000000E+00  0.00000000000E+00  0.52176595446E+02  0.52176595446E+02  0.00000000000E+00 0.  1.
          2   -1    0    0  501    0  0.00000000000E+00 -0.00000000000E+00 -0.41305340310E+03  0.41305340310E+03  0.00000000000E+00 0. -1.
          5    1    1    2  502    0  0.37564834750E+02  0.26303459360E+02  0.69703948521E+00  0.46053740870E+02  0.41800000000E+01 0. -1.
         -5    1    1    2    0  502  0.57644547344E+02  0.13440672464E+01 -0.20621570072E+03  0.21416602900E+03  0.41800000000E+01 0. -1.
        -11    1    1    2    0    0 -0.27354590269E+02  0.32792641569E+02 -0.54860691753E+02  0.69522129207E+02  0.00000000000E+00 0. -1.
         11    1    1    2    0    0 -0.67854791826E+02 -0.60440168175E+02 -0.10049745467E+03  0.13548809947E+03  0.00000000000E+00 0.  1.
</event>
<event>
 6    1  0.4988969E-006  0.1292431E+03  0.7561462E-02  0.1228583E+00
          2   -1    0    0  501    0  0.00000000000E+00  0.00000000000E+00  0.20931801903E+03  0.20931801903E+03  0.00000000000E+00 0. -1.
         -2   -1    0    0    0  501 -0.00000000000E+00 -0.00000000000E+00 -0.18544483468E+03  0.18544483468E+03  0.00000000000E+00 0.  1.
          5    1    1    2  502    0 -0.25918814145E+02  0.22229145731E+02 -0.47765997792E+02  0.58864104441E+02  0.41800000000E+01 0. -1.
         -5    1    1    2    0  502  0.29946805220E+02 -0.11207600304E+03 -0.75870042462E+02  0.13867796272E+03  0.41800000000E+01 0. -1.
        -11    1    1    2    0    0  0.17015870058E+02  0.84627397999E+02  0.55343016402E+02  0.10253870387E+03  0.00000000000E+00 0.  1.
         11    1    1    2    0    0 -0.21043861133E+02  0.52194593141E+01  0.92166208200E+02  0.94682082681E+02  0.00000000000E+00 0. -1.
</event>
<event>
 6    1  0.4988969E-006  0.1294155E+03  0.7561462E-02  0.1228326E+00
          1   -1    0    0  501    0  0.00000000000E+00  0.00000000000E+00  0.84656818723E+02  0.84656818723E+02  0.00000000000E+00 0. -1.
         -1   -1    0    0    0  501 -0.00000000000E+00 -0.00000000000E+00 -0.23676347514E+03  0.23676347514E+03  0.00000000000E+00 0.  1.
          5    1    1    2  502    0 -0.17437769293E+02  0.46348727006E+02 -0.49355751233E+02  0.70041008507E+02  0.41800000000E+01 0.  1.
         -5    1    1    2    0  502  0.98911130471E+02 -0.59319200260E+01 -0.28982535568E+02  0.10332501718E+03  0.41800000000E+01 0.  1.
        -11    1    1    2    0    0 -0.73806436328E+02 -0.55962495912E+02 -0.24476285742E+02  0.95803337916E+02  0.00000000000E+00 0.  1.
         11    1    1    2    0    0 -0.76669248509E+01  0.15545688932E+02 -0.49292083874E+02  0.52250930267E+02  0.00000000000E+00 0. -1.
</event>
<event>
 6    1  0.4988969E-006  0.1182121E+03  0.7561462E-02  0.1246076E+00
         -4   -1    0    0    0  501 -0.00000000000E+00  0.00000000000E+00  0.24298201601E+02  0.24298201601E+02  0.00000000000E+00 0.  1.
          4   -1    0    0  501    0  0.00000000000E+00 -0.00000000000E+00 -0.83536473245E+03  0.83536473245E+03  0.00000000000E+00 0. -1.
          5    1    1    2  502    0 -0.17175043928E+02  0.44634088039E+02 -0.52649514699E+02  0.71250457872E+02  0.41800000000E+01 0.  1.
         -5    1    1    2    0  502 -0.71574212241E+02 -0.21609139719E+02 -0.40764621686E+03  0.41446680603E+03  0.41800000000E+01 0.  1.
        -11    1    1    2    0    0  0.28731354864E+02 -0.41735330544E+02 -0.71168647805E+02  0.87363064269E+02  0.00000000000E+00 0.  1.
         11    1    1    2    0    0  0.60017901306E+02  0.18710382224E+02 -0.27960215149E+03  0.28658260588E+03  0.00000000000E+00 0. -1.
</event>
<event>
 6    1  0.4988969E-006  0.1160517E+03  0.7561462E-02  0.1249756E+00
          1   -1    0    0  501    0  0.00000000000E+00  0.00000000000E+00  0.21615393015E+03  0.21615393015E+03  0.00000000000E+00 0. -1.
         -1   -1    0    0    0  501 -0.00000000000E+00 -0.00000000000E+00 -0.80760865040E+02  0.80760865040E+02  0.00000000000E+00 0.  1.
          5    1    1    2  502    0 -0.48402219713E+02 -0.31639921008E+01  0.38402761930E+01  0.48836521583E+02  0.41800000000E+01 0. -1.
         -5    1    1    2    0  502  0.73811882820E+02  0.38450132737E+02  0.16524656300E+01  0.83347524232E+02  0.41800000000E+01 0. -1.
        -11    1    1    2    0    0 -0.54150749422E+02 -0.44302927090E+02  0.78494387838E+02  0.10514952179E+03  0.00000000000E+00 0.  1.
         11    1    1    2    0    0  0.28741086315E+02  0.90167864532E+01  0.51405935451E+02  0.59581227581E+02  0.00000000000E+00 0. -1.
</event>
<event>
 6    1  0.4988969E-006  0.1285666E+03  0.7561462E-02  0.1229598E+00
         -2   -1    0    0    0  501 -0.00000000000E+00  0.00000000000E+00  0.40888581919E+02  0.40888581919E+02  0.00000000000E+00 0.  1.
          2   -1    0    0  501    0  0.00000000000E+00 -0.00000000000E+00 -0.57218744816E+03  0.57218744816E+03  0.00000000000E+00 0. -1.
          5    1    1    2  502    0  0.47225435933E+02 -0.48241561699E+02 -0.24032449700E+03  0.24966142339E+03  0.41800000000E+01 0.  1.
         -5    1    1    2    0  502 -0.35742440641E+02 -0.58709806958E+02 -0.53077110423E+02  0.86942599149E+02  0.41800000000E+01 0.  1.
        -11    1    1    2    0    0  0.22021841688E+02  0.36665428385E+02 -0.24448771485E+02  0.49265176110E+02  0.00000000000E+00 0.  1.
         11    1    1    2    0    0 -0.33504836980E+02  0.70285940272E+02 -0.21344848734E+03  0.22720683143E+03  0.00000000000E+00 0. -1.
</event>
<event>
 6    1  0.4988969E-006  0.1101811E+03  0.7561462E-02  0.1260235E+00
         -3   -1    0    0    0  501 -0.00000000000E+00  0.00000000000E+00  0.81616702353E+02  0.81616702353E+02  0.00000000000E+00 0.  1.
          3   -1    0    0  501    0  0.00000000000E+00 -0.00000000000E+00 -0.16131544680E+03  0.16131544680E+03  0.00000000000E+00 0. -1.
          5    1    1    2  502    0  0.64116124099E+02  0.40064613384E+02 -0.24245097156E+02  0.79506903795E+02  0.41800000000E+01 0.  1.
         -5    1    1    2    0  502 -0.52561684413E+02 -0.89921315134E+01 -0.23601521540E+02  0.58464461997E+02  0.41800000000E+01 0.  1.
        -11    1    1    2    0    0  0.20521277360E+02  0.21402730322E+02 -0.31771986719E+02  0.43458702578E+02  0.00000000000E+00 0. -1.
         11    1    1    2    0    0 -0.32075717045E+02 -0.52475212193E+02 -0.80139034501E-01  0.61502080785E+02  0.00000000000E+00 0.  1.
</event>
<event>
 6    1  0.4988969E-006  0.1449997E+03  0.7561462E-02  0.1206756E+00
          2   -1    0    0  501    0  0.00000000000E+00  0.00000000000E+00  0.72014033495E+03  0.72014033495E+03  0.00000000000E+00 0.  1.
         -2   -1    0    0    0  501 -0.00000000000E+00 -0.00000000000E+00 -0.46352676799E+02  0.46352676799E+02  0.00000000000E+00 0. -1.
          5    1    1    2  502    0  0.69239216439E+01 -0.55879714937E+02  0.99412360348E+02  0.11432748148E+03  0.41800000000E+01 0. -1.
         -5    1    1    2    0  502  0.83449913365E+02  0.25355557166E+02  0.40664639147E+02  0.96321740001E+02  0.41800000000E+01 0. -1.
        -11    1    1    2    0    0 -0.10354882784E+02  0.60043681719E+02  0.13500452452E+03  0.14811714605E+03  0.00000000000E+00 0. -1.
         11    1    1    2    0    0 -0.80018952224E+02 -0.29519523948E+02  0.39870613414E+03  0.40772664422E+03  0.00000000000E+00 0.  1.
</event>
<event>
 6    1  0.4988969E-006  0.1174619E+03  0.7561462E-02  0.1247344E+00
          1   -1    0    0  501    0  0.00000000000E+00  0.00000000000E+00  0.13072360550E+03  0.13072360550E+03  0.00000000000E+00 0. -1.
         -1   -1    0    0    0  501 -0.00000000000E+00 -0.00000000000E+00 -0.21896493078E+03  0.21896493078E+03  0.00000000000E+00 0.  1.
          5    1    1    2  502    0  0.41796710083E+02  0.33935567566E+02 -0.47407314296E+02  0.71857592282E+02  0.41800000000E+01 0. -1.
         -5    1    1    2    0  502 -0.77924002135E+02  0.24064467237E+01 -0.12264815306E+03  0.14538907436E+03  0.41800000000E+01 0. -1.
        -11    1    1    2    0    0  0.16915581665E+02 -0.65656871382E+02  0.43708547226E+02  0.80668449615E+02  0.00000000000E+00 0.  1.
         11    1    1    2    0    0  0.19211710386E+02  0.29314857092E+02  0.38105594844E+02  0.51773420021E+02  0.00000000000E+00 0. -1.
</event>
<event>
 6    1  0.4988969E-006  0.1280467E+03  0.7561462E-02  0.1230383E+00
         -1   -1    0    0    0  501 -0.00000000000E+00  0.00000000000E+00  0.24836898415E+03  0.24836898415E+03  0.00000000000E+00 0.  1.
          1   -1    0    0  501    0  0.00000000000E+00 -0.00000000000E+00 -0.79352491474E+02  0.79352491474E+02  0.00000000000E+00 0. -1.
          5    1    1    2  502    0 -0.98122138127E+02  0.18206087417E+02  0.10628872791E+03  0.14585671630E+03  0.41800000000E+01 0. -1.
         -5    1    1    2    0  502  0.14483733299E+02 -0.43409733036E+02  0.12838716343E+02  0.47712561133E+02  0.41800000000E+01 0. -1.
        -11    1    1    2    0    0  0.53807831650E+02 -0.18883575996E+02  0.56785215901E+02  0.80476288024E+02  0.00000000000E+00 0.  1.
         11    1    1    2    0    0  0.29830573177E+02  0.44087221616E+02 -0.68961674800E+01  0.53675910163E+02  0.00000000000E+00 0. -1.
</event>
<event>
 6    1  0.4988969E-006  0.1199674E+03  0.7561462E-02  0.1243151E+00
         -1   -1    0    0    0  501 -0.00000000000E+00  0.00000000000E+00  0.11411076756E+03  0.11411076756E+03  0.00000000000E+00 0.  1.
          1   -1    0    0  501    0  0.00000000000E+00 -0.00000000000E+00 -0.19614676377E+03  0.19614676377E+03  0.00000000000E+00 0. -1.
          5    1    1    2  502    0 -0.67644993684E+02 -0.70263059382E+02 -0.15545103849E+02  0.98852745727E+02  0.41800000000E+01 0. -1.
         -5    1    1    2    0  502  0.27632803379E+01  0.18989862534E+02  0.42078345664E+02  0.46436086948E+02  0.41800000000E+01 0.  1.
        -11    1    1    2    0    0  0.88132766505E+02  0.38932357758E+02 -0.73833822265E+02  0.12138593956E+03  0.00000000000E+00 0.  1.
         11    1    1    2    0    0 -0.23251053159E+02  0.12340839089E+02 -0.34735415754E+02  0.43582759092E+02  0.00000000000E+00 0. -1.
</event>
<event>
 6    1  0.4988969E-006  0.1009741E+03  0.7561462E-02  0.1278261E+00
          1   -1    0    0  501    0  0.00000000000E+00  0.00000000000E+00  0.53531882300E+03  0.53531882300E+03  0.00000000000E+00 0.  1.
         -1   -1    0    0    0  501 -0.00000000000E+00 -0.00000000000E+00 -0.25644912250E+02  0.25644912250E+02  0.00000000000E+00 0. -1.
          5    1    1    2  502    0  0.45498381451E+02 -0.44625528096E+01  0.10309627678E+03  0.11285535778E+03  0.41800000000E+01 0. -1.
         -5    1    1    2    0  502 -0.83941742161E+02  0.28113194128E+01  0.14378893533E+03  0.16657385724E+03  0.41800000000E+01 0. -1.
        -11    1    1    2    0    0 -0.12683975853E+02 -0.13597573895E+02  0.64186592398E+01  0.19671716898E+02  0.00000000000E+00 0. -1.
         11    1    1    2    0    0  0.51127336564E+02  0.15248807292E+02  0.25637003940E+03  0.26186280333E+03  0.00000000000E+00 0.  1.
</event>
<event>
 6    1  0.4988969E-006  0.9185216E+02  0.7561462E-02  0.1298427E+00
          1   -1    0    0  501    0  0.00000000000E+00  0.00000000000E+00  0.32929372950E+03  0.32929372950E+03  0.00000000000E+00 0. -1.
         -1   -1    0    0    0  501 -0.00000000000E+00 -0.00000000000E+00 -0.45886294419E+02  0.45886294419E+02  0.00000000000E+00 0.  1.
          5    1    1    2  502    0  0.78597255387E+01 -0.49888190301E+02  0.61988792604E+02  0.80066782285E+02  0.41800000000E+01 0. -1.
         -5    1    1    2    0  502 -0.42168969728E+00  0.54498494754E+02 -0.45193167366E+00  0.54662056263E+02  0.41800000000E+01 0.  1.
        -11    1    1    2    0    0  0.20272094525E+02 -0.32979040121E+02  0.17416468051E+03  0.17841499612E+03  0.00000000000E+00 0. -1.
         11    1    1    2    0    0 -0.27710130366E+02  0.28368735668E+02  0.47705893635E+02  0.62036189243E+02  0.00000000000E+00 0.  1.
</event>
<event>
 6    1  0.4988969E-006  0.1043521E+03  0.7561462E-02  0.1271401E+00
         -1   -1    0    0    0  501 -0.00000000000E+00  0.00000000000E+00  0.18672565495E+02  0.18672565495E+02  0.00000000000E+00 0.  1.
          1   -1    0    0  501    0  0.00000000000E+00 -0.00000000000E+00 -0.74918837368E+03  0.74918837368E+03  0.00000000000E+00 0. -1.
          5    1    1    2  502    0 -0.37883761807E+02 -0.38307644961E+02 -0.25218701233E+03  0.25791164506E+03  0.41800000000E+01 0. -1.
         -5    1    1    2    0  502  0.55820547983E+02  0.59970296314E+01 -0.71040713488E+02  0.90642999258E+02  0.41800000000E+01 0. -1.
        -11    1    1    2    0    0  0.12630478605E+02 -0.28020756358E+02 -0.97870197400E+02  0.10258297771E+03  0.00000000000E+00 0.  1.
         11    1    1    2    0    0 -0.30567264781E+02  0.60331371687E+02 -0.30941788497E+03  0.31672331715E+03  0.00000000000E+00 0. -1.
</event>
<event>
 6    1  0.4988969E-006  0.1092414E+03  0.7561462E-02  0.1261981E+00
          1   -1    0    0  501    0  0.00000000000E+00  0.00000000000E+00  0.12672987475E+03  0.12672987475E+03  0.00000000000E+00 0. -1.
         -1   -1    0    0    0  501 -0.00000000000E+00 -0.00000000000E+00 -0.10758955077E+03  0.10758955077E+03  0.00000000000E+00 0.  1.
          5    1    1    2  502    0  0.29779560094E+01  0.47345829233E+02  0.17855407640E+02  0.50860434030E+02  0.41800000000E+01 0. -1.
         -5    1    1    2    0  502  0.20462849319E+02 -0.68997827988E+02 -0.32458862250E+02  0.79059968428E+02  0.41800000000E+01 0. -1.
        -11    1    1    2    0    0  0.35670789768E+02 -0.41674640253E+00  0.11055961455E+02  0.37347198073E+02  0.00000000000E+00 0. -1.
         11    1    1    2    0    0 -0.59111595096E+02  0.22068745157E+02  0.22687817143E+02  0.67051824989E+02  0.00000000000E+00 0.  1.
</event>
<event>
 6    1  0.4988969E-006  0.1060823E+03  0.7561462E-02  0.1268002E+00
          2   -1    0    0  501    0  0.00000000000E+00  0.00000000000E+00  0.13572652969E+03  0.13572652969E+03  0.00000000000E+00 0.  1.
         -2   -1    0    0    0  501 -0.00000000000E+00 -0.00000000000E+00 -0.12203334728E+03  0.12203334728E+03  0.00000000000E+00 0. -1.
          5    1    1    2  502    0 -0.40910803422E+02 -0.82598107061E+02 -0.28663065151E+01  0.92313754336E+02  0.41800000000E+01 0. -1.
         -5    1    1    2    0  502 -0.16578905396E+02  0.45641176714E+02  0.13774757921E+02  0.50647739059E+02  0.41800000000E+01 0. -1.
        -11    1    1    2    0    0  0.15110160364E+02  0.28399189564E+00  0.43157270780E+02  0.45726880702E+02  0.00000000000E+00 0.  1.
         11    1    1    2    0    0  0.42379548454E+02  0.36672938451E+02 -0.40372539777E+02  0.69071502878E+02  0.00000000000E+00 0. -1.
</event>
<event>
 6    1  0.4988969E-006  0.1057582E+03  0.7561462E-02  0.1268633E+00
          2   -1    0    0  501    0  0.00000000000E+00  0.00000000000E+00  0.86128783079E+03  0.86128783079E+03  0.00000000000E+00 0. -1.
         -2   -1    0    0    0  501 -0.00000000000E+00 -0.00000000000E+00 -0.17024193865E+02  0.17024193865E+02  0.00000000000E+00 0.  1.
          5    1    1    2  502    0  0.33250793079E+02 -0.35037147452E+01  0.44005328560E+02  0.55424115682E+02  0.41800000000E+01 0.  1.
         -5    1    1    2    0  502 -0.72248926884E+02  0.39604001685E+02  0.42223982909E+03  0.43022358147E+03  0.41800000000E+01 0.  1.
        -11    1    1    2    0    0  0.62771746951E+02 -0.17578723012E+02  0.32679479442E+03  0.33323286359E+03  0.00000000000E+00 0. -1.
         11    1    1    2    0    0 -0.23773613145E+02 -0.18521563927E+02  0.51223684862E+02  0.59431463915E+02  0.00000000000E+00 0.  1.
</event>
<event>
 6    1  0.4988969E-006  0.1433372E+03  0.7561462E-02  0.1208908E+00
         -2   -1    0    0    0  501 -0.00000000000E+00  0.00000000000E+00  0.26483377974E+03  0.26483377974E+03  0.00000000000E+00 0.  1.
          2   -1    0    0  501    0  0.00000000000E+00 -0.00000000000E+00 -0.10406558170E+03  0.10406558170E+03  0.00000000000E+00 0. -1.
          5    1    1    2  502    0  0.65602040983E+02  0.37450063220E+02  0.11302683585E+03  0.13600982699E+03  0.41800000000E+01 0. -1.
         -5    1    1    2    0  502  0.61491709505E+02 -0.22641876587E+02 -0.15944505003E+02  0.67569109458E+02  0.41800000000E+01 0. -1.
        -11    1    1    2    0    0 -0.77520907679E+02  0.25350867561E+02  0.60302575981E+02  0.10143253070E+03  0.00000000000E+00 0. -1.
         11    1    1    2    0    0 -0.49572842809E+02 -0.40159054195E+02  0.33832912152E+01  0.63887894294E+02  0.00000000000E+00 0.  1.
</event>
<event>
 6    1  0.4988969E-006  0.1227344E+03  0.7561462E-02  0.1238653E+00
         -2   -1    0    0    0  501 -0.00000000000E+00  0.00000000000E+00  0.24116296847E+02  0.24116296847E+02  0.00000000000E+00 0.  1.
          2   -1    0    0  501    0  0.00000000000E+00 -0.00000000000E+00 -0.64118776784E+03  0.64118776784E+03  0.00000000000E+00 0. -1.
          5    1    1    2  502    0 -0.64009982200E+02  0.23576695989E+02 -0.12942909966E+03  0.14636428066E+03  0.41800000000E+01 0. -1.
         -5    1    1    2    0  502  0.59111764264E+02  0.32907963501E+02 -0.17219133766E+03  0.18505259766E+03  0.41800000000E+01 0. -1.
        -11    1    1    2    0    0  0.39686184185E+02  0.36683713361E+01 -0.12078368437E+03  0.12718942006E+03  0.00000000000E+00 0. -1.
         11    1    1    2    0    0 -0.34787966249E+02 -0.60153030827E+02 -0.19466734931E+03  0.20669776632E+03  0.00000000000E+00 0.  1.
</event>
<event>
 6    1  0.4988969E-006  0.1430797E+03  0.7561462E-02  0.1209244E+00
         -2   -1    0    0    0  501 -0.00000000000E+00  0.00000000000E+00  0.48812587804E+03  0.48812587804E+03  0.00000000000E+00 0.  1.
          2   -1    0    0  501    0  0.00000000000E+00 -0.00000000000E+00 -0.85998716131E+02  0.85998716131E+02  0.00000000000E+00 0. -1.
          5    1    1    2  502    0  0.35174596468E+02  0.13244606545E+03  0.36093023343E+03  0.38609237016E+03  0.41800000000E+01 0.  1.
         -5    1    1    2    0  502  0.15253785291E+02 -0.22246152668E+02  0.23753872015E+02  0.36184086419E+02  0.41800000000E+01 0.  1.
        -11    1    1    2    0    0 -0.44905362205E+01 -0.20477534151E+02  0.43018969764E+02  0.47855261780E+02  0.00000000000E+00 0.  1.
         11    1    1    2    0    0 -0.45937845538E+02 -0.89722378625E+02 -0.25575913302E+02  0.10399287581E+03  0.00000000000E+00 0. -1.
</event>
<event>
 6    1  0.4988969E-006  0.1001674E+03  0.7561462E-02  0.1279944E+00
         -2   -1    0    0    0  501 -0.00000000000E+00  0.00000000000E+00  0.77343400183E+03  0.77343400183E+03  0.00000000000E+00 0.  1.
          2   -1    0    0  501    0  0.00000000000E+00 -0.00000000000E+00 -0.15964682313E+02  0.15964682313E+02  0.00000000000E+00 0. -1.
          5    1    1    2  502    0  0.17156137134E+02  0.64053856408E+02  0.21738925438E+03  0.22731649716E+03  0.41800000000E+01 0. -1.
         -5    1    1    2    0  502 -0.24037427610E+02 -0.52936953879E+02  0.24925508810E+03  0.25597986319E+03  0.41800000000E+01 0. -1.
        -11    1    1    2    0    0 -0.20954241240E+02  0.23301204920E+02  0.37184953106E+02  0.48628665560E+02  0.00000000000E+00 0. -1.
         11    1    1    2    0    0  0.27835531716E+02 -0.34418107450E+02  0.25364002393E+03  0.25747365823E+03  0.00000000000E+00 0.  1.
</event>
<event>
 6    1  0.4988969E-006  0.2455269E+03  0.7561462E-02  0.1116165E+00
          3   -1    0    0  501    0  0.00000000000E+00  0.00000000000E+00  0.44552568946E+02  0.44552568946E+02  0.00000000000E+00 0. -1.
         -3   -1    0    0    0  501 -0.00000000000E+00 -0.00000000000E+00 -0.15423812036E+04  0.15423812036E+04  0.00000000000E+00 0.  1.
          5    1    1    2  502    0  0.10935515576E+02  0.79505225426E+02 -0.11980868174E+03  0.14426454517E+03  0.41800000000E+01 0. -1.
         -5    1    1    2    0  502  0.66356579325E+02  0.14618013371E+03 -0.71969178983E+03  0.73739105762E+03  0.41800000000E+01 0. -1.
        -11    1    1    2    0    0 -0.62236094886E+02 -0.69906982027E+02 -0.19649878946E+03  0.21765130806E+03  0.00000000000E+00 0.  1.
         11    1    1    2    0    0 -0.15056000015E+02 -0.15577837710E+03 -0.46182937365E+03  0.48762686173E+03  0.00000000000E+00 0. -1.
</event>
<event>
 6    1  0.4988969E-006  0.1179888E+03  0.7561462E-02  0.1246452E+00
         -2   -1    0    0    0  501 -0.00000000000E+00  0.00000000000E+00  0.33710212016E+03  0.33710212016E+03  0.00000000000E+00 0.  1.
          2   -1    0    0  501    0  0.00000000000E+00 -0.00000000000E+00 -0.43017571470E+02  0.43017571470E+02  0.00000000000E+00 0. -1.
          5    1    1    2  502    0 -0.17297930381E+02 -0.85829763337E+02  0.10481153704E+03  0.13663417350E+03  0.41800000000E+01 0.  1.
         -5    1    1    2    0  502  0.24561986082E+02  0.36891711027E+02  0.85833942776E+02  0.96691404144E+02  0.41800000000E+01 0.  1.
        -11    1    1    2    0    0 -0.30776908351E+02 -0.16038667625E+02  0.40393462197E+02  0.53254940945E+02  0.00000000000E+00 0. -1.
         11    1    1    2    0    0  0.23512852650E+02  0.64976719934E+02  0.63045606675E+02  0.93539173046E+02  0.00000000000E+00 0.  1.
</event>
<event>
 6    1  0.4988969E-006  0.9728467E+02  0.7561462E-02  0.1286112E+00
          1   -1    0    0  501    0  0.00000000000E+00  0.00000000000E+00  0.40839665724E+02  0.40839665724E+02  0.00000000000E+00 0. -1.
         -1   -1    0    0    0  501 -0.00000000000E+00 -0.00000000000E+00 -0.37140732494E+03  0.37140732494E+03  0.00000000000E+00 0.  1.
          5    1    1    2  502    0 -0.10782184972E+02 -0.55272044021E+02 -0.17580691835E+03  0.18465318655E+03  0.41800000000E+01 0. -1.
         -5    1    1    2    0  502 -0.23319105288E+02  0.60341797767E+02 -0.87586818084E+02  0.10896713418E+03  0.41800000000E+01 0. -1.
        -11    1    1    2    0    0 -0.18336296115E+02  0.67185795570E+01 -0.61565585850E+02  0.64588547185E+02  0.00000000000E+00 0.  1.
         11    1    1    2    0    0  0.52437586375E+02 -0.11788333302E+02 -0.56083369297E+01  0.54038122747E+02  0.00000000000E+00 0. -1.
</event>
<event>
 6    1  0.4988969E-006  0.9713894E+02  0.7561462E-02  0.1286430E+00
          1   -1    0    0  501    0  0.00000000000E+00  0.00000000000E+00  0.78502739550E+02  0.78502739550E+02  0.00000000000E+00 0. -1.
         -1   -1    0    0    0  501 -0.00000000000E+00 -0.00000000000E+00 -0.23554590039E+03  0.23554590039E+03  0.00000000000E+00 0.  1.
          5    1    1    2  502    0 -0.18332718792E+02  0.44229795845E+01 -0.13615480380E+03  0.13751819634E+03  0.41800000000E+01 0.  1.
         -5    1    1    2    0  502 -0.18198755830E+02 -0.59243123911E+02 -0.50882622499E+01  0.62324194799E+02  0.41800000000E+01 0.  1.
        -11    1    1    2    0    0  0.58901689364E+02  0.60774558750E+01 -0.44042495031E+01  0.59377957977E+02  0.00000000000E+00 0.  1.
         11    1    1    2    0    0 -0.22370214741E+02  0.48742688452E+02 -0.11395845289E+02  0.54828290826E+02  0.00000000000E+00 0. -1.
</event>
<event>
 6    1  0.4988969E-006  0.7961645E+02  0.7561462E-02  0.1330143E+00
         -1   -1    0    0    0  501 -0.00000000000E+00  0.00000000000E+00  0.13162320671E+03  0.13162320671E+03  0.00000000000E+00 0.  1.
          1   -1    0    0  501    0  0.00000000000E+00 -0.00000000000E+00 -0.96604542241E+02  0.96604542241E+02  0.00000000000E+00 0. -1.
          5    1    1    2  502    0  0.24227647530E+02  0.78404728295E+01  0.71168847663E+02  0.75702900848E+02  0.41800000000E+01 0.  1.
         -5    1    1    2    0  502 -0.41231271752E+02 -0.20454335205E+02 -0.32991814100E+02  0.56783182339E+02  0.41800000000E+01 0.  1.
        -11    1    1    2    0    0  0.21549712188E+02 -0.34066744682E+02  0.18172552044E+02  0.44217358994E+02  0.00000000000E+00 0.  1.
         11    1    1    2    0    0 -0.45460879662E+01  0.46680607058E+02 -0.21330921142E+02  0.51524306767E+02  0.00000000000E+00 0. -1.
</event>
<event>
 6    1  0.4988969E-006  0.1163988E+03  0.7561462E-02  0.1249159E+00
          2   -1    0    0  501    0  0.00000000000E+00  0.00000000000E+00  0.41450885495E+03  0.41450885495E+03  0.00000000000E+00 0. -1.
         -2   -1    0    0    0  501 -0.00000000000E+00 -0.00000000000E+00 -0.42244062160E+02  0.42244062160E+02  0.00000000000E+00 0.  1.
          5    1    1    2  502    0  0.25309064009E+01 -0.31726862133E+02  0.53756738180E+01  0.32547957494E+02  0.41800000000E+01 0. -1.
         -5    1    1    2    0  502  0.39937770038E+02  0.88337380955E+02  0.15437760862E+03  0.18234153886E+03  0.41800000000E+01 0. -1.
        -11    1    1    2    0    0 -0.29882873594E+01 -0.63511448137E+02  0.73476667639E+02  0.97167147705E+02  0.00000000000E+00 0. -1.
         11    1    1    2    0    0 -0.39480389080E+02  0.69009293148E+01  0.13903484271E+03  0.14469627305E+03  0.00000000000E+00 0.  1.
</event>
<event>
 6    1  0.4988969E-006  0.2168346E+03  0.7561462E-02  0.1136265E+00
         -2   -1    0    0    0  501 -0.00000000000E+00  0.00000000000E+00  0.39836775867E+03  0.39836775867E+03  0.00000000000E+00 0.  1.
          2   -1    0    0  501    0  0.00000000000E+00 -0.00000000000E+00 -0.12116610504E+03  0.12116610504E+03  0.00000000000E+00 0. -1.
          5    1    1    2  502    0 -0.42339392803E+02 -0.87390583193E+02  0.42755927013E+02  0.10618512094E+03  0.41800000000E+01 0.  1.
         -5    1    1    2    0  502  0.85959314021E+02 -0.94573438210E+02  0.59222336708E+02  0.14091804869E+03  0.41800000000E+01 0.  1.
        -11    1    1    2    0    0  0.28027012800E+02  0.72987431012E+02  0.65862452335E+02  0.10222788837E+03  0.00000000000E+00 0.  1.
         11    1    1    2    0    0 -0.71646934019E+02  0.10897659039E+03  0.10936093757E+03  0.17020280572E+03  0.00000000000E+00 0. -1.
</event>
<event>
 6    1  0.4988969E-006  0.8246466E+02  0.7561462E-02  0.1322199E+00
         -1   -1    0    0    0  501 -0.00000000000E+00  0.00000000000E+00  0.17417785492E+03  0.17417785492E+03  0.00000000000E+00 0.  1.
          1   -1    0    0  501    0  0.00000000000E+00 -0.00000000000E+00 -0.12239594477E+03  0.12239594477E+03  0.00000000000E+00 0. -1.
          5    1    1    2  502    0  0.46199577112E+02  0.17653176770E+02 -0.20689810477E+02  0.53773378478E+02  0.41800000000E+01 0.  1.
         -5    1    1    2    0  502  0.10721430059E+02  0.27336932740E+02  0.11524341197E+03  0.11899904771E+03  0.41800000000E+01 0.  1.
        -11    1    1    2    0    0 -0.16312493082E+02 -0.41836888022E+02 -0.63756389856E+02  0.77982689601E+02  0.00000000000E+00 0. -1.
         11    1    1    2    0    0 -0.40608514088E+02 -0.31532214885E+01  0.20984698512E+02  0.45818683895E+02  0.00000000000E+00 0.  1.
</event>
<event>
 6    1  0.4988969E-006  0.2031194E+03  0.7561462E-02  0.1147134E+00
         -1   -1    0    0    0  501 -0.00000000000E+00  0.00000000000E+00  0.13460417603E+03  0.13460417603E+03  0.00000000000E+00 0.  1.
          1   -1    0    0  501    0  0.00000000000E+00 -0.00000000000E+00 -0.36061705279E+03  0.36061705279E+03  0.00000000000E+00 0. -1.
          5    1    1    2  502    0 -0.86552123170E+02 -0.36610522366E+02 -0.47799158284E+02  0.10551697639E+03  0.41800000000E+01 0. -1.
         -5    1    1    2    0  502  0.17799673884E+03 -0.12435360239E+02 -0.19596330472E+02  0.17955212555E+03  0.41800000000E+01 0.  1.
        -11    1    1    2    0    0 -0.10732398966E+03  0.36199176821E+02 -0.15005796669E+03  0.18800588429E+03  0.00000000000E+00 0. -1.
         11    1    1    2    0    0  0.15879373987E+02  0.12846705784E+02 -0.85594213146E+01  0.22146242592E+02  0.00000000000E+00 0.  1.
</event>
<event>
 6    1  0.4988969E-006  0.9484935E+02  0.7561462E-02  0.1291516E+00
         -2   -1    0    0    0  501 -0.00000000000E+00  0.00000000000E+00  0.22167963549E+03  0.22167963549E+03  0.00000000000E+00 0.  1.
          2   -1    0    0  501    0  0.00000000000E+00 -0.00000000000E+00 -0.68648776717E+02  0.68648776717E+02  0.00000000000E+00 0. -1.
          5    1    1    2  502    0 -0.66005602617E+02 -0.56672499120E+02  0.23452277603E+02  0.90199742007E+02  0.41800000000E+01 0. -1.
         -5    1    1    2    0  502  0.10969124526E+02  0.35690191105E+02  0.61523337261E+02  0.72088174215E+02  0.41800000000E+01 0. -1.
        -11    1    1    2    0    0  0.39590624753E+02  0.77826733302E+00 -0.14104073826E+02  0.42035082572E+02  0.00000000000E+00 0. -1.
         11    1    1    2    0    0  0.15445853339E+02  0.20204040682E+02  0.82159317734E+02  0.86005413409E+02  0.00000000000E+00 0.  1.
</event>
<event>
 6    1  0.4988969E-006  0.1308721E+03  0.7561462E-02  0.1226167E+00
          2   -1    0    0  501    0  0.00000000000E+00  0.00000000000E+00  0.84591654961E+02  0.84591654961E+02  0.00000000000E+00 0. -1.
         -2   -1    0    0    0  501 -0.00000000000E+00 -0.00000000000E+00 -0.30433642120E+03  0.30433642120E+03  0.00000000000E+00 0.  1.
          5    1    1    2  502    0  0.67175646318E+02  0.86532438904E+02 -0.13776212841E+03  0.17605768051E+03  0.41800000000E+01 0. -1.
         -5    1    1    2    0  502  0.10830476853E+02 -0.41648477205E+02 -0.36641833010E+02  0.56674431701E+02  0.41800000000E+01 0. -1.
        -11    1    1    2    0    0 -0.87711092756E+01  0.14977360481E+02  0.31977115894E+02  0.36383919880E+02  0.00000000000E+00 0. -1.
         11    1    1    2    0    0 -0.69235013896E+02 -0.59861322180E+02 -0.77317920713E+02  0.11981204408E+03  0.00000000000E+00 0.  1.
</event>
<event>
 6    1  0.4988969E-006  0.1421358E+03  0.7561462E-02  0.1210484E+00
          1   -1    0    0  501    0  0.00000000000E+00  0.00000000000E+00  0.61281245227E+03  0.61281245227E+03  0.00000000000E+00 0. -1.
         -1   -1    0    0    0  501 -0.00000000000E+00 -0.00000000000E+00 -0.45689878785E+02  0.45689878785E+02  0.00000000000E+00 0.  1.
          5    1    1    2  502    0  0.10275905344E+03 -0.42670967668E+02  0.29377364649E+03  0.31416661554E+03  0.41800000000E+01 0. -1.
         -5    1    1    2    0  502  0.10416613383E+02 -0.14471581347E+02 -0.10002776917E+02  0.20867689070E+02  0.41800000000E+01 0. -1.
        -11    1    1    2    0    0 -0.12013378883E+03  0.70685726491E+02  0.24025623720E+03  0.27776187402E+03  0.00000000000E+00 0.  1.
         11    1    1    2    0    0  0.69581220094E+01 -0.13543177476E+02  0.43095466706E+02  0.45706152416E+02  0.00000000000E+00 0. -1.
</event>
<event>
 6    1  0.4988969E-006  0.7365713E+02  0.7561462E-02  0.1348081E+00
          4   -1    0    0  501    0  0.00000000000E+00  0.00000000000E+00  0.33258756120E+02  0.33258756120E+02  0.00000000000E+00 0. -1.
         -4   -1    0    0    0  501 -0.00000000000E+00 -0.00000000000E+00 -0.17208027550E+03  0.17208027550E+03  0.00000000000E+00 0.  1.
          5    1    1    2  502    0 -0.37175614814E+01 -0.55041154120E+02 -0.42822291403E+02  0.69961203186E+02  0.41800000000E+01 0. -1.
         -5    1    1    2    0  502  0.44508644697E+01  0.67833978888E+02 -0.80322337155E+02  0.10531101145E+03  0.41800000000E+01 0.  1.
        -11    1    1    2    0    0  0.93051410305E+01 -0.95460461461E+01 -0.14091331619E+02  0.19397893530E+02  0.00000000000E+00 0. -1.
         11    1    1    2    0    0 -0.10038444019E+02 -0.32467786213E+01 -0.15855592036E+01  0.10668923457E+02  0.00000000000E+00 0.  1.
</event>
<event>
 6    1  0.4988969E-006  0.1184174E+03  0.7561462E-02  0.1245731E+00
         -2   -1    0    0    0  501 -0.00000000000E+00  0.00000000000E+00  0.17694758165E+04  0.17694758165E+04  0.00000000000E+00 0. -1.
          2   -1    0    0  501    0  0.00000000000E+00 -0.00000000000E+00 -0.95871612036E+01  0.95871612036E+01  0.00000000000E+00 0.  1.
          5    1    1    2  502    0 -0.55728395398E+01  0.58306487299E+02  0.32523210552E+03  0.33049069255E+03  0.41800000000E+01 0.  1.
         -5    1    1    2    0  502  0.61022284752E+02 -0.31543044884E+02  0.90606863840E+03  0.90867845402E+03  0.41800000000E+01 0.  1.
        -11    1    1    2    0    0 -0.72238965126E+02  0.59910560566E+01  0.37660522453E+03  0.38351773880E+03  0.00000000000E+00 0. -1.
         11    1    1    2    0    0  0.16789519914E+02 -0.32754498472E+02  0.15198268685E+03  0.15637609233E+03  0.00000000000E+00 0.  1.
</event>
<event>
 6    1  0.4988969E-006  0.9454775E+02  0.7561462E-02  0.1292198E+00
         -1   -1    0    0    0  501 -0.00000000000E+00  0.00000000000E+00  0.10908637844E+03  0.10908637844E+03  0.00000000000E+00 0.  1.
          1   -1    0    0  501    0  0.00000000000E+00 -0.00000000000E+00 -0.12091990452E+03  0.12091990452E+03  0.00000000000E+00 0. -1.
          5    1    1    2  502    0  0.64559975147E+02 -0.22673627404E+02  0.83437986792E+01  0.69059214787E+02  0.41800000000E+01 0.  1.
         -5    1    1    2    0  502 -0.48713331568E+02  0.29592642075E+02  0.18172413767E+02  0.59970177251E+02  0.41800000000E+01 0.  1.
        -11    1    1    2    0    0 -0.26673505213E+02  0.20675994254E+02  0.17300080569E+02  0.37924469758E+02  0.00000000000E+00 0.  1.
         11    1    1    2    0    0  0.10826861633E+02 -0.27595008925E+02 -0.55649819088E+02  0.63052421166E+02  0.00000000000E+00 0. -1.
</event>
<event>
 6    1  0.4988969E-006  0.2069083E+03  0.7561462E-02  0.1144038E+00
          2   -1    0    0  501    0  0.00000000000E+00  0.00000000000E+00  0.48256277282E+03  0.48256277282E+03  0.00000000000E+00 0. -1.
         -2   -1    0    0    0  501 -0.00000000000E+00 -0.00000000000E+00 -0.14486489154E+03  0.14486489154E+03  0.00000000000E+00 0.  1.
          5    1    1    2  502    0  0.79128878590E+02 -0.15922898322E+03  0.27514002174E+03  0.32761982921E+03  0.41800000000E+01 0. -1.
         -5    1    1    2    0  502 -0.28083163404E+02  0.13214900541E+03 -0.49464552927E+02  0.14393136592E+03  0.41800000000E+01 0.  1.
        -11    1    1    2    0    0  0.22598389729E+02  0.12135925754E+02  0.57724173566E+02  0.63166827735E+02  0.00000000000E+00 0.  1.
         11    1    1    2    0    0 -0.73644104915E+02  0.14944052056E+02  0.54298238897E+02  0.92709641504E+02  0.00000000000E+00 0. -1.
</event>
<event>
 6    1  0.4988969E-006  0.1089140E+03  0.7561462E-02  0.1262594E+00
         -3   -1    0    0    0  501 -0.00000000000E+00  0.00000000000E+00  0.14915377517E+03  0.14915377517E+03  0.00000000000E+00 0.  1.
          3   -1    0    0  501    0  0.00000000000E+00 -0.00000000000E+00 -0.89307586519E+02  0.89307586519E+02  0.00000000000E+00 0. -1.
          5    1    1    2  502    0  0.43356236508E+02 -0.76532078526E+01  0.42556293790E+02  0.61374631369E+02  0.41800000000E+01 0.  1.
         -5    1    1    2    0  502 -0.77657518099E+02 -0.99404428883E+01  0.75002141117E+01  0.78760574743E+02  0.41800000000E+01 0.  1.
        -11    1    1    2    0    0  0.54345602742E+02 -0.15497798985E+02 -0.53843933360E+01  0.56768107264E+02  0.00000000000E+00 0.  1.
         11    1    1    2    0    0 -0.20044321151E+02  0.33091449726E+02  0.15174074090E+02  0.41558048316E+02  0.00000000000E+00 0. -1.
</event>
<event>
 6    1  0.4988969E-006  0.1006750E+03  0.7561462E-02  0.1278883E+00
         -2   -1    0    0    0  501 -0.00000000000E+00  0.00000000000E+00  0.14493044526E+03  0.14493044526E+03  0.00000000000E+00 0.  1.
          2   -1    0    0  501    0  0.00000000000E+00 -0.00000000000E+00 -0.11016084192E+03  0.11016084192E+03  0.00000000000E+00 0. -1.
          5    1    1    2  502    0 -0.81712319086E+02 -0.19720295256E+02  0.68996732772E+02  0.10882929141E+03  0.41800000000E+01 0.  1.
         -5    1    1    2    0  502  0.38254398841E+02  0.75150842366E+01 -0.35866909946E+01  0.39372735161E+02  0.41800000000E+01 0.  1.
        -11    1    1    2    0    0  0.51688283317E+02 -0.11442685806E+02 -0.51829930836E+02  0.74087484916E+02  0.00000000000E+00 0. -1.
         11    1    1    2    0    0 -0.82303630712E+01  0.23647896825E+02  0.21189492405E+02  0.32801775697E+02  0.00000000000E+00 0.  1.
</event>
<event>
 6    1  0.4988969E-006  0.1034585E+03  0.7561462E-02  0.1273187E+00
         -2   -1    0    0    0  501 -0.00000000000E+00  0.00000000000E+00  0.17459741038E+03  0.17459741038E+03  0.00000000000E+00 0.  1.
          2   -1    0    0  501    0  0.00000000000E+00 -0.00000000000E+00 -0.88400433149E+02  0.88400433149E+02  0.00000000000E+00 0. -1.
          5    1    1    2  502    0  0.27236348157E+02 -0.71876142482E+02  0.36015639748E+02  0.84985864857E+02  0.41800000000E+01 0. -1.
         -5    1    1    2    0  502 -0.58509914001E+02  0.19207426031E+02  0.16764135337E+02  0.63959705165E+02  0.41800000000E+01 0. -1.
        -11    1    1    2    0    0 -0.49393173317E+01  0.15732334066E+02  0.55434179983E+02  0.57834691157E+02  0.00000000000E+00 0.  1.
         11    1    1    2    0    0  0.36212883176E+02  0.36936382385E+02 -0.22016977841E+02  0.56217582346E+02  0.00000000000E+00 0. -1.
</event>
<event>
 6    1  0.4988969E-006  0.1309436E+03  0.7561462E-02  0.1226062E+00
          2   -1    0    0  501    0  0.00000000000E+00  0.00000000000E+00  0.55824563302E+03  0.55824563302E+03  0.00000000000E+00 0. -1.
         -2   -1    0    0    0  501 -0.00000000000E+00 -0.00000000000E+00 -0.57926280997E+02  0.57926280997E+02  0.00000000000E+00 0.  1.
          5    1    1    2  502    0 -0.96965698343E+02  0.33252117868E+02  0.74360845935E+02  0.12670855459E+03  0.41800000000E+01 0. -1.
         -5    1    1    2    0  502  0.43450687482E+02  0.28010639805E+02  0.73483551979E+01  0.52383479352E+02  0.41800000000E+01 0.  1.
        -11    1    1    2    0    0  0.13924388185E+02  0.15635114528E+02  0.19183957276E+02  0.28396647855E+02  0.00000000000E+00 0.  1.
         11    1    1    2    0    0  0.39590622677E+02 -0.76897872201E+02  0.39942619361E+03  0.40868323222E+03  0.00000000000E+00 0. -1.
</event>
<event>
 6    1  0.4988969E-006  0.3328656E+03  0.7561462E-02  0.1069876E+00
          1   -1    0    0  501    0  0.00000000000E+00  0.00000000000E+00  0.25928680103E+03  0.25928680103E+03  0.00000000000E+00 0. -1.
         -1   -1    0    0    0  501 -0.00000000000E+00 -0.00000000000E+00 -0.47614249250E+03  0.47614249250E+03  0.00000000000E+00 0.  1.
          5    1    1    2  502    0 -0.51558701648E+02  0.79760247751E+02 -0.11987711497E+03  0.15299670562E+03  0.41800000000E+01 0.  1.
         -5    1    1    2    0  502 -0.12843917354E+03  0.19839643260E+03 -0.65630365506E+02  0.24532138726E+03  0.41800000000E+01 0.  1.
        -11    1    1    2    0    0  0.14725448619E+03 -0.25399281560E+03 -0.17453763741E+02  0.29411029895E+03  0.00000000000E+00 0.  1.
         11    1    1    2    0    0  0.32743389002E+02 -0.24163864754E+02 -0.13894447260E+02  0.43000901710E+02  0.00000000000E+00 0. -1.
</event>
<event>
 6    1  0.4988969E-006  0.9093487E+02  0.7561462E-02  0.1300603E+00
         -1   -1    0    0    0  501 -0.00000000000E+00  0.00000000000E+00  0.48520292093E+03  0.48520292093E+03  0.00000000000E+00 0.  1.
          1   -1    0    0  501    0  0.00000000000E+00 -0.00000000000E+00 -0.26572214774E+02  0.26572214774E+02  0.00000000000E+00 0. -1.
          5    1    1    2  502    0 -0.60736442760E+02  0.34778496741E+01  0.10611856465E+03  0.12239131130E+03  0.41800000000E+01 0.  1.
         -5    1    1    2    0  502  0.58673177512E+02  0.96328462373E+01  0.19618389161E+03  0.20503883831E+03  0.41800000000E+01 0.  1.
        -11    1    1    2    0    0 -0.24374614228E+02 -0.22556619680E+02  0.90590695312E+01  0.34423678637E+02  0.00000000000E+00 0. -1.
         11    1    1    2    0    0  0.26437879476E+02  0.94459237684E+01  0.14726918036E+03  0.14992130747E+03  0.00000000000E+00 0.  1.
</event>
<event>
 6    1  0.4988969E-006  0.1168460E+03  0.7561462E-02  0.1248393E+00
         -1   -1    0    0    0  501 -0.00000000000E+00  0.00000000000E+00  0.14075417102E+03  0.14075417102E+03  0.00000000000E+00 0.  1.
          1   -1    0    0  501    0  0.00000000000E+00 -0.00000000000E+00 -0.10501011179E+03  0.10501011179E+03  0.00000000000E+00 0. -1.
          5    1    1    2  502    0  0.44687278275E+02  0.82161494212E+02  0.25586483399E+02  0.97054646996E+02  0.41800000000E+01 0. -1.
         -5    1    1    2    0  502 -0.19904360590E+02 -0.36224830938E+02  0.18496084649E+02  0.45475262444E+02  0.41800000000E+01 0. -1.
        -11    1    1    2    0    0 -0.41443359015E+02  0.78839634834E+01 -0.18361821578E+02  0.46009405324E+02  0.00000000000E+00 0.  1.
         11    1    1    2    0    0  0.16660441330E+02 -0.53820626758E+02  0.10023312757E+02  0.57224968052E+02  0.00000000000E+00 0. -1.
</event>
<event>
 6    1  0.4988969E-006  0.9364935E+02  0.7561462E-02  0.1294247E+00
         -1   -1    0    0    0  501 -0.00000000000E+00  0.00000000000E+00  0.64738104525E+02  0.64738104525E+02  0.00000000000E+00 0.  1.
          1   -1    0    0  501    0  0.00000000000E+00 -0.00000000000E+00 -0.21691176817E+03  0.21691176817E+03  0.00000000000E+00 0. -1.
          5    1    1    2  502    0  0.70754975035E+01  0.49889889535E+02 -0.25258654421E+01  0.50625251989E+02  0.41800000000E+01 0. -1.
         -5    1    1    2    0  502  0.19433515705E+02 -0.68258510910E+02 -0.59335729890E+02  0.92601766106E+02  0.41800000000E+01 0. -1.
        -11    1    1    2    0    0 -0.32557508647E+02  0.35085982739E+02 -0.15412684879E+01  0.47889383611E+02  0.00000000000E+00 0.  1.
         11    1    1    2    0    0  0.60484954392E+01 -0.16717361364E+02 -0.88770799828E+02  0.90533470993E+02  0.00000000000E+00 0. -1.
</event>
<event>
 6    1  0.4988969E-006  0.1148591E+03  0.7561462E-02  0.1251827E+00
          2   -1    0    0  501    0  0.00000000000E+00  0.00000000000E+00  0.49038677369E+03  0.49038677369E+03  0.00000000000E+00 0. -1.
         -2   -1    0    0    0  501 -0.00000000000E+00 -0.00000000000E+00 -0.39725191966E+02  0.39725191966E+02  0.00000000000E+00 0.  1.
          5    1    1    2  502    0 -0.54816492561E+02 -0.22920508684E+01  0.77451293665E+02  0.95006718943E+02  0.41800000000E+01 0. -1.
         -5    1    1    2    0  502  0.51463551214E+02 -0.73248004000E+02  0.84983449075E+02  0.12350476189E+03  0.41800000000E+01 0. -1.
        -11    1    1    2    0    0 -0.17856541190E+02  0.37138683092E+02  0.33453982748E+02  0.53078308251E+02  0.00000000000E+00 0.  1.
         11    1    1    2    0    0  0.21209482538E+02  0.38401371777E+02  0.25477285624E+03  0.25852217657E+03  0.00000000000E+00 0. -1.
</event>
<event>
 6    1  0.4988969E-006  0.1211696E+03  0.7561462E-02  0.1241180E+00
         -2   -1    0    0    0  501 -0.00000000000E+00  0.00000000000E+00  0.13190494768E+03  0.13190494768E+03  0.00000000000E+00 0. -1.
          2   -1    0    0  501    0  0.00000000000E+00 -0.00000000000E+00 -0.18669386017E+03  0.18669386017E+03  0.00000000000E+00 0.  1.
          5    1    1    2  502    0  0.43664077204E+02  0.35306861583E+02  0.59781322486E+02  0.82124326671E+02  0.41800000000E+01 0.  1.
         -5    1    1    2    0  502  0.59667434080E+02 -0.67817112451E+00 -0.58666328822E+02  0.83784683226E+02  0.41800000000E+01 0.  1.
        -11    1    1    2    0    0 -0.87753401110E+02  0.53358322597E+00 -0.69453693884E+02  0.11191407289E+03  0.00000000000E+00 0.  1.
         11    1    1    2    0    0 -0.15578110174E+02 -0.35162273684E+02  0.13549787729E+02  0.40775725067E+02  0.00000000000E+00 0. -1.
</event>
<event>
 6    1  0.4988969E-006  0.1111944E+03  0.7561462E-02  0.1258374E+00
         -1   -1    0    0    0  501 -0.00000000000E+00  0.00000000000E+00  0.74976516154E+02  0.74976516154E+02  0.00000000000E+00 0.  1.
          1   -1    0    0  501    0  0.00000000000E+00 -0.00000000000E+00 -0.36830581219E+03  0.36830581219E+03  0.00000000000E+00 0. -1.
          5    1    1    2  502    0  0.19239442572E+02  0.94121730699E+01 -0.51010122334E+02  0.55481980254E+02  0.41800000000E+01 0. -1.
         -5    1    1    2    0  502 -0.78041404184E+02  0.32236579913E+02  0.31444030093E+02  0.90198987134E+02  0.41800000000E+01 0. -1.
        -11    1    1    2    0    0  0.50282870640E+01  0.27766818871E+02 -0.81191525020E+02  0.85955474730E+02  0.00000000000E+00 0.  1.
         11    1    1    2    0    0  0.53773674548E+02 -0.69415571854E+02 -0.19257167877E+03  0.21164588622E+03  0.00000000000E+00 0. -1.
</event>
<event>
 6    1  0.4988969E-006  0.9249690E+02  0.7561462E-02  0.1296915E+00
         -2   -1    0    0    0  501 -0.00000000000E+00  0.00000000000E+00  0.37343098237E+02  0.37343098237E+02  0.00000000000E+00 0.  1.
          2   -1    0    0  501    0  0.00000000000E+00 -0.00000000000E+00 -0.45821287961E+03  0.45821287961E+03  0.00000000000E+00 0. -1.
          5    1    1    2  502    0 -0.22531568418E+02  0.47735607323E+02 -0.18047452086E+02  0.55942315904E+02  0.41800000000E+01 0. -1.
         -5    1    1    2    0  502 -0.45017275650E+02 -0.23327036521E+02 -0.19368053321E+03  0.20025066064E+03  0.41800000000E+01 0. -1.
        -11    1    1    2    0    0  0.17312480013E+02  0.10265919961E+02  0.13757986797E+01  0.20174337631E+02  0.00000000000E+00 0.  1.
         11    1    1    2    0    0  0.50236364055E+02 -0.34674490763E+02 -0.21051759476E+03  0.21918866368E+03  0.00000000000E+00 0. -1.
</event>
<event>
 6    1  0.4988969E-006  0.1111493E+03  0.7561462E-02  0.1258456E+00
         -1   -1    0    0    0  501 -0.00000000000E+00  0.00000000000E+00  0.96254493015E+02  0.96254493015E+02  0.00000000000E+00 0.  1.
          1   -1    0    0  501    0  0.00000000000E+00 -0.00000000000E+00 -0.17887946498E+03  0.17887946498E+03  0.00000000000E+00 0. -1.
          5    1    1    2  502    0  0.59082172802E+02 -0.55036085832E+02  0.32831836126E+02  0.87264401391E+02  0.41800000000E+01 0. -1.
         -5    1    1    2    0  502 -0.13128128206E+01  0.38187958188E+02 -0.34309149696E+02  0.51523138307E+02  0.41800000000E+01 0. -1.
        -11    1    1    2    0    0 -0.21015361380E+02 -0.34178225653E+02 -0.55380098465E+02  0.68386781096E+02  0.00000000000E+00 0. -1.
         11    1    1    2    0    0 -0.36753998602E+02  0.51026353296E+02 -0.25767559931E+02  0.67959637203E+02  0.00000000000E+00 0.  1.
</event>
<event>
 6    1  0.4988969E-006  0.1224162E+03  0.7561462E-02  0.1239163E+00
         -1   -1    0    0    0  501 -0.00000000000E+00  0.00000000000E+00  0.24534829065E+02  0.24534829065E+02  0.00000000000E+00 0.  1.
          1   -1    0    0  501    0  0.00000000000E+00 -0.00000000000E+00 -0.93806141132E+03  0.93806141132E+03  0.00000000000E+00 0. -1.
          5    1    1    2  502    0  0.46825786801E+01 -0.19093562356E+02 -0.38006447301E+03  0.38059554215E+03  0.41800000000E+01 0. -1.
         -5    1    1    2    0  502 -0.34311838941E+02 -0.79905881723E+02 -0.14663639056E+03  0.17053432400E+03  0.41800000000E+01 0. -1.
        -11    1    1    2    0    0 -0.28584425080E+02  0.80653155645E+01 -0.54868855028E+02  0.62391585365E+02  0.00000000000E+00 0. -1.
         11    1    1    2    0    0  0.58213685341E+02  0.90934128515E+02 -0.33195686366E+03  0.34907478886E+03  0.00000000000E+00 0.  1.
</event>
<event>
 6    1  0.4988969E-006  0.3182315E+03  0.7561462E-02  0.1076466E+00
         -2   -1    0    0    0  501 -0.00000000000E+00  0.00000000000E+00  0.10156158285E+03  0.10156158285E+03  0.00000000000E+00 0.  1.
          2   -1    0    0  501    0  0.00000000000E+00 -0.00000000000E+00 -0.12590795807E+04  0.12590795807E+04  0.00000000000E+00 0. -1.
          5    1    1    2  502    0 -0.60330385065E+02 -0.66960036704E+02 -0.39478612646E+02  0.98485710303E+02  0.41800000000E+01 0. -1.
         -5    1    1    2    0  502  0.28066027518E+03  0.11961845540E+03 -0.40490640704E+03  0.50699648500E+03  0.41800000000E+01 0.  1.
        -11    1    1    2    0    0 -0.12609357959E+01 -0.19517041638E+02 -0.22275768207E+02  0.29643122686E+02  0.00000000000E+00 0.  1.
         11    1    1    2    0    0 -0.21906895432E+03 -0.33141377055E+02 -0.69085720993E+03  0.72551584554E+03  0.00000000000E+00 0. -1.
</event>
<event>
 6    1  0.4988969E-006  0.1032412E+03  0.7561462E-02  0.1273624E+00
         -2   -1    0    0    0  501 -0.00000000000E+00  0.00000000000E+00  0.21347321878E+03  0.21347321878E+03  0.00000000000E+00 0.  1.
          2   -1    0    0  501    0  0.00000000000E+00 -0.00000000000E+00 -0.84398168771E+02  0.84398168771E+02  0.00000000000E+00 0. -1.
          5    1    1    2  502    0  0.68959645114E+01  0.51698518628E+02  0.64877186460E+02  0.83347542723E+02  0.41800000000E+01 0.  1.
         -5    1    1    2    0  502 -0.73309458190E+02 -0.46336978585E+02  0.59834794535E+02  0.10544698802E+03  0.41800000000E+01 0.  1.
        -11    1    1    2    0    0  0.23711145493E+02  0.27372700559E+01  0.44126529928E+02  0.50168333751E+02  0.00000000000E+00 0.  1.
         11    1    1    2    0    0  0.42702348185E+02 -0.80988100996E+01 -0.39763460913E+02  0.58908523062E+02  0.00000000000E+00 0. -1.
</event>
<event>
 6    1  0.4988969E-006  0.1262772E+03  0.7561462E-02  0.1233087E+00
         -2   -1    0    0    0  501 -0.00000000000E+00  0.00000000000E+00  0.13275410200E+03  0.13275410200E+03  0.00000000000E+00 0.  1.
          2   -1    0    0  501    0  0.00000000000E+00 -0.00000000000E+00 -0.14228079700E+03  0.14228079700E+03  0.00000000000E+00 0. -1.
          5    1    1    2  502    0 -0.19764304303E+02 -0.62837136673E+02  0.46501185777E+01  0.66168190791E+02  0.41800000000E+01 0.  1.
         -5    1    1    2    0  502 -0.63273771122E+02  0.55482011987E+02  0.12406698864E+01  0.84266454938E+02  0.41800000000E+01 0.  1.
        -11    1    1    2    0    0  0.55127122675E+02 -0.24165012240E+02 -0.43260880087E+02  0.74124565542E+02  0.00000000000E+00 0.  1.
         11    1    1    2    0    0  0.27910952750E+02  0.31520136926E+02  0.27843396624E+02  0.50475687720E+02  0.00000000000E+00 0. -1.
</event>
<event>
 6    1  0.5005192E-006  0.1265671E+03  0.7561462E-02  0.1232640E+00
         -1   -1    0    0    0  501 -0.00000000000E+00  0.00000000000E+00  0.14841461859E+03  0.14841461859E+03  0.00000000000E+00 0.  1.
          1   -1    0    0  501    0  0.00000000000E+00 -0.00000000000E+00 -0.12874488058E+03  0.12874488058E+03  0.00000000000E+00 0. -1.
          5    1    1    2  502    0 -0.68104488124E+02 -0.49930410602E+02  0.18989197259E+02  0.86656385905E+02  0.41800000000E+01 0.  1.
         -5    1    1    2    0  502 -0.15628710798E+02  0.64164940125E+02  0.41430559734E+01  0.66302590110E+02  0.41800000000E+01 0.  1.
        -11    1    1    2    0    0  0.18973780516E+02 -0.30243169213E+02  0.32618473386E+02  0.48359264233E+02  0.00000000000E+00 0.  1.
         11    1    1    2    0    0  0.64759418406E+02  0.16008639690E+02 -0.36080988607E+02  0.75841258928E+02  0.00000000000E+00 0. -1.
</event>
<event>
 6    1  0.4988969E-006  0.8697294E+02  0.7561462E-02  0.1310352E+00
          2   -1    0    0  501    0  0.00000000000E+00  0.00000000000E+00  0.21453285269E+03  0.21453285269E+03  0.00000000000E+00 0. -1.
         -2   -1    0    0    0  501 -0.00000000000E+00 -0.00000000000E+00 -0.90465545473E+02  0.90465545473E+02  0.00000000000E+00 0.  1.
          5    1    1    2  502    0  0.41143648373E+01  0.59105987988E+02  0.54472033478E+00  0.59398778896E+02  0.41800000000E+01 0. -1.
         -5    1    1    2    0  502  0.12161342693E+02 -0.45730193050E+02 -0.36798117852E+02  0.60089289311E+02  0.41800000000E+01 0.  1.
        -11    1    1    2    0    0  0.20146277706E+02  0.11255095424E+02  0.13016349372E+03  0.13219336132E+03  0.00000000000E+00 0.  1.
         11    1    1    2    0    0 -0.36421985236E+02 -0.24630890362E+02  0.30157211007E+02  0.53316968634E+02  0.00000000000E+00 0. -1.
</event>
<event>
 6    1  0.4988969E-006  0.1466283E+03  0.7561462E-02  0.1204678E+00
         -3   -1    0    0    0  501 -0.00000000000E+00  0.00000000000E+00  0.12848353365E+03  0.12848353365E+03  0.00000000000E+00 0.  1.
          3   -1    0    0  501    0  0.00000000000E+00 -0.00000000000E+00 -0.29460448671E+03  0.29460448671E+03  0.00000000000E+00 0. -1.
          5    1    1    2  502    0  0.11915480811E+00  0.10080841644E+03  0.54557004299E+02  0.11470087245E+03  0.41800000000E+01 0.  1.
         -5    1    1    2    0  502 -0.53612640915E+02 -0.97968389940E+01 -0.85528584495E+01  0.55325555648E+02  0.41800000000E+01 0.  1.
        -11    1    1    2    0    0  0.12582186179E+02 -0.95698547258E+02 -0.15609188070E+03  0.18352438142E+03  0.00000000000E+00 0.  1.
         11    1    1    2    0    0  0.40911299928E+02  0.46869698098E+01 -0.56033218215E+02  0.69537210839E+02  0.00000000000E+00 0. -1.
</event>
<event>
 6    1  0.4988969E-006  0.1429238E+03  0.7561462E-02  0.1209448E+00
         -2   -1    0    0    0  501 -0.00000000000E+00  0.00000000000E+00  0.39935626779E+02  0.39935626779E+02  0.00000000000E+00 0.  1.
          2   -1    0    0  501    0  0.00000000000E+00 -0.00000000000E+00 -0.77724098750E+03  0.77724098750E+03  0.00000000000E+00 0. -1.
          5    1    1    2  502    0  0.15622025121E+02  0.17911313924E+02 -0.21473094994E+03  0.21608266034E+03  0.41800000000E+01 0. -1.
         -5    1    1    2    0  502  0.12137428565E+03 -0.26258212295E+01 -0.14669088641E+03  0.19045813374E+03  0.41800000000E+01 0. -1.
        -11    1    1    2    0    0 -0.80862805928E+02  0.37998500029E+01 -0.31662532007E+03  0.32681007565E+03  0.00000000000E+00 0. -1.
         11    1    1    2    0    0 -0.56133504839E+02 -0.19085342697E+02 -0.59258204309E+02  0.83825744549E+02  0.00000000000E+00 0.  1.
</event>
<event>
 6    1  0.4988969E-006  0.8331357E+02  0.7561462E-02  0.1319903E+00
         -1   -1    0    0    0  501 -0.00000000000E+00  0.00000000000E+00  0.56922559986E+02  0.56922559986E+02  0.00000000000E+00 0.  1.
          1   -1    0    0  501    0  0.00000000000E+00 -0.00000000000E+00 -0.22887037225E+03  0.22887037225E+03  0.00000000000E+00 0. -1.
          5    1    1    2  502    0  0.58581793737E+02 -0.32921874579E+02  0.49445866915E-01  0.67328680576E+02  0.41800000000E+01 0. -1.
         -5    1    1    2    0  502 -0.33093667901E+02  0.32705904756E+01 -0.78630643416E+02  0.85475950426E+02  0.41800000000E+01 0. -1.
        -11    1    1    2    0    0 -0.42053027056E+02  0.22997696499E+02 -0.11625184793E+02  0.49320341141E+02  0.00000000000E+00 0.  1.
         11    1    1    2    0    0  0.16564901220E+02  0.66535876042E+01 -0.81741429926E+02  0.83667960097E+02  0.00000000000E+00 0. -1.
</event>
<event>
 6    1  0.4988969E-006  0.1142089E+03  0.7561462E-02  0.1252968E+00
          4   -1    0    0  501    0  0.00000000000E+00  0.00000000000E+00  0.12028726840E+03  0.12028726840E+03  0.00000000000E+00 0. -1.
         -4   -1    0    0    0  501 -0.00000000000E+00 -0.00000000000E+00 -0.17224191530E+03  0.17224191530E+03  0.00000000000E+00 0.  1.
          5    1    1    2  502    0  0.87766679172E+02  0.37424744699E+02 -0.19351383209E+02  0.97445112350E+02  0.41800000000E+01 0. -1.
         -5    1    1    2    0  502 -0.33693226612E+02  0.25295159049E+02 -0.56648750899E+02  0.70722216942E+02  0.41800000000E+01 0. -1.
        -11    1    1    2    0    0 -0.38670419330E+02 -0.16839374747E+02  0.53177386402E+02  0.67873413776E+02  0.00000000000E+00 0. -1.
         11    1    1    2    0    0 -0.15403033230E+02 -0.45880529001E+02 -0.29131899193E+02  0.56488440629E+02  0.00000000000E+00 0.  1.
</event>
<event>
 6    1  0.4988969E-006  0.2157127E+03  0.7561462E-02  0.1137120E+00
         -1   -1    0    0    0  501 -0.00000000000E+00  0.00000000000E+00  0.89723557174E+02  0.89723557174E+02  0.00000000000E+00 0.  1.
          1   -1    0    0  501    0  0.00000000000E+00 -0.00000000000E+00 -0.59866481693E+03  0.59866481693E+03  0.00000000000E+00 0. -1.
          5    1    1    2  502    0 -0.55606521091E+02  0.10179723326E+02 -0.40161366744E+02  0.69470279498E+02  0.41800000000E+01 0.  1.
         -5    1    1    2    0  502 -0.64104739041E+00  0.16747138859E+03 -0.98092680122E+02  0.19413068596E+03  0.41800000000E+01 0.  1.
        -11    1    1    2    0    0  0.75980456388E+02 -0.91990813815E+02 -0.22333955313E+03  0.25321116795E+03  0.00000000000E+00 0.  1.
         11    1    1    2    0    0 -0.19732887906E+02 -0.85660298102E+02 -0.14734765976E+03  0.17157624070E+03  0.00000000000E+00 0. -1.
</event>
<event>
 6    1  0.4988969E-006  0.1625595E+03  0.7561462E-02  0.1185837E+00
         -2   -1    0    0    0  501 -0.00000000000E+00  0.00000000000E+00  0.14898118339E+03  0.14898118339E+03  0.00000000000E+00 0.  1.
          2   -1    0    0  501    0  0.00000000000E+00 -0.00000000000E+00 -0.21434226230E+03  0.21434226230E+03  0.00000000000E+00 0. -1.
          5    1    1    2  502    0  0.50465491200E+02 -0.10149847201E+03 -0.38331677309E+02  0.11973092962E+03  0.41800000000E+01 0. -1.
         -5    1    1    2    0  502 -0.35925513024E+02 -0.34750154987E+02  0.42665887692E+02  0.65848812671E+02  0.41800000000E+01 0. -1.
        -11    1    1    2    0    0  0.34952864871E+02  0.75327146634E+02 -0.22034977940E+02  0.85915202587E+02  0.00000000000E+00 0.  1.
         11    1    1    2    0    0 -0.49492843047E+02  0.60921480361E+02 -0.47660311360E+02  0.91828500811E+02  0.00000000000E+00 0. -1.
</event>
<event>
 6    1  0.4988969E-006  0.1333567E+03  0.7561462E-02  0.1222558E+00
          1   -1    0    0  501    0  0.00000000000E+00  0.00000000000E+00  0.65973295757E+03  0.65973295757E+03  0.00000000000E+00 0. -1.
         -1   -1    0    0    0  501 -0.00000000000E+00 -0.00000000000E+00 -0.28787198940E+02  0.28787198940E+02  0.00000000000E+00 0.  1.
          5    1    1    2  502    0  0.56668152240E+02  0.98378355225E+02  0.24291706060E+03  0.26817112258E+03  0.41800000000E+01 0. -1.
         -5    1    1    2    0  502 -0.28723666305E+02 -0.20453252515E+02  0.56762164879E+02  0.66953717643E+02  0.41800000000E+01 0. -1.
        -11    1    1    2    0    0 -0.54864702887E+01  0.18134177418E+02  0.10294127904E+03  0.10467022822E+03  0.00000000000E+00 0. -1.
         11    1    1    2    0    0 -0.22458015646E+02 -0.96059280127E+02  0.22832525412E+03  0.24872508807E+03  0.00000000000E+00 0.  1.
</event>
<event>
 6    1  0.4988969E-006  0.1266242E+03  0.7561462E-02  0.1232552E+00
          2   -1    0    0  501    0  0.00000000000E+00  0.00000000000E+00  0.84560314740E+03  0.84560314740E+03  0.00000000000E+00 0. -1.
         -2   -1    0    0    0  501 -0.00000000000E+00 -0.00000000000E+00 -0.23796847501E+02  0.23796847501E+02  0.00000000000E+00 0.  1.
          5    1    1    2  502    0 -0.85052204399E+02 -0.75052261323E+02  0.39450417457E+03  0.41050911751E+03  0.41800000000E+01 0. -1.
         -5    1    1    2    0  502  0.60929148547E+01  0.15884137989E+02  0.94508022140E+01  0.19905263464E+02  0.41800000000E+01 0.  1.
        -11    1    1    2    0    0  0.28153338438E+02 -0.15323527550E+02  0.44140572046E+02  0.54550995063E+02  0.00000000000E+00 0. -1.
         11    1    1    2    0    0  0.50805951106E+02  0.74491650884E+02  0.37371075107E+03  0.38443461887E+03  0.00000000000E+00 0.  1.
</event>
<event>
 6    1  0.4988969E-006  0.1772525E+03  0.7561462E-02  0.1170489E+00
          1   -1    0    0  501    0  0.00000000000E+00  0.00000000000E+00  0.33924096578E+03  0.33924096578E+03  0.00000000000E+00 0. -1.
         -1   -1    0    0    0  501 -0.00000000000E+00 -0.00000000000E+00 -0.12051504165E+03  0.12051504165E+03  0.00000000000E+00 0.  1.
          5    1    1    2  502    0 -0.65485763554E+02 -0.32340147125E+02 -0.71811336997E+01  0.73507220227E+02  0.41800000000E+01 0.  1.
         -5    1    1    2    0  502  0.30925442277E+02 -0.11631043386E+03  0.37553861541E+02  0.12614382633E+03  0.41800000000E+01 0.  1.
        -11    1    1    2    0    0  0.41366480821E+02  0.65317908344E+02  0.33789507475E+02  0.84376215259E+02  0.00000000000E+00 0.  1.
         11    1    1    2    0    0 -0.68061595443E+01  0.83332672636E+02  0.15456368882E+03  0.17572874562E+03  0.00000000000E+00 0. -1.
</event>
<event>
 6    1  0.4988969E-006  0.1484298E+03  0.7561462E-02  0.1202416E+00
          2   -1    0    0  501    0  0.00000000000E+00  0.00000000000E+00  0.11346690849E+03  0.11346690849E+03  0.00000000000E+00 0. -1.
         -2   -1    0    0    0  501 -0.00000000000E+00 -0.00000000000E+00 -0.24475108449E+03  0.24475108449E+03  0.00000000000E+00 0.  1.
          5    1    1    2  502    0  0.49298322111E+02 -0.11183694352E+03 -0.23891960588E+02  0.12460387104E+03  0.41800000000E+01 0.  1.
         -5    1    1    2    0  502  0.28247050230E+02  0.13968395801E+02 -0.67037668410E+02  0.74192542171E+02  0.41800000000E+01 0.  1.
        -11    1    1    2    0    0 -0.23162137486E+02  0.83326470275E+02  0.57223227323E+01  0.86674853556E+02  0.00000000000E+00 0.  1.
         11    1    1    2    0    0 -0.54383234855E+02  0.14542077440E+02 -0.46076869738E+02  0.72746726211E+02  0.00000000000E+00 0. -1.
</event>
<event>
 6    1  0.4988969E-006  0.1481602E+03  0.7561462E-02  0.1202752E+00
          1   -1    0    0  501    0  0.00000000000E+00  0.00000000000E+00  0.66115673353E+02  0.66115673353E+02  0.00000000000E+00 0. -1.
         -1   -1    0    0    0  501 -0.00000000000E+00 -0.00000000000E+00 -0.47166335541E+03  0.47166335541E+03  0.00000000000E+00 0.  1.
          5    1    1    2  502    0 -0.55745428788E+02 -0.11272622024E+01 -0.22361045674E+03  0.23049497243E+03  0.41800000000E+01 0. -1.
         -5    1    1    2    0  502 -0.71445139460E+02  0.44251648554E+02 -0.46697571134E+02  0.96232800552E+02  0.41800000000E+01 0. -1.
        -11    1    1    2    0    0  0.11294676381E+02 -0.38666294657E+02 -0.12487978871E+02  0.42173471203E+02  0.00000000000E+00 0.  1.
         11    1    1    2    0    0  0.11589589187E+03 -0.44580916941E+01 -0.12275167531E+03  0.16887778458E+03  0.00000000000E+00 0. -1.
</event>
<event>
 6    1  0.4988969E-006  0.9104228E+02  0.7561462E-02  0.1300347E+00
         -4   -1    0    0    0  501 -0.00000000000E+00  0.00000000000E+00  0.54570689382E+02  0.54570689382E+02  0.00000000000E+00 0. -1.
          4   -1    0    0  501    0  0.00000000000E+00 -0.00000000000E+00 -0.25703469421E+03  0.25703469421E+03  0.00000000000E+00 0.  1.
          5    1    1    2  502    0 -0.37864864932E+02  0.32069844053E+02  0.16970355953E+02  0.52608823168E+02  0.41800000000E+01 0. -1.
         -5    1    1    2    0  502  0.64522506040E+00 -0.33776174541E+02 -0.91650241831E+02  0.97767507433E+02  0.41800000000E+01 0. -1.
        -11    1    1    2    0    0  0.34156412091E+01  0.43984643203E+02 -0.54409340835E+02  0.70047782354E+02  0.00000000000E+00 0.  1.
         11    1    1    2    0    0  0.33803998663E+02 -0.42278312715E+02 -0.73374778120E+02  0.91181270642E+02  0.00000000000E+00 0. -1.
</event>
<event>
 6    1  0.4988969E-006  0.1794381E+03  0.7561462E-02  0.1168348E+00
         -2   -1    0    0    0  501 -0.00000000000E+00  0.00000000000E+00  0.51044042255E+03  0.51044042255E+03  0.00000000000E+00 0.  1.
          2   -1    0    0  501    0  0.00000000000E+00 -0.00000000000E+00 -0.71979872770E+02  0.71979872770E+02  0.00000000000E+00 0. -1.
          5    1    1    2  502    0  0.13968688898E+02 -0.86500824519E+02  0.14784010316E+03  0.17190603659E+03  0.41800000000E+01 0. -1.
         -5    1    1    2    0  502  0.20625247843E+01  0.15658521130E+03  0.23253930367E+03  0.28038399126E+03  0.41800000000E+01 0.  1.
        -11    1    1    2    0    0  0.37168772488E+02 -0.32373427788E+02  0.36879355186E+02  0.61560078898E+02  0.00000000000E+00 0. -1.
         11    1    1    2    0    0 -0.53199986171E+02 -0.37710958995E+02  0.21201787770E+02  0.68570188577E+02  0.00000000000E+00 0.  1.
</event>
<event>
 6    1  0.4988969E-006  0.1147645E+03  0.7561462E-02  0.1251993E+00
         -3   -1    0    0    0  501 -0.00000000000E+00  0.00000000000E+00  0.12750985954E+03  0.12750985954E+03  0.00000000000E+00 0.  1.
          3   -1    0    0  501    0  0.00000000000E+00 -0.00000000000E+00 -0.15528029739E+03  0.15528029739E+03  0.00000000000E+00 0. -1.
          5    1    1    2  502    0  0.30925971970E+01 -0.32822771085E+02  0.40042648908E+02  0.52036377571E+02  0.41800000000E+01 0. -1.
         -5    1    1    2    0  502 -0.84755624045E+02  0.50527568123E+02 -0.16808230414E+02  0.10018253319E+03  0.41800000000E+01 0. -1.
        -11    1    1    2    0    0  0.30764704344E+02 -0.32278132048E+02  0.13997405107E+02  0.46736197873E+02  0.00000000000E+00 0.  1.
         11    1    1    2    0    0  0.50898322504E+02  0.14573335010E+02 -0.65002261456E+02  0.83835048288E+02  0.00000000000E+00 0. -1.
</event>
<event>
 6    1  0.4988969E-006  0.1290344E+03  0.7561462E-02  0.1228896E+00
         -2   -1    0    0    0  501 -0.00000000000E+00  0.00000000000E+00  0.10792863281E+03  0.10792863281E+03  0.00000000000E+00 0. -1.
          2   -1    0    0  501    0  0.00000000000E+00 -0.00000000000E+00 -0.20560699849E+03  0.20560699849E+03  0.00000000000E+00 0.  1.
          5    1    1    2  502    0 -0.19625707223E+02 -0.32132124185E+01  0.34937969962E+02  0.40418155117E+02  0.41800000000E+01 0.  1.
         -5    1    1    2    0  502  0.31636057330E+02 -0.99930273186E+02 -0.69368864983E+02  0.12576331521E+03  0.41800000000E+01 0.  1.
        -11    1    1    2    0    0  0.35397200920E+02  0.34551736025E+02 -0.19261030300E+02  0.53082686288E+02  0.00000000000E+00 0. -1.
         11    1    1    2    0    0 -0.47407551027E+02  0.68591749580E+02 -0.43986440361E+02  0.94271474691E+02  0.00000000000E+00 0.  1.
</event>
<event>
 6    1  0.4988969E-006  0.7296993E+02  0.7561462E-02  0.1350275E+00
          2   -1    0    0  501    0  0.00000000000E+00  0.00000000000E+00  0.10582954993E+03  0.10582954993E+03  0.00000000000E+00 0. -1.
         -2   -1    0    0    0  501 -0.00000000000E+00 -0.00000000000E+00 -0.16285208721E+03  0.16285208721E+03  0.00000000000E+00 0.  1.
          5    1    1    2  502    0 -0.15093255596E+02 -0.36341127558E+01 -0.10105975555E+03  0.10233063926E+03  0.41800000000E+01 0.  1.
         -5    1    1    2    0  502 -0.42633087274E+01  0.51114864603E+02  0.20098646760E+02  0.55247924724E+02  0.41800000000E+01 0.  1.
        -11    1    1    2    0    0 -0.18976594518E+02 -0.31699385337E+02 -0.26756543680E+02  0.45616606625E+02  0.00000000000E+00 0.  1.
         11    1    1    2    0    0  0.38333158842E+02 -0.15781366510E+02  0.50695115180E+02  0.65486466532E+02  0.00000000000E+00 0. -1.
</event>
<event>
 6    1  0.4988969E-006  0.1841604E+03  0.7561462E-02  0.1163836E+00
          2   -1    0    0  501    0  0.00000000000E+00  0.00000000000E+00  0.60840926779E+03  0.60840926779E+03  0.00000000000E+00 0. -1.
         -2   -1    0    0    0  501 -0.00000000000E+00 -0.00000000000E+00 -0.61914535243E+02  0.61914535243E+02  0.00000000000E+00 0.  1.
          5    1    1    2  502    0 -0.68740891843E+02  0.16706680649E+02  0.56957791953E+02  0.90918017212E+02  0.41800000000E+01 0.  1.
         -5    1    1    2    0  502  0.11213149381E+02  0.11380765219E+03  0.16941209594E+03  0.20444032642E+03  0.41800000000E+01 0.  1.
        -11    1    1    2    0    0  0.87280885915E+02 -0.58420044844E+02  0.24549884408E+03  0.26702160424E+03  0.00000000000E+00 0.  1.
         11    1    1    2    0    0 -0.29753143453E+02 -0.72094287990E+02  0.74626000577E+02  0.10794385517E+03  0.00000000000E+00 0. -1.
</event>
<event>
 6    1  0.4988969E-006  0.1258778E+03  0.7561462E-02  0.1233704E+00
          2   -1    0    0  501    0  0.00000000000E+00  0.00000000000E+00  0.13077862781E+03  0.13077862781E+03  0.00000000000E+00 0. -1.
         -2   -1    0    0    0  501 -0.00000000000E+00 -0.00000000000E+00 -0.20610921720E+03  0.20610921720E+03  0.00000000000E+00 0.  1.
          5    1    1    2  502    0 -0.91780222123E+01  0.55496103065E+02 -0.10462395814E+02  0.57367130601E+02  0.41800000000E+01 0.  1.
         -5    1    1    2    0  502 -0.88757584750E+02 -0.31429018227E+02 -0.10095370248E+03  0.13811160155E+03  0.41800000000E+01 0.  1.
        -11    1    1    2    0    0  0.35032227502E+02 -0.51151607509E+01 -0.31330925071E+02  0.47276301665E+02  0.00000000000E+00 0.  1.
         11    1    1    2    0    0  0.62903379460E+02 -0.18951924087E+02  0.67416433980E+02  0.94132811201E+02  0.00000000000E+00 0. -1.
</event>
<event>
 6    1  0.4988969E-006  0.1142312E+03  0.7561462E-02  0.1252929E+00
         -2   -1    0    0    0  501 -0.00000000000E+00  0.00000000000E+00  0.35274871743E+02  0.35274871743E+02  0.00000000000E+00 0.  1.
          2   -1    0    0  501    0  0.00000000000E+00 -0.00000000000E+00 -0.42589513609E+03  0.42589513609E+03  0.00000000000E+00 0. -1.
          5    1    1    2  502    0  0.57342755777E+02 -0.32586383469E+02 -0.15970061348E+03  0.17283466774E+03  0.41800000000E+01 0. -1.
         -5    1    1    2    0  502 -0.58147898359E+01  0.56352510923E+02 -0.39725727072E+02  0.69318273634E+02  0.41800000000E+01 0. -1.
        -11    1    1    2    0    0 -0.34781017777E+02  0.32049302741E+02 -0.10259644498E+03  0.11297303894E+03  0.00000000000E+00 0.  1.
         11    1    1    2    0    0 -0.16746948164E+02 -0.55815430195E+02 -0.88597478813E+02  0.10604402752E+03  0.00000000000E+00 0. -1.
</event>
<event>
 6    1  0.4988969E-006  0.7939876E+02  0.7561462E-02  0.1330766E+00
          1   -1    0    0  501    0  0.00000000000E+00  0.00000000000E+00  0.13278871273E+03  0.13278871273E+03  0.00000000000E+00 0. -1.
         -1   -1    0    0    0  501 -0.00000000000E+00 -0.00000000000E+00 -0.95299632076E+02  0.95299632076E+02  0.00000000000E+00 0.  1.
          5    1    1    2  502    0  0.75464284551E+00  0.28036374269E+02  0.68705331856E+02  0.74326999088E+02  0.41800000000E+01 0.  1.
         -5    1    1    2    0  502  0.29351623796E+02 -0.23743097420E+02 -0.42548045789E+02  0.57035612515E+02  0.41800000000E+01 0.  1.
        -11    1    1    2    0    0  0.40061924227E+01 -0.41665795242E+02  0.18234078497E+02  0.45657088053E+02  0.00000000000E+00 0. -1.
         11    1    1    2    0    0 -0.34112459064E+02  0.37372518393E+02 -0.69022839083E+01  0.51068645152E+02  0.00000000000E+00 0.  1.
</event>
<event>
 6    1  0.4988969E-006  0.1680346E+03  0.7561462E-02  0.1179913E+00
         -2   -1    0    0    0  501 -0.00000000000E+00  0.00000000000E+00  0.21198350380E+03  0.21198350380E+03  0.00000000000E+00 0.  1.
          2   -1    0    0  501    0  0.00000000000E+00 -0.00000000000E+00 -0.17600505606E+03  0.17600505606E+03  0.00000000000E+00 0. -1.
          5    1    1    2  502    0 -0.37866671978E+02  0.42436598291E+02  0.51809914368E+02  0.77048616782E+02  0.41800000000E+01 0.  1.
         -5    1    1    2    0  502 -0.81181891554E+02 -0.83781128958E+02  0.44293372271E+02  0.12485652691E+03  0.41800000000E+01 0.  1.
        -11    1    1    2    0    0  0.12370736588E+03  0.30672637220E+01 -0.75062050317E+02  0.14473158563E+03  0.00000000000E+00 0.  1.
         11    1    1    2    0    0 -0.46588023480E+01  0.38277266945E+02  0.14937211416E+02  0.41351830539E+02  0.00000000000E+00 0. -1.
</event>
<event>
 6    1  0.4988969E-006  0.8736982E+02  0.7561462E-02  0.1309349E+00
         -1   -1    0    0    0  501 -0.00000000000E+00  0.00000000000E+00  0.33557857586E+02  0.33557857586E+02  0.00000000000E+00 0.  1.
          1   -1    0    0  501    0  0.00000000000E+00 -0.00000000000E+00 -0.37429233888E+03  0.37429233888E+03  0.00000000000E+00 0. -1.
          5    1    1    2  502    0  0.16017296210E+02 -0.53939223245E+02 -0.43893950445E+02  0.71485277280E+02  0.41800000000E+01 0. -1.
         -5    1    1    2    0  502  0.78624806439E+01  0.61972336070E+02 -0.12908026989E+03  0.14346280882E+03  0.41800000000E+01 0. -1.
        -11    1    1    2    0    0 -0.39472641877E+02 -0.45747097605E+01 -0.17187507874E+03  0.17640878697E+03  0.00000000000E+00 0. -1.
         11    1    1    2    0    0  0.15592865024E+02 -0.34584030641E+01  0.41148177818E+01  0.16493323400E+02  0.00000000000E+00 0.  1.
</event>
<event>
 6    1  0.4988969E-006  0.2690840E+03  0.7561462E-02  0.1101805E+00
         -1   -1    0    0    0  501 -0.00000000000E+00  0.00000000000E+00  0.10929593187E+04  0.10929593187E+04  0.00000000000E+00 0.  1.
          1   -1    0    0  501    0  0.00000000000E+00 -0.00000000000E+00 -0.77576412488E+02  0.77576412488E+02  0.00000000000E+00 0. -1.
          5    1    1    2  502    0  0.35793269990E+01 -0.15746088277E+02 -0.25767151313E-01  0.16680046215E+02  0.41800000000E+01 0.  1.
         -5    1    1    2    0  502  0.94725558931E+02 -0.22610978034E+03  0.65646820373E+03  0.70076139962E+03  0.41800000000E+01 0.  1.
        -11    1    1    2    0    0 -0.79363893439E+02  0.77733516669E+02  0.13582004458E+03  0.17546569951E+03  0.00000000000E+00 0. -1.
         11    1    1    2    0    0 -0.18940992491E+02  0.16412235195E+03  0.22312042508E+03  0.27762858587E+03  0.00000000000E+00 0.  1.
</event>
<event>
 6    1  0.4988969E-006  0.5175905E+02  0.7561462E-02  0.1436078E+00
          1   -1    0    0  501    0  0.00000000000E+00  0.00000000000E+00  0.96544653030E+02  0.96544653030E+02  0.00000000000E+00 0. -1.
         -1   -1    0    0    0  501 -0.00000000000E+00 -0.00000000000E+00 -0.17511428035E+03  0.17511428035E+03  0.00000000000E+00 0.  1.
          5    1    1    2  502    0  0.35391200613E+02  0.28146534538E+01 -0.13125366643E+03  0.13603476286E+03  0.41800000000E+01 0. -1.
         -5    1    1    2    0  502 -0.84485631177E+01  0.20204861588E+02  0.23815324035E+02  0.32622947590E+02  0.41800000000E+01 0. -1.
        -11    1    1    2    0    0 -0.31397723241E+02 -0.12042684403E+02 -0.28709923338E+02  0.44216546342E+02  0.00000000000E+00 0.  1.
         11    1    1    2    0    0  0.44550857454E+01 -0.10976830639E+02  0.57578638414E+02  0.58784676588E+02  0.00000000000E+00 0. -1.
</event>
<event>
 6    1  0.4988969E-006  0.1204195E+03  0.7561462E-02  0.1242407E+00
          1   -1    0    0  501    0  0.00000000000E+00  0.00000000000E+00  0.23539934269E+03  0.23539934269E+03  0.00000000000E+00 0. -1.
         -1   -1    0    0    0  501 -0.00000000000E+00 -0.00000000000E+00 -0.74315464669E+02  0.74315464669E+02  0.00000000000E+00 0.  1.
          5    1    1    2  502    0 -0.31183620530E+02  0.89276713806E+02  0.10084350538E+02  0.95194098258E+02  0.41800000000E+01 0. -1.
         -5    1    1    2    0  502  0.15029392941E+02 -0.37188857303E+02  0.17832168986E+02  0.44094811605E+02  0.41800000000E+01 0. -1.
        -11    1    1    2    0    0 -0.25640693011E+02 -0.58214110239E+02  0.71789828203E+02  0.95917189296E+02  0.00000000000E+00 0.  1.
         11    1    1    2    0    0  0.41794920601E+02  0.61262537363E+01  0.61377530296E+02  0.74508708203E+02  0.00000000000E+00 0. -1.
</event>
<event>
 6    1  0.4988969E-006  0.1156213E+03  0.7561462E-02  0.1250500E+00
          2   -1    0    0  501    0  0.00000000000E+00  0.00000000000E+00  0.47222446680E+03  0.47222446680E+03  0.00000000000E+00 0. -1.
         -2   -1    0    0    0  501 -0.00000000000E+00 -0.00000000000E+00 -0.47491101702E+02  0.47491101702E+02  0.00000000000E+00 0.  1.
          5    1    1    2  502    0  0.12493728233E+02 -0.77319284437E+01 -0.16031265462E+02  0.22143844177E+02  0.41800000000E+01 0. -1.
         -5    1    1    2    0  502  0.61433278167E+02 -0.58598936005E+02  0.22754093249E+03  0.24289963221E+03  0.41800000000E+01 0. -1.
        -11    1    1    2    0    0  0.11339117577E+02  0.40223738597E+02  0.31789236462E+02  0.52507906918E+02  0.00000000000E+00 0.  1.
         11    1    1    2    0    0 -0.85266123977E+02  0.26107125852E+02  0.18143446160E+03  0.20216418520E+03  0.00000000000E+00 0. -1.
</event>
<event>
 6    1  0.4988969E-006  0.1250739E+03  0.7561462E-02  0.1234954E+00
         -1   -1    0    0    0  501 -0.00000000000E+00  0.00000000000E+00  0.26332860384E+03  0.26332860384E+03  0.00000000000E+00 0.  1.
          1   -1    0    0  501    0  0.00000000000E+00 -0.00000000000E+00 -0.13275744391E+03  0.13275744391E+03  0.00000000000E+00 0. -1.
          5    1    1    2  502    0 -0.86241641509E+02  0.35253720019E+02  0.85902599060E+02  0.12679579816E+03  0.41800000000E+01 0. -1.
         -5    1    1    2    0  502  0.35799724839E+02  0.40793316965E+02  0.11158743960E+03  0.12415693329E+03  0.41800000000E+01 0. -1.
        -11    1    1    2    0    0  0.13739107850E+02 -0.61423471879E+02  0.49342812538E+01  0.63134405150E+02  0.00000000000E+00 0.  1.
         11    1    1    2    0    0  0.36702808819E+02 -0.14623565105E+02 -0.71853159985E+02  0.81998911160E+02  0.00000000000E+00 0. -1.
</event>
<event>
 6    1  0.4988969E-006  0.2052875E+03  0.7561462E-02  0.1145353E+00
         -2   -1    0    0    0  501 -0.00000000000E+00  0.00000000000E+00  0.76314687537E+02  0.76314687537E+02  0.00000000000E+00 0.  1.
          2   -1    0    0  501    0  0.00000000000E+00 -0.00000000000E+00 -0.63639506391E+03  0.63639506391E+03  0.00000000000E+00 0. -1.
          5    1    1    2  502    0 -0.10592595519E+03  0.61983218345E+02 -0.71179553078E+02  0.14193741055E+03  0.41800000000E+01 0. -1.
         -5    1    1    2    0  502 -0.27580111434E+02  0.73753808245E+02 -0.18371060514E+03  0.19991834738E+03  0.41800000000E+01 0. -1.
        -11    1    1    2    0    0  0.10791760561E+03 -0.49056600783E+02 -0.14905086992E+03  0.19044401147E+03  0.00000000000E+00 0. -1.
         11    1    1    2    0    0  0.25588461010E+02 -0.86680425806E+02 -0.15613934824E+03  0.18040998205E+03  0.00000000000E+00 0.  1.
</event>
<event>
 6    1  0.4988969E-006  0.8954849E+02  0.7561462E-02  0.1303949E+00
         -1   -1    0    0    0  501 -0.00000000000E+00  0.00000000000E+00  0.12536045689E+03  0.12536045689E+03  0.00000000000E+00 0.  1.
          1   -1    0    0  501    0  0.00000000000E+00 -0.00000000000E+00 -0.30225349063E+03  0.30225349063E+03  0.00000000000E+00 0. -1.
          5    1    1    2  502    0 -0.43089511844E+02  0.10950231259E+02 -0.27138505076E+01  0.44737579060E+02  0.41800000000E+01 0. -1.
         -5    1    1    2    0  502  0.55797206835E+02  0.48099274237E+00  0.88082034147E+02  0.10435265586E+03  0.41800000000E+01 0.  1.
        -11    1    1    2    0    0  0.59661578996E+01 -0.42131927349E+02 -0.21490597622E+03  0.21907823479E+03  0.00000000000E+00 0.  1.
         11    1    1    2    0    0 -0.18673852890E+02  0.30700703348E+02 -0.47355241155E+02  0.59445477815E+02  0.00000000000E+00 0. -1.
</event>
<event>
 6    1  0.4988969E-006  0.3004463E+03  0.7561462E-02  0.1085018E+00
          2   -1    0    0  501    0  0.00000000000E+00  0.00000000000E+00  0.20712778405E+04  0.20712778405E+04  0.00000000000E+00 0. -1.
         -2   -1    0    0    0  501 -0.00000000000E+00 -0.00000000000E+00 -0.57963751546E+02  0.57963751546E+02  0.00000000000E+00 0.  1.
          5    1    1    2  502    0  0.71821172571E+02 -0.27345082616E+03  0.44833621701E+03  0.53005327189E+03  0.41800000000E+01 0.  1.
         -5    1    1    2    0  502  0.14697624546E+02 -0.93550208847E+01  0.13189383103E+03  0.13310519016E+03  0.41800000000E+01 0.  1.
        -11    1    1    2    0    0 -0.35456073662E+02  0.46586708291E+02  0.16262825504E+03  0.17284502852E+03  0.00000000000E+00 0.  1.
         11    1    1    2    0    0 -0.51062723455E+02  0.23621913875E+03  0.12704557859E+04  0.12932381015E+04  0.00000000000E+00 0. -1.
</event>
<event>
 6    1  0.4988969E-006  0.8973360E+02  0.7561462E-02  0.1303498E+00
         -2   -1    0    0    0  501 -0.00000000000E+00  0.00000000000E+00  0.15013560271E+03  0.15013560271E+03  0.00000000000E+00 0. -1.
          2   -1    0    0  501    0  0.00000000000E+00 -0.00000000000E+00 -0.97750310226E+02  0.97750310226E+02  0.00000000000E+00 0.  1.
          5    1    1    2  502    0 -0.30980370039E+02  0.27445954769E+01 -0.39455741881E+02  0.50413729276E+02  0.41800000000E+01 0.  1.
         -5    1    1    2    0  502  0.86444244209E+01  0.44898865728E+02  0.78257525046E+02  0.90732281154E+02  0.41800000000E+01 0.  1.
        -11    1    1    2    0    0  0.53632611154E+02 -0.12417890695E+02 -0.66645787917E+01  0.55453382214E+02  0.00000000000E+00 0.  1.
         11    1    1    2    0    0 -0.31296665536E+02 -0.35225570510E+02  0.20248088111E+02  0.51286520291E+02  0.00000000000E+00 0. -1.
</event>
<event>
 6    1  0.4988969E-006  0.7049397E+02  0.7561462E-02  0.1358421E+00
          2   -1    0    0  501    0  0.00000000000E+00  0.00000000000E+00  0.10451670777E+03  0.10451670777E+03  0.00000000000E+00 0. -1.
         -2   -1    0    0    0  501 -0.00000000000E+00 -0.00000000000E+00 -0.12297929847E+03  0.12297929847E+03  0.00000000000E+00 0.  1.
          5    1    1    2  502    0 -0.16781407034E+02 -0.38975510088E+00 -0.67217863796E+02  0.69408076939E+02  0.41800000000E+01 0.  1.
         -5    1    1    2    0  502 -0.87223253376E+01  0.26039659859E+02  0.54761050128E+02  0.61403484071E+02  0.41800000000E+01 0.  1.
        -11    1    1    2    0    0 -0.96160845287E+01  0.29221665920E+02 -0.69110016021E+01  0.31529934728E+02  0.00000000000E+00 0.  1.
         11    1    1    2    0    0  0.35119816900E+02 -0.54871570678E+02  0.90522456533E+00  0.65154510506E+02  0.00000000000E+00 0. -1.
</event>
<event>
 6    1  0.4988969E-006  0.2236875E+03  0.7561462E-02  0.1131163E+00
         -2   -1    0    0    0  501 -0.00000000000E+00  0.00000000000E+00  0.93705235032E+02  0.93705235032E+02  0.00000000000E+00 0.  1.
          2   -1    0    0  501    0  0.00000000000E+00 -0.00000000000E+00 -0.76147263627E+03  0.76147263627E+03  0.00000000000E+00 0. -1.
          5    1    1    2  502    0  0.61047799247E+02 -0.14238150953E+03 -0.18055568772E+03  0.23794360008E+03  0.41800000000E+01 0. -1.
         -5    1    1    2    0  502  0.21628405609E+02 -0.59327075663E+02  0.12356910994E+02  0.64479884345E+02  0.41800000000E+01 0. -1.
        -11    1    1    2    0    0  0.12344757275E+02  0.36501061318E+02 -0.14705751553E+03  0.15202181877E+03  0.00000000000E+00 0. -1.
         11    1    1    2    0    0 -0.95020962131E+02  0.16520752387E+03 -0.35251110898E+03  0.40073256811E+03  0.00000000000E+00 0.  1.
</event>
<event>
 6    1  0.4988969E-006  0.9806497E+02  0.7561462E-02  0.1284418E+00
         -1   -1    0    0    0  501 -0.00000000000E+00  0.00000000000E+00  0.10763444736E+04  0.10763444736E+04  0.00000000000E+00 0.  1.
          1   -1    0    0  501    0  0.00000000000E+00 -0.00000000000E+00 -0.16690030048E+02  0.16690030048E+02  0.00000000000E+00 0. -1.
          5    1    1    2  502    0 -0.50660324021E+02 -0.42793173698E+02  0.31571873336E+03  0.32263526642E+03  0.41800000000E+01 0. -1.
         -5    1    1    2    0  502  0.40108829800E+02  0.27695853330E+02  0.56484362393E+03  0.56695817343E+03  0.41800000000E+01 0. -1.
        -11    1    1    2    0    0  0.28055700650E+02  0.40890740395E+02  0.15851241324E+03  0.16608841061E+03  0.00000000000E+00 0.  1.
         11    1    1    2    0    0 -0.17504206428E+02 -0.25793420026E+02  0.20579673052E+02  0.37352653216E+02  0.00000000000E+00 0. -1.
</event>
<event>
 6    1  0.4988969E-006  0.1089201E+03  0.7561462E-02  0.1262583E+00
          2   -1    0    0  501    0  0.00000000000E+00  0.00000000000E+00  0.10191184961E+04  0.10191184961E+04  0.00000000000E+00 0. -1.
         -2   -1    0    0    0  501 -0.00000000000E+00 -0.00000000000E+00 -0.12615398096E+02  0.12615398096E+02  0.00000000000E+00 0.  1.
          5    1    1    2  502    0 -0.27760172246E+02  0.48258208803E+02  0.32932162769E+03  0.33402049150E+03  0.41800000000E+01 0. -1.
         -5    1    1    2    0  502  0.43421907402E+02 -0.45224118762E+02  0.17893911318E+03  0.18965063033E+03  0.41800000000E+01 0. -1.
        -11    1    1    2    0    0  0.14039239948E+02  0.42529549457E+02  0.20778348887E+03  0.21255550118E+03  0.00000000000E+00 0.  1.
         11    1    1    2    0    0 -0.29700975104E+02 -0.45563639498E+02  0.29045886831E+03  0.29550727122E+03  0.00000000000E+00 0. -1.
</event>
<event>
 6    1  0.4988969E-006  0.2899826E+03  0.7561462E-02  0.1090358E+00
          2   -1    0    0  501    0  0.00000000000E+00  0.00000000000E+00  0.76221835177E+03  0.76221835177E+03  0.00000000000E+00 0.  1.
         -2   -1    0    0    0  501 -0.00000000000E+00 -0.00000000000E+00 -0.11752579465E+03  0.11752579465E+03  0.00000000000E+00 0. -1.
          5    1    1    2  502    0 -0.11273209537E+02 -0.14238767689E+03  0.11133893912E+03  0.18114957231E+03  0.41800000000E+01 0.  1.
         -5    1    1    2    0  502 -0.12119447457E+03 -0.10222877971E+03  0.19174538071E+03  0.24884249535E+03  0.41800000000E+01 0.  1.
        -11    1    1    2    0    0  0.58156780083E+02  0.94513519964E+02  0.20701676770E+03  0.23488499023E+03  0.00000000000E+00 0.  1.
         11    1    1    2    0    0  0.74310904023E+02  0.15010293664E+03  0.13459146959E+03  0.21486708853E+03  0.00000000000E+00 0. -1.
</event>
<event>
 6    1  0.4988969E-006  0.7270684E+02  0.7561462E-02  0.1351123E+00
         -1   -1    0    0    0  501 -0.00000000000E+00  0.00000000000E+00  0.23636212593E+03  0.23636212593E+03  0.00000000000E+00 0.  1.
          1   -1    0    0  501    0  0.00000000000E+00 -0.00000000000E+00 -0.69134544341E+02  0.69134544341E+02  0.00000000000E+00 0. -1.
          5    1    1    2  502    0  0.39124836589E+02  0.17295329939E+01 -0.17383118252E+02  0.43051008381E+02  0.41800000000E+01 0. -1.
         -5    1    1    2    0  502  0.16642818187E+02 -0.17635639181E+02  0.13789142203E+03  0.14006968207E+03  0.41800000000E+01 0. -1.
        -11    1    1    2    0    0 -0.40367901074E+02 -0.17987274736E+02  0.66786067888E+02  0.80084257838E+02  0.00000000000E+00 0.  1.
         11    1    1    2    0    0 -0.15399753702E+02  0.33893380924E+02 -0.20066790073E+02  0.42291721984E+02  0.00000000000E+00 0. -1.
</event>
<event>
 6    1  0.4988969E-006  0.1071230E+03  0.7561462E-02  0.1265992E+00
          2   -1    0    0  501    0  0.00000000000E+00  0.00000000000E+00  0.72707089697E+03  0.72707089697E+03  0.00000000000E+00 0. -1.
         -2   -1    0    0    0  501 -0.00000000000E+00 -0.00000000000E+00 -0.19022945398E+02  0.19022945398E+02  0.00000000000E+00 0.  1.
          5    1    1    2  502    0 -0.17345322578E+02  0.66541737178E+02  0.20012979619E+03  0.21165554735E+03  0.41800000000E+01 0. -1.
         -5    1    1    2    0  502  0.21465515636E+02 -0.46734395465E+02  0.72529371629E+02  0.89010416412E+02  0.41800000000E+01 0. -1.
        -11    1    1    2    0    0  0.34123746504E+02 -0.38282447033E+02  0.25510302862E+03  0.26020670829E+03  0.00000000000E+00 0.  1.
         11    1    1    2    0    0 -0.38243939561E+02  0.18475105320E+02  0.18028575513E+03  0.18522117032E+03  0.00000000000E+00 0. -1.
</event>
<event>
 6    1  0.4988969E-006  0.1163159E+03  0.7561462E-02  0.1249301E+00
          4   -1    0    0  501    0  0.00000000000E+00  0.00000000000E+00  0.21633430823E+02  0.21633430823E+02  0.00000000000E+00 0. -1.
         -4   -1    0    0    0  501 -0.00000000000E+00 -0.00000000000E+00 -0.73275732533E+03  0.73275732533E+03  0.00000000000E+00 0.  1.
          5    1    1    2  502    0 -0.64490453167E+02  0.16124910796E+02 -0.35184315711E+03  0.35809232176E+03  0.41800000000E+01 0.  1.
         -5    1    1    2    0  502  0.50026276184E+02  0.34936022902E+02 -0.15442483684E+03  0.16609532395E+03  0.41800000000E+01 0.  1.
        -11    1    1    2    0    0 -0.34845689386E+02 -0.42262525532E+02 -0.11309555213E+03  0.12566203502E+03  0.00000000000E+00 0. -1.
         11    1    1    2    0    0  0.49309866369E+02 -0.87984081655E+01 -0.91760348414E+02  0.10454107541E+03  0.00000000000E+00 0.  1.
</event>
<event>
 6    1  0.4988969E-006  0.1170177E+03  0.7561462E-02  0.1248100E+00
          2   -1    0    0  501    0  0.00000000000E+00  0.00000000000E+00  0.17693832543E+02  0.17693832543E+02  0.00000000000E+00 0. -1.
         -2   -1    0    0    0  501 -0.00000000000E+00 -0.00000000000E+00 -0.13146107710E+04  0.13146107710E+04  0.00000000000E+00 0.  1.
          5    1    1    2  502    0  0.26612842003E+02 -0.16095369250E+01 -0.62152762527E+03  0.62211324961E+03  0.41800000000E+01 0. -1.
         -5    1    1    2    0  502 -0.55902844616E+01 -0.88113803707E+02 -0.31294859402E+03  0.32519161826E+03  0.41800000000E+01 0. -1.
        -11    1    1    2    0    0 -0.47172756898E+02  0.75129891687E+02 -0.32588561891E+03  0.33774429119E+03  0.00000000000E+00 0.  1.
         11    1    1    2    0    0  0.26150199357E+02  0.14593448945E+02 -0.36555100234E+02  0.47255444465E+02  0.00000000000E+00 0. -1.
</event>
<event>
 6    1  0.4988969E-006  0.1409642E+03  0.7561462E-02  0.1212037E+00
          1   -1    0    0  501    0  0.00000000000E+00  0.00000000000E+00  0.88633239878E+02  0.88633239878E+02  0.00000000000E+00 0. -1.
         -1   -1    0    0    0  501 -0.00000000000E+00 -0.00000000000E+00 -0.25998331366E+03  0.25998331366E+03  0.00000000000E+00 0.  1.
          5    1    1    2  502    0 -0.26828712634E+02 -0.15770787536E+02 -0.75097108592E+01  0.32285689063E+02  0.41800000000E+01 0.  1.
         -5    1    1    2    0  502  0.13069629723E+03 -0.20057290955E+01 -0.78112961632E+02  0.15233073306E+03  0.41800000000E+01 0.  1.
        -11    1    1    2    0    0 -0.45085206497E+02 -0.20579886046E+02 -0.79304969821E+02  0.93517302104E+02  0.00000000000E+00 0.  1.
         11    1    1    2    0    0 -0.58782378101E+02  0.38356402677E+02 -0.64224314683E+01  0.70482829310E+02  0.00000000000E+00 0. -1.
</event>
<event>
 6    1  0.4988969E-006  0.1409505E+03  0.7561462E-02  0.1212056E+00
         -2   -1    0    0    0  501 -0.00000000000E+00  0.00000000000E+00  0.77224530090E+03  0.77224530090E+03  0.00000000000E+00 0.  1.
          2   -1    0    0  501    0  0.00000000000E+00 -0.00000000000E+00 -0.33488835011E+02  0.33488835011E+02  0.00000000000E+00 0. -1.
          5    1    1    2  502    0 -0.19299685850E+02 -0.93941815099E+02  0.11010652843E+03  0.14607690611E+03  0.41800000000E+01 0.  1.
         -5    1    1    2    0  502 -0.47454585024E+02 -0.47880250044E+00  0.22332675567E+03  0.22835165664E+03  0.41800000000E+01 0.  1.
        -11    1    1    2    0    0 -0.42952424042E+01  0.58489744635E+02  0.24974004636E+03  0.25653379912E+03  0.00000000000E+00 0.  1.
         11    1    1    2    0    0  0.71049513278E+02  0.35930872964E+02  0.15558313544E+03  0.17477177404E+03  0.00000000000E+00 0. -1.
</event>
<event>
 6    1  0.4988969E-006  0.1463596E+03  0.7561462E-02  0.1205019E+00
         -1   -1    0    0    0  501 -0.00000000000E+00  0.00000000000E+00  0.62661019059E+03  0.62661019059E+03  0.00000000000E+00 0.  1.
          1   -1    0    0  501    0  0.00000000000E+00 -0.00000000000E+00 -0.39225345286E+02  0.39225345286E+02  0.00000000000E+00 0. -1.
          5    1    1    2  502    0  0.46323321519E+02  0.33978579722E+02  0.13193166930E+03  0.14395774297E+03  0.41800000000E+01 0.  1.
         -5    1    1    2    0  502 -0.82207315224E+02  0.58079755808E+02  0.29862466256E+03  0.31515942347E+03  0.41800000000E+01 0.  1.
        -11    1    1    2    0    0 -0.35972112344E+01  0.17529271492E+02  0.25816660854E+02  0.31412024216E+02  0.00000000000E+00 0.  1.
         11    1    1    2    0    0  0.39481204940E+02 -0.10958760702E+03  0.13101185258E+03  0.17530634522E+03  0.00000000000E+00 0. -1.
</event>
<event>
 6    1  0.4988969E-006  0.1236336E+03  0.7561462E-02  0.1237220E+00
         -1   -1    0    0    0  501 -0.00000000000E+00  0.00000000000E+00  0.23784797053E+03  0.23784797053E+03  0.00000000000E+00 0.  1.
          1   -1    0    0  501    0  0.00000000000E+00 -0.00000000000E+00 -0.89068109568E+02  0.89068109568E+02  0.00000000000E+00 0. -1.
          5    1    1    2  502    0  0.73787464420E+02  0.64376899755E+02  0.10607405102E+03  0.14442351549E+03  0.41800000000E+01 0. -1.
         -5    1    1    2    0  502 -0.46489739203E+02  0.17952719953E+01 -0.19593996835E+02  0.50654871086E+02  0.41800000000E+01 0.  1.
        -11    1    1    2    0    0 -0.51837747073E+02 -0.55001830127E+02  0.70805356176E+02  0.10356520556E+03  0.00000000000E+00 0.  1.
         11    1    1    2    0    0  0.24540021857E+02 -0.11170341624E+02 -0.85055494019E+01  0.28272487959E+02  0.00000000000E+00 0. -1.
</event>
<event>
 6    1  0.4988969E-006  0.1295838E+03  0.7561462E-02  0.1228075E+00
          2   -1    0    0  501    0  0.00000000000E+00  0.00000000000E+00  0.53666914251E+02  0.53666914251E+02  0.00000000000E+00 0. -1.
         -2   -1    0    0    0  501 -0.00000000000E+00 -0.00000000000E+00 -0.37361362299E+03  0.37361362299E+03  0.00000000000E+00 0.  1.
          5    1    1    2  502    0  0.22963110282E+02  0.24201107860E+02 -0.61883998624E+02  0.70427975557E+02  0.41800000000E+01 0.  1.
         -5    1    1    2    0  502 -0.20900697647E+02 -0.11579318914E+03 -0.11133865352E+03  0.16204527139E+03  0.41800000000E+01 0.  1.
        -11    1    1    2    0    0 -0.27001364857E+02  0.25393398385E+02 -0.63363319114E+01  0.37603822782E+02  0.00000000000E+00 0. -1.
         11    1    1    2    0    0  0.24938952222E+02  0.66198682894E+02 -0.14038772468E+03  0.15720346750E+03  0.00000000000E+00 0.  1.
</event>
<event>
 6    1  0.4988969E-006  0.8432788E+02  0.7561462E-02  0.1317200E+00
         -2   -1    0    0    0  501 -0.00000000000E+00  0.00000000000E+00  0.49365673721E+02  0.49365673721E+02  0.00000000000E+00 0. -1.
          2   -1    0    0  501    0  0.00000000000E+00 -0.00000000000E+00 -0.33049137448E+03  0.33049137448E+03  0.00000000000E+00 0.  1.
          5    1    1    2  502    0 -0.48799166032E+02  0.79004420577E+01 -0.13961817853E+03  0.14817045510E+03  0.41800000000E+01 0. -1.
         -5    1    1    2    0  502 -0.95058070160E+01 -0.36547201538E+02  0.14141247012E+02  0.40540172352E+02  0.41800000000E+01 0. -1.
        -11    1    1    2    0    0  0.53308594488E+02  0.41307693115E+02 -0.16247789512E+03  0.17591815756E+03  0.00000000000E+00 0.  1.
         11    1    1    2    0    0  0.49963785594E+01 -0.12660933635E+02  0.68291258799E+01  0.15228263181E+02  0.00000000000E+00 0. -1.
</event>
<event>
 6    1  0.4988969E-006  0.1046046E+03  0.7561462E-02  0.1270901E+00
          2   -1    0    0  501    0  0.00000000000E+00  0.00000000000E+00  0.53954880193E+03  0.53954880193E+03  0.00000000000E+00 0. -1.
         -2   -1    0    0    0  501 -0.00000000000E+00 -0.00000000000E+00 -0.28460121514E+02  0.28460121514E+02  0.00000000000E+00 0.  1.
          5    1    1    2  502    0 -0.10868428955E+02  0.27920582240E+02  0.53667432570E+01  0.30723866843E+02  0.41800000000E+01 0. -1.
         -5    1    1    2    0  502 -0.18474834178E+02 -0.68285499862E+02  0.22751628545E+03  0.23829679296E+03  0.41800000000E+01 0. -1.
        -11    1    1    2    0    0  0.43713557396E+02  0.65731231310E+02  0.22296047264E+03  0.23652239266E+03  0.00000000000E+00 0. -1.
         11    1    1    2    0    0 -0.14370294264E+02 -0.25366313688E+02  0.55245179070E+02  0.62465870984E+02  0.00000000000E+00 0.  1.
</event>
<event>
 6    1  0.4988969E-006  0.8962129E+02  0.7561462E-02  0.1303771E+00
          3   -1    0    0  501    0  0.00000000000E+00  0.00000000000E+00  0.86155558387E+02  0.86155558387E+02  0.00000000000E+00 0. -1.
         -3   -1    0    0    0  501 -0.00000000000E+00 -0.00000000000E+00 -0.18627681219E+03  0.18627681219E+03  0.00000000000E+00 0.  1.
          5    1    1    2  502    0 -0.51189037875E+02 -0.31277279222E+02 -0.11033260676E+03  0.12565564973E+03  0.41800000000E+01 0.  1.
         -5    1    1    2    0  502 -0.43787825490E+01  0.91113562158E+01  0.31846515327E+02  0.33672889499E+02  0.41800000000E+01 0.  1.
        -11    1    1    2    0    0  0.80651517381E+02  0.19252061615E+02 -0.54217608986E+01  0.83094552310E+02  0.00000000000E+00 0.  1.
         11    1    1    2    0    0 -0.25083696957E+02  0.29138613905E+01 -0.16213401471E+02  0.30009279040E+02  0.00000000000E+00 0. -1.
</event>
<event>
 6    1  0.4988969E-006  0.1193579E+03  0.7561462E-02  0.1244160E+00
          2   -1    0    0  501    0  0.00000000000E+00  0.00000000000E+00  0.67786220429E+03  0.67786220429E+03  0.00000000000E+00 0. -1.
         -2   -1    0    0    0  501 -0.00000000000E+00 -0.00000000000E+00 -0.22843297270E+02  0.22843297270E+02  0.00000000000E+00 0.  1.
          5    1    1    2  502    0  0.71836740510E+02 -0.53216455895E+02  0.19565462663E+03  0.21515276849E+03  0.41800000000E+01 0.  1.
         -5    1    1    2    0  502 -0.48981801743E+02 -0.20164379854E+01  0.11195924379E+03  0.12229320338E+03  0.41800000000E+01 0.  1.
        -11    1    1    2    0    0  0.24846299295E+02 -0.26764560337E+01  0.42899276831E+02  0.49647255293E+02  0.00000000000E+00 0.  1.
         11    1    1    2    0    0 -0.47701238061E+02  0.57909349914E+02  0.30450575977E+03  0.31361227440E+03  0.00000000000E+00 0. -1.
</event>
<event>
 6    1  0.4988969E-006  0.9880840E+02  0.7561462E-02  0.1282822E+00
          1   -1    0    0  501    0  0.00000000000E+00  0.00000000000E+00  0.33739313088E+03  0.33739313088E+03  0.00000000000E+00 0. -1.
         -1   -1    0    0    0  501 -0.00000000000E+00 -0.00000000000E+00 -0.36290736573E+02  0.36290736573E+02  0.00000000000E+00 0.  1.
          5    1    1    2  502    0 -0.22845382396E+02 -0.42632150995E+02  0.29309470090E+02  0.56709163565E+02  0.41800000000E+01 0.  1.
         -5    1    1    2    0  502  0.23521766127E+02  0.62057684331E+02  0.13713950330E+03  0.15241110665E+03  0.41800000000E+01 0.  1.
        -11    1    1    2    0    0 -0.26116596116E+01 -0.50935451193E+02  0.11869758206E+03  0.12919116433E+03  0.00000000000E+00 0. -1.
         11    1    1    2    0    0  0.19352758810E+01  0.31509917856E+02  0.15955838860E+02  0.35372432907E+02  0.00000000000E+00 0.  1.
</event>
<event>
 6    1  0.4988969E-006  0.1676794E+03  0.7561462E-02  0.1180290E+00
         -1   -1    0    0    0  501 -0.00000000000E+00  0.00000000000E+00  0.43567508734E+02  0.43567508734E+02  0.00000000000E+00 0.  1.
          1   -1    0    0  501    0  0.00000000000E+00 -0.00000000000E+00 -0.65826189306E+03  0.65826189306E+03  0.00000000000E+00 0. -1.
          5    1    1    2  502    0 -0.10581960984E+03  0.85918799391E+02 -0.24715358723E+03  0.28228035354E+03  0.41800000000E+01 0. -1.
         -5    1    1    2    0  502  0.36014019247E+02  0.22812553205E+02 -0.96674465574E+02  0.10573952364E+03  0.41800000000E+01 0. -1.
        -11    1    1    2    0    0  0.10885486269E+02 -0.95039985326E+02 -0.19104831797E+03  0.21365989896E+03  0.00000000000E+00 0.  1.
         11    1    1    2    0    0  0.58920104325E+02 -0.13691367270E+02 -0.79818013552E+02  0.10014962565E+03  0.00000000000E+00 0. -1.
</event>
<event>
 6    1  0.4988969E-006  0.1189422E+03  0.7561462E-02  0.1244852E+00
         -1   -1    0    0    0  501 -0.00000000000E+00  0.00000000000E+00  0.24207483763E+03  0.24207483763E+03  0.00000000000E+00 0.  1.
          1   -1    0    0  501    0  0.00000000000E+00 -0.00000000000E+00 -0.71593096041E+02  0.71593096041E+02  0.00000000000E+00 0. -1.
          5    1    1    2  502    0 -0.81431600712E+01 -0.28746103344E+02  0.78082146075E+02  0.83707487413E+02  0.41800000000E+01 0.  1.
         -5    1    1    2    0  502  0.22583595995E+02  0.90384213370E+02  0.48190468761E+02  0.10497198919E+03  0.41800000000E+01 0.  1.
        -11    1    1    2    0    0 -0.53005573600E+02 -0.17438131365E+02  0.88541851043E+01  0.56498458847E+02  0.00000000000E+00 0. -1.
         11    1    1    2    0    0  0.38565137677E+02 -0.44199978661E+02  0.35354941649E+02  0.68489998223E+02  0.00000000000E+00 0.  1.
</event>
<event>
 6    1  0.4988969E-006  0.1739163E+03  0.7561462E-02  0.1173824E+00
         -3   -1    0    0    0  501 -0.00000000000E+00  0.00000000000E+00  0.18118335778E+03  0.18118335778E+03  0.00000000000E+00 0.  1.
          3   -1    0    0  501    0  0.00000000000E+00 -0.00000000000E+00 -0.17863394360E+03  0.17863394360E+03  0.00000000000E+00 0. -1.
          5    1    1    2  502    0 -0.41587807829E+02 -0.76248760609E+02 -0.17523268730E+02  0.88701502814E+02  0.41800000000E+01 0.  1.
         -5    1    1    2    0  502 -0.92739904378E+02  0.27260301410E+02  0.31390822677E+02  0.10171858260E+03  0.41800000000E+01 0.  1.
        -11    1    1    2    0    0  0.47370406685E+02  0.60030682444E+02 -0.25483826530E+02  0.80604365135E+02  0.00000000000E+00 0.  1.
         11    1    1    2    0    0  0.86957305522E+02 -0.11042223245E+02  0.14165686772E+02  0.88792850836E+02  0.00000000000E+00 0. -1.
</event>
<event>
 6    1  0.4988969E-006  0.8777931E+02  0.7561462E-02  0.1308320E+00
         -2   -1    0    0    0  501 -0.00000000000E+00  0.00000000000E+00  0.36873566693E+03  0.36873566693E+03  0.00000000000E+00 0.  1.
          2   -1    0    0  501    0  0.00000000000E+00 -0.00000000000E+00 -0.38696245584E+02  0.38696245584E+02  0.00000000000E+00 0. -1.
          5    1    1    2  502    0  0.17258284633E+01  0.21386204410E+02  0.15703650037E+03  0.15855056945E+03  0.41800000000E+01 0. -1.
         -5    1    1    2    0  502 -0.31511346103E+02 -0.57910690595E+02  0.33157395148E+02  0.73915480594E+02  0.41800000000E+01 0. -1.
        -11    1    1    2    0    0  0.30898052862E+02 -0.16210029068E+02  0.10766529456E+03  0.11317804719E+03  0.00000000000E+00 0.  1.
         11    1    1    2    0    0 -0.11125352223E+01  0.52734515253E+02  0.32180231276E+02  0.61787815292E+02  0.00000000000E+00 0. -1.
</event>
<event>
 6    1  0.4988969E-006  0.1932888E+03  0.7561462E-02  0.1155528E+00
          2   -1    0    0  501    0  0.00000000000E+00  0.00000000000E+00  0.47578659875E+03  0.47578659875E+03  0.00000000000E+00 0. -1.
         -2   -1    0    0    0  501 -0.00000000000E+00 -0.00000000000E+00 -0.13586048971E+03  0.13586048971E+03  0.00000000000E+00 0.  1.
          5    1    1    2  502    0 -0.42729705233E+02  0.11505882397E+02 -0.27226685828E+02  0.52124637746E+02  0.41800000000E+01 0.  1.
         -5    1    1    2    0  502  0.12942696853E+02  0.16055594353E+03  0.22698236034E+02  0.16272186922E+03  0.41800000000E+01 0.  1.
        -11    1    1    2    0    0  0.16611609020E+02 -0.16540358390E+03  0.34396634542E+03  0.38203028401E+03  0.00000000000E+00 0. -1.
         11    1    1    2    0    0  0.13175399359E+02 -0.66582420293E+01  0.48821340489E+00  0.14770297476E+02  0.00000000000E+00 0.  1.
</event>
<event>
 6    1  0.4988969E-006  0.1112235E+03  0.7561462E-02  0.1258321E+00
         -1   -1    0    0    0  501 -0.00000000000E+00  0.00000000000E+00  0.15244026016E+02  0.15244026016E+02  0.00000000000E+00 0.  1.
          1   -1    0    0  501    0  0.00000000000E+00 -0.00000000000E+00 -0.87710700053E+03  0.87710700053E+03  0.00000000000E+00 0. -1.
          5    1    1    2  502    0 -0.62081455684E+02 -0.42229608517E+02 -0.25173251103E+03  0.26272452586E+03  0.41800000000E+01 0. -1.
         -5    1    1    2    0  502  0.55368805940E+02  0.26588249538E+01 -0.22677386588E+03  0.23348797114E+03  0.41800000000E+01 0. -1.
        -11    1    1    2    0    0  0.39958508923E+02  0.42436897121E+02 -0.31156795833E+03  0.31697344579E+03  0.00000000000E+00 0. -1.
         11    1    1    2    0    0 -0.33245859180E+02 -0.28661135583E+01 -0.71788639270E+02  0.79165083766E+02  0.00000000000E+00 0.  1.
</event>
<event>
 6    1  0.4988969E-006  0.1297357E+03  0.7561462E-02  0.1227848E+00
          2   -1    0    0  501    0  0.00000000000E+00  0.00000000000E+00  0.18371090054E+03  0.18371090054E+03  0.00000000000E+00 0. -1.
         -2   -1    0    0    0  501 -0.00000000000E+00 -0.00000000000E+00 -0.14382565563E+03  0.14382565563E+03  0.00000000000E+00 0.  1.
          5    1    1    2  502    0  0.33574048921E+02 -0.81339517692E+02  0.15082863452E+01  0.88108349361E+02  0.41800000000E+01 0.  1.
         -5    1    1    2    0  502 -0.61083357454E+02 -0.16631892517E+02 -0.48484401583E+02  0.79849896703E+02  0.41800000000E+01 0.  1.
        -11    1    1    2    0    0 -0.14030669948E+01  0.60908644856E+02  0.94016301706E+02  0.11203078417E+03  0.00000000000E+00 0. -1.
         11    1    1    2    0    0  0.28912375528E+02  0.37062765353E+02 -0.71549415577E+01  0.47547525939E+02  0.00000000000E+00 0.  1.
</event>
<event>
 6    1  0.4988969E-006  0.1179019E+03  0.7561462E-02  0.1246599E+00
          2   -1    0    0  501    0  0.00000000000E+00  0.00000000000E+00  0.14515489356E+03  0.14515489356E+03  0.00000000000E+00 0.  1.
         -2   -1    0    0    0  501 -0.00000000000E+00 -0.00000000000E+00 -0.15715487984E+03  0.15715487984E+03  0.00000000000E+00 0. -1.
          5    1    1    2  502    0  0.21621806983E+02 -0.78915803404E+02 -0.67538333350E+02  0.10617959049E+03  0.41800000000E+01 0.  1.
         -5    1    1    2    0  502  0.50258343112E+02  0.33060134467E+02 -0.18493848988E+01  0.60330474620E+02  0.41800000000E+01 0.  1.
        -11    1    1    2    0    0 -0.14873301519E+02 -0.64425043202E+01  0.56134282431E+02  0.58427550214E+02  0.00000000000E+00 0.  1.
         11    1    1    2    0    0 -0.57006848576E+02  0.52298173257E+02  0.12534495452E+01  0.77372158083E+02  0.00000000000E+00 0. -1.
</event>
<event>
 6    1  0.4988969E-006  0.1143034E+03  0.7561462E-02  0.1252802E+00
         -2   -1    0    0    0  501 -0.00000000000E+00  0.00000000000E+00  0.37184988839E+03  0.37184988839E+03  0.00000000000E+00 0.  1.
          2   -1    0    0  501    0  0.00000000000E+00 -0.00000000000E+00 -0.54095551692E+02  0.54095551692E+02  0.00000000000E+00 0. -1.
          5    1    1    2  502    0 -0.27326292973E+02 -0.71195040297E+02  0.20635120659E+03  0.22003125439E+03  0.41800000000E+01 0. -1.
         -5    1    1    2    0  502  0.16241353374E+02 -0.16749140485E+02 -0.12756843367E+02  0.26916996844E+02  0.41800000000E+01 0. -1.
        -11    1    1    2    0    0  0.15726468759E+01  0.10711687276E+03  0.97937288878E+02  0.14514892422E+03  0.00000000000E+00 0. -1.
         11    1    1    2    0    0  0.95122927236E+01 -0.19172691980E+02  0.26222684601E+02  0.33848264627E+02  0.00000000000E+00 0.  1.
</event>
<event>
 6    1  0.4988969E-006  0.1645491E+03  0.7561462E-02  0.1183654E+00
          3   -1    0    0  501    0  0.00000000000E+00  0.00000000000E+00  0.31503103878E+03  0.31503103878E+03  0.00000000000E+00 0.  1.
         -3   -1    0    0    0  501 -0.00000000000E+00 -0.00000000000E+00 -0.10168693367E+03  0.10168693367E+03  0.00000000000E+00 0. -1.
          5    1    1    2  502    0  0.57291991783E+02  0.97291109685E+02  0.24799668125E+02  0.11567380121E+03  0.41800000000E+01 0. -1.
         -5    1    1    2    0  502 -0.27853361577E+02  0.41318678299E+02  0.97161222010E+02  0.10927405177E+03  0.41800000000E+01 0. -1.
        -11    1    1    2    0    0  0.18089310933E+02  0.15059408663E+01  0.55934106621E+00  0.18160503582E+02  0.00000000000E+00 0. -1.
         11    1    1    2    0    0 -0.47527941140E+02 -0.14011572885E+03  0.90823873906E+02  0.17360961590E+03  0.00000000000E+00 0.  1.
</event>
<event>
 6    1  0.4988969E-006  0.1823342E+03  0.7561462E-02  0.1165563E+00
         -2   -1    0    0    0  501 -0.00000000000E+00  0.00000000000E+00  0.18660954760E+03  0.18660954760E+03  0.00000000000E+00 0.  1.
          2   -1    0    0  501    0  0.00000000000E+00 -0.00000000000E+00 -0.18274296161E+03  0.18274296161E+03  0.00000000000E+00 0. -1.
          5    1    1    2  502    0  0.10932040439E+02  0.44069792327E+02 -0.57785200770E+01  0.45962156153E+02  0.41800000000E+01 0.  1.
         -5    1    1    2    0  502  0.13410034192E+03 -0.53276037115E+02  0.28278284524E+02  0.14709986950E+03  0.41800000000E+01 0.  1.
        -11    1    1    2    0    0  0.10327469220E+02  0.16183923114E+02 -0.66323246519E+01  0.20311664583E+02  0.00000000000E+00 0. -1.
         11    1    1    2    0    0 -0.15535985158E+03 -0.69776783268E+01 -0.12000853810E+02  0.15597881897E+03  0.00000000000E+00 0.  1.
</event>
<event>
 6    1  0.4988969E-006  0.2058503E+03  0.7561462E-02  0.1144895E+00
          4   -1    0    0  501    0  0.00000000000E+00  0.00000000000E+00  0.54800593585E+03  0.54800593585E+03  0.00000000000E+00 0. -1.
         -4   -1    0    0    0  501 -0.00000000000E+00 -0.00000000000E+00 -0.87610926419E+02  0.87610926419E+02  0.00000000000E+00 0.  1.
          5    1    1    2  502    0 -0.24965703593E+02  0.12279478242E+03  0.84449531664E+02  0.15116560701E+03  0.41800000000E+01 0.  1.
         -5    1    1    2    0  502 -0.93980547080E+02  0.21108641738E+02  0.10730015879E+03  0.14425225982E+03  0.41800000000E+01 0.  1.
        -11    1    1    2    0    0  0.54349586920E+02 -0.92801782192E+02  0.79010664401E+02  0.13344936667E+03  0.00000000000E+00 0.  1.
         11    1    1    2    0    0  0.64596663753E+02 -0.51101641965E+02  0.18963465457E+03  0.20674962877E+03  0.00000000000E+00 0. -1.
</event>
<event>
 6    1  0.4988969E-006  0.1335872E+03  0.7561462E-02  0.1222228E+00
         -1   -1    0    0    0  501 -0.00000000000E+00  0.00000000000E+00  0.28591428949E+03  0.28591428949E+03  0.00000000000E+00 0.  1.
          1   -1    0    0  501    0  0.00000000000E+00 -0.00000000000E+00 -0.71514237125E+02  0.71514237125E+02  0.00000000000E+00 0. -1.
          5    1    1    2  502    0  0.38889711670E+02 -0.80544810726E+01  0.70509310637E+02  0.81032830541E+02  0.41800000000E+01 0. -1.
         -5    1    1    2    0  502 -0.90645661921E+02 -0.50017116608E+02  0.95554929510E+02  0.14094880252E+03  0.41800000000E+01 0. -1.
        -11    1    1    2    0    0  0.65493027451E+02  0.16051019474E+01  0.39946752529E+02  0.76731063035E+02  0.00000000000E+00 0. -1.
         11    1    1    2    0    0 -0.13737077199E+02  0.56466495734E+02  0.83890596870E+01  0.58715830513E+02  0.00000000000E+00 0.  1.
</event>
<event>
 6    1  0.4988969E-006  0.2058427E+03  0.7561462E-02  0.1144901E+00
          1   -1    0    0  501    0  0.00000000000E+00  0.00000000000E+00  0.46804713930E+03  0.46804713930E+03  0.00000000000E+00 0. -1.
         -1   -1    0    0    0  501 -0.00000000000E+00 -0.00000000000E+00 -0.99717359271E+02  0.99717359271E+02  0.00000000000E+00 0.  1.
          5    1    1    2  502    0  0.86140988721E+02  0.10006025337E+03  0.76635294175E+02  0.15271792611E+03  0.41800000000E+01 0. -1.
         -5    1    1    2    0  502  0.75064623338E+02 -0.33097503118E+02  0.34611063988E+02  0.89137761582E+02  0.41800000000E+01 0. -1.
        -11    1    1    2    0    0 -0.46105429780E+02 -0.68217580705E+02  0.13491801629E+03  0.15805764800E+03  0.00000000000E+00 0.  1.
         11    1    1    2    0    0 -0.11510018228E+03  0.12548304559E+01  0.12216540558E+03  0.16785116288E+03  0.00000000000E+00 0. -1.
</event>
<event>
 6    1  0.4988969E-006  0.5557311E+02  0.7561462E-02  0.1417408E+00
          2   -1    0    0  501    0  0.00000000000E+00  0.00000000000E+00  0.14319911609E+03  0.14319911609E+03  0.00000000000E+00 0. -1.
         -2   -1    0    0    0  501 -0.00000000000E+00 -0.00000000000E+00 -0.12103962053E+03  0.12103962053E+03  0.00000000000E+00 0.  1.
          5    1    1    2  502    0  0.18050788508E+01  0.40969376057E+02  0.14655246983E+02  0.43749248546E+02  0.41800000000E+01 0. -1.
         -5    1    1    2    0  502  0.13888252607E+02 -0.19401666513E+02 -0.99126278249E+02  0.10204312649E+03  0.41800000000E+01 0.  1.
        -11    1    1    2    0    0 -0.25163240062E+02 -0.25149435678E+02  0.52769440616E+02  0.63641940796E+02  0.00000000000E+00 0. -1.
         11    1    1    2    0    0  0.94699086041E+01  0.35817261334E+01  0.53861086211E+02  0.54804420797E+02  0.00000000000E+00 0.  1.
</event>
<event>
 6    1  0.4988969E-006  0.1125429E+03  0.7561462E-02  0.1255932E+00
         -2   -1    0    0    0  501 -0.00000000000E+00  0.00000000000E+00  0.55395986852E+02  0.55395986852E+02  0.00000000000E+00 0.  1.
          2   -1    0    0  501    0  0.00000000000E+00 -0.00000000000E+00 -0.68868141895E+03  0.68868141895E+03  0.00000000000E+00 0. -1.
          5    1    1    2  502    0  0.29659654746E+02  0.20859171461E+02  0.25957471309E+02  0.44789093209E+02  0.41800000000E+01 0.  1.
         -5    1    1    2    0  502  0.19116884678E+02 -0.70508935236E+02 -0.79496661535E+02  0.10804701210E+03  0.41800000000E+01 0.  1.
        -11    1    1    2    0    0 -0.17012322054E+01  0.65664556517E+02 -0.35948875068E+03  0.36544067923E+03  0.00000000000E+00 0. -1.
         11    1    1    2    0    0 -0.47075307219E+02 -0.16014792742E+02 -0.22025749119E+03  0.22580062126E+03  0.00000000000E+00 0.  1.
</event>
<event>
 6    1  0.4988969E-006  0.1420419E+03  0.7561462E-02  0.1210608E+00
          1   -1    0    0  501    0  0.00000000000E+00  0.00000000000E+00  0.29152548517E+02  0.29152548517E+02  0.00000000000E+00 0. -1.
         -1   -1    0    0    0  501 -0.00000000000E+00 -0.00000000000E+00 -0.96569550663E+03  0.96569550663E+03  0.00000000000E+00 0.  1.
          5    1    1    2  502    0  0.11008838849E+02  0.68158273658E+02 -0.14179090637E+03  0.15776209408E+03  0.41800000000E+01 0. -1.
         -5    1    1    2    0  502  0.69942973903E+02  0.10609782607E+02 -0.53635482490E+03  0.54101622681E+03  0.41800000000E+01 0. -1.
        -11    1    1    2    0    0 -0.50004712529E+02 -0.96280003435E+02 -0.18379433634E+03  0.21342602561E+03  0.00000000000E+00 0. -1.
         11    1    1    2    0    0 -0.30947100224E+02  0.17511947170E+02 -0.74602890509E+02  0.82643708643E+02  0.00000000000E+00 0.  1.
</event>
<event>
 6    1  0.4988969E-006  0.1519265E+03  0.7561462E-02  0.1198126E+00
          2   -1    0    0  501    0  0.00000000000E+00  0.00000000000E+00  0.48016151862E+03  0.48016151862E+03  0.00000000000E+00 0. -1.
         -2   -1    0    0    0  501 -0.00000000000E+00 -0.00000000000E+00 -0.59757399736E+02  0.59757399736E+02  0.00000000000E+00 0.  1.
          5    1    1    2  502    0 -0.21437355452E+01  0.10451302108E+03  0.60275266213E+02  0.12073999873E+03  0.41800000000E+01 0. -1.
         -5    1    1    2    0  502  0.41361036906E+02  0.17711497089E+02  0.14443679830E+03  0.15134032379E+03  0.41800000000E+01 0. -1.
        -11    1    1    2    0    0 -0.56444336730E+02 -0.37917174624E+02  0.63674050321E+02  0.93156105353E+02  0.00000000000E+00 0.  1.
         11    1    1    2    0    0  0.17227035369E+02 -0.84307343544E+02  0.15201800406E+03  0.17468249048E+03  0.00000000000E+00 0. -1.
</event>
<event>
 6    1  0.4988969E-006  0.1131977E+03  0.7561462E-02  0.1254760E+00
         -1   -1    0    0    0  501 -0.00000000000E+00  0.00000000000E+00  0.10734103224E+04  0.10734103224E+04  0.00000000000E+00 0.  1.
          1   -1    0    0  501    0  0.00000000000E+00 -0.00000000000E+00 -0.16135746137E+02  0.16135746137E+02  0.00000000000E+00 0. -1.
          5    1    1    2  502    0 -0.11161890178E+02 -0.25881855679E+02  0.37311037750E+03  0.37419685254E+03  0.41800000000E+01 0.  1.
         -5    1    1    2    0  502  0.34489303287E+02  0.88207366430E+02  0.34679049228E+03  0.35951518670E+03  0.41800000000E+01 0.  1.
        -11    1    1    2    0    0 -0.12016756082E+02 -0.80663070018E+02  0.31231178078E+03  0.32278411006E+03  0.00000000000E+00 0. -1.
         11    1    1    2    0    0 -0.11310657027E+02  0.18337559266E+02  0.25061925696E+02  0.33049919241E+02  0.00000000000E+00 0.  1.
</event>
<event>
 6    1  0.4988969E-006  0.1668150E+03  0.7561462E-02  0.1181211E+00
         -2   -1    0    0    0  501 -0.00000000000E+00  0.00000000000E+00  0.27231668125E+02  0.27231668125E+02  0.00000000000E+00 0.  1.
          2   -1    0    0  501    0  0.00000000000E+00 -0.00000000000E+00 -0.10705300292E+04  0.10705300292E+04  0.00000000000E+00 0. -1.
          5    1    1    2  502    0  0.32920033181E+02 -0.79968566141E+02 -0.34299987204E+03  0.35375851194E+03  0.41800000000E+01 0. -1.
         -5    1    1    2    0  502  0.85888142782E+02  0.23485069698E+02 -0.20550753613E+03  0.22400701189E+03  0.41800000000E+01 0. -1.
        -11    1    1    2    0    0 -0.11158371654E+03  0.11301740962E+02 -0.38629075183E+03  0.40224271292E+03  0.00000000000E+00 0. -1.
         11    1    1    2    0    0 -0.72244594224E+01  0.45181755481E+02 -0.10850020103E+03  0.11775346053E+03  0.00000000000E+00 0.  1.
</event>
<event>
 6    1  0.4988969E-006  0.8706795E+02  0.7561462E-02  0.1310112E+00
         -3   -1    0    0    0  501 -0.00000000000E+00  0.00000000000E+00  0.16846701366E+03  0.16846701366E+03  0.00000000000E+00 0.  1.
          3   -1    0    0  501    0  0.00000000000E+00 -0.00000000000E+00 -0.13190796373E+03  0.13190796373E+03  0.00000000000E+00 0. -1.
          5    1    1    2  502    0  0.40280578018E+02 -0.37820742656E+02  0.83937692375E+02  0.10057804006E+03  0.41800000000E+01 0. -1.
         -5    1    1    2    0  502 -0.66270687220E+02  0.73389052757E+01  0.29723583052E+02  0.73120635286E+02  0.41800000000E+01 0. -1.
        -11    1    1    2    0    0  0.33882461227E+02  0.22374544304E+02 -0.96234053448E+02  0.10444919557E+03  0.00000000000E+00 0. -1.
         11    1    1    2    0    0 -0.78923520254E+01  0.81072930771E+01  0.19131827951E+02  0.22227106476E+02  0.00000000000E+00 0.  1.
</event>
<event>
 6    1  0.4988969E-006  0.1158535E+03  0.7561462E-02  0.1250099E+00
         -1   -1    0    0    0  501 -0.00000000000E+00  0.00000000000E+00  0.16966409827E+02  0.16966409827E+02  0.00000000000E+00 0.  1.
          1   -1    0    0  501    0  0.00000000000E+00 -0.00000000000E+00 -0.87854196157E+03  0.87854196157E+03  0.00000000000E+00 0. -1.
          5    1    1    2  502    0 -0.73735134632E+02 -0.50098913156E+02 -0.22178295513E+03  0.23906468323E+03  0.41800000000E+01 0. -1.
         -5    1    1    2    0  502  0.35540366224E+02  0.24854472291E+02 -0.12887324409E+03  0.13603914093E+03  0.41800000000E+01 0. -1.
        -11    1    1    2    0    0  0.66387247404E+01  0.55073087806E+02 -0.29044010626E+03  0.29568999474E+03  0.00000000000E+00 0. -1.
         11    1    1    2    0    0  0.31556043667E+02 -0.29828646941E+02 -0.22047924626E+03  0.22471455250E+03  0.00000000000E+00 0.  1.
</event>
<event>
 6    1  0.4988969E-006  0.2195328E+03  0.7561462E-02  0.1134232E+00
         -2   -1    0    0    0  501 -0.00000000000E+00  0.00000000000E+00  0.18935828397E+03  0.18935828397E+03  0.00000000000E+00 0.  1.
          2   -1    0    0  501    0  0.00000000000E+00 -0.00000000000E+00 -0.35985143007E+03  0.35985143007E+03  0.00000000000E+00 0. -1.
          5    1    1    2  502    0  0.14736013291E+03  0.97751669832E+02 -0.20517544917E+03  0.27089635485E+03  0.41800000000E+01 0. -1.
         -5    1    1    2    0  502 -0.13239799237E+03  0.11127422620E+02  0.56397312980E+02  0.14439936714E+03  0.41800000000E+01 0.  1.
        -11    1    1    2    0    0  0.45478677429E+01 -0.10963238141E+03 -0.28285061342E+02  0.11331366577E+03  0.00000000000E+00 0. -1.
         11    1    1    2    0    0 -0.19510008282E+02  0.75328895658E+00  0.65700514307E+01  0.20600326289E+02  0.00000000000E+00 0.  1.
</event>
<event>
 6    1  0.4988969E-006  0.8327290E+02  0.7561462E-02  0.1320012E+00
         -4   -1    0    0    0  501 -0.00000000000E+00  0.00000000000E+00  0.11680889999E+03  0.11680889999E+03  0.00000000000E+00 0.  1.
          4   -1    0    0  501    0  0.00000000000E+00 -0.00000000000E+00 -0.10933950140E+03  0.10933950140E+03  0.00000000000E+00 0. -1.
          5    1    1    2  502    0 -0.49077105129E+01  0.28573420852E+02 -0.36866800902E+02  0.47086722231E+02  0.41800000000E+01 0.  1.
         -5    1    1    2    0  502  0.14247623652E+02 -0.46700656569E+02  0.67314565690E+02  0.83262652238E+02  0.41800000000E+01 0.  1.
        -11    1    1    2    0    0  0.18613440911E+02  0.45479222664E+02  0.23627669949E+01  0.49197586775E+02  0.00000000000E+00 0.  1.
         11    1    1    2    0    0 -0.27953354051E+02 -0.27351986947E+02 -0.25341133185E+02  0.46601440147E+02  0.00000000000E+00 0. -1.
</event>
<event>
 6    1  0.4988969E-006  0.9664462E+02  0.7561462E-02  0.1287514E+00
          2   -1    0    0  501    0  0.00000000000E+00  0.00000000000E+00  0.18832549966E+03  0.18832549966E+03  0.00000000000E+00 0. -1.
         -2   -1    0    0    0  501 -0.00000000000E+00 -0.00000000000E+00 -0.74184814109E+02  0.74184814109E+02  0.00000000000E+00 0.  1.
          5    1    1    2  502    0 -0.17358056981E+02 -0.54805031337E+02  0.53120006878E+02  0.78384316881E+02  0.41800000000E+01 0.  1.
         -5    1    1    2    0  502  0.29986057165E+02  0.29112568890E+02 -0.30518053876E+02  0.51918487113E+02  0.41800000000E+01 0.  1.
        -11    1    1    2    0    0 -0.13884895644E+02  0.58850006258E+02  0.46564263917E+02  0.76317391451E+02  0.00000000000E+00 0.  1.
         11    1    1    2    0    0  0.12568954598E+01 -0.33157543811E+02  0.44974468634E+02  0.55890118328E+02  0.00000000000E+00 0. -1.
</event>
<event>
 6    1  0.4988969E-006  0.8320704E+02  0.7561462E-02  0.1320189E+00
          2   -1    0    0  501    0  0.00000000000E+00  0.00000000000E+00  0.53703764873E+02  0.53703764873E+02  0.00000000000E+00 0. -1.
         -2   -1    0    0    0  501 -0.00000000000E+00 -0.00000000000E+00 -0.30545093981E+03  0.30545093981E+03  0.00000000000E+00 0.  1.
          5    1    1    2  502    0  0.38176334532E+02  0.34313106177E+02  0.44445284736E+01  0.51691856295E+02  0.41800000000E+01 0.  1.
         -5    1    1    2    0  502  0.29380666817E+02 -0.19398504798E+02 -0.14320943693E+03  0.14753284650E+03  0.41800000000E+01 0.  1.
        -11    1    1    2    0    0 -0.21022876665E+02  0.13454503835E+02 -0.10111905122E+03  0.10415396073E+03  0.00000000000E+00 0.  1.
         11    1    1    2    0    0 -0.46534124684E+02 -0.28369105214E+02 -0.11863215265E+02  0.55776041157E+02  0.00000000000E+00 0. -1.
</event>
<event>
 6    1  0.4988969E-006  0.1241798E+03  0.7561462E-02  0.1236357E+00
          3   -1    0    0  501    0  0.00000000000E+00  0.00000000000E+00  0.49890909789E+02  0.49890909789E+02  0.00000000000E+00 0. -1.
         -3   -1    0    0    0  501 -0.00000000000E+00 -0.00000000000E+00 -0.53525122325E+03  0.53525122325E+03  0.00000000000E+00 0.  1.
          5    1    1    2  502    0  0.12371165000E+02  0.40888513966E+02 -0.19501506462E+03  0.19968290895E+03  0.41800000000E+01 0. -1.
         -5    1    1    2    0  502  0.91823949261E+01 -0.87978176700E+02 -0.23437026757E+03  0.25054215348E+03  0.41800000000E+01 0. -1.
        -11    1    1    2    0    0 -0.63923614989E+02  0.21802007978E+02 -0.52330235497E+02  0.85440093939E+02  0.00000000000E+00 0. -1.
         11    1    1    2    0    0  0.42370055063E+02  0.25287654756E+02 -0.36447457831E+01  0.49476976675E+02  0.00000000000E+00 0.  1.
</event>
<event>
 6    1  0.4988969E-006  0.1425497E+03  0.7561462E-02  0.1209939E+00
         -1   -1    0    0    0  501 -0.00000000000E+00  0.00000000000E+00  0.91971611658E+03  0.91971611658E+03  0.00000000000E+00 0.  1.
          1   -1    0    0  501    0  0.00000000000E+00 -0.00000000000E+00 -0.50414697204E+02  0.50414697204E+02  0.00000000000E+00 0. -1.
          5    1    1    2  502    0  0.72756427373E+02 -0.51030825488E+01  0.21303501457E+03  0.22521307468E+03  0.41800000000E+01 0.  1.
         -5    1    1    2    0  502  0.11505819942E+01 -0.85793975602E+02  0.56341609803E+03  0.56992727783E+03  0.41800000000E+01 0.  1.
        -11    1    1    2    0    0 -0.77412984027E+02  0.68184873049E+02  0.29042054895E+02  0.10716990231E+03  0.00000000000E+00 0. -1.
         11    1    1    2    0    0  0.35059746597E+01  0.22712185102E+02  0.63808251883E+02  0.67820558968E+02  0.00000000000E+00 0.  1.
</event>
<event>
 6    1  0.4988969E-006  0.2920626E+03  0.7561462E-02  0.1089277E+00
         -2   -1    0    0    0  501 -0.00000000000E+00  0.00000000000E+00  0.32807586476E+03  0.32807586476E+03  0.00000000000E+00 0.  1.
          2   -1    0    0  501    0  0.00000000000E+00 -0.00000000000E+00 -0.27615783299E+03  0.27615783299E+03  0.00000000000E+00 0. -1.
          5    1    1    2  502    0 -0.13153528734E+03  0.12887889239E+03  0.20849027955E+02  0.18537382525E+03  0.41800000000E+01 0.  1.
         -5    1    1    2    0  502 -0.10974896393E+03  0.54010501545E+01 -0.44724714933E+02  0.11870879897E+03  0.41800000000E+01 0.  1.
        -11    1    1    2    0    0  0.20340427852E+03 -0.69548161866E+02  0.48754122702E+02  0.22042507076E+03  0.00000000000E+00 0.  1.
         11    1    1    2    0    0  0.37879972754E+02 -0.64731780679E+02  0.27039596037E+02  0.79726002782E+02  0.00000000000E+00 0. -1.
</event>
<event>
 6    1  0.4988969E-006  0.6686541E+02  0.7561462E-02  0.1371089E+00
          1   -1    0    0  501    0  0.00000000000E+00  0.00000000000E+00  0.68306601985E+03  0.68306601985E+03  0.00000000000E+00 0. -1.
         -1   -1    0    0    0  501 -0.00000000000E+00 -0.00000000000E+00 -0.18529794687E+02  0.18529794687E+02  0.00000000000E+00 0.  1.
          5    1    1    2  502    0  0.59870397974E+01  0.91501900413E+01 -0.80159683483E+01  0.14187979838E+02  0.41800000000E+01 0.  1.
         -5    1    1    2    0  502  0.73426207063E+01  0.28451229634E+02  0.36452294390E+03  0.36572918338E+03  0.41800000000E+01 0.  1.
        -11    1    1    2    0    0  0.35124114904E+02 -0.21983347503E+02  0.12415831502E+03  0.13089025251E+03  0.00000000000E+00 0. -1.
         11    1    1    2    0    0 -0.48453775407E+02 -0.15618072172E+02  0.18387093459E+03  0.19078839880E+03  0.00000000000E+00 0.  1.
</event>
<event>
 6    1  0.4988969E-006  0.1146260E+03  0.7561462E-02  0.1252235E+00
          1   -1    0    0  501    0  0.00000000000E+00  0.00000000000E+00  0.30588456812E+03  0.30588456812E+03  0.00000000000E+00 0. -1.
         -1   -1    0    0    0  501 -0.00000000000E+00 -0.00000000000E+00 -0.44700834128E+02  0.44700834128E+02  0.00000000000E+00 0.  1.
          5    1    1    2  502    0  0.56599587114E+02  0.42396736125E+02  0.95408292739E+02  0.11883270265E+03  0.41800000000E+01 0.  1.
         -5    1    1    2    0  502 -0.15416933279E+02 -0.55493895446E+02  0.38329911981E+02  0.69310236011E+02  0.41800000000E+01 0.  1.
        -11    1    1    2    0    0 -0.55163725415E+02  0.41483507483E+02  0.84762548607E+02  0.10930968686E+03  0.00000000000E+00 0.  1.
         11    1    1    2    0    0  0.13981071579E+02 -0.28386348162E+02  0.42682980663E+02  0.53132776727E+02  0.00000000000E+00 0. -1.
</event>
<event>
 6    1  0.4988969E-006  0.1030881E+03  0.7561462E-02  0.1273933E+00
         -1   -1    0    0    0  501 -0.00000000000E+00  0.00000000000E+00  0.21610016524E+03  0.21610016524E+03  0.00000000000E+00 0.  1.
          1   -1    0    0  501    0  0.00000000000E+00 -0.00000000000E+00 -0.75511715114E+02  0.75511715114E+02  0.00000000000E+00 0. -1.
          5    1    1    2  502    0 -0.16010919046E+01 -0.81694339557E+02  0.51806079325E+02  0.96839407608E+02  0.41800000000E+01 0. -1.
         -5    1    1    2    0  502 -0.40078870043E+02  0.37928855307E+02  0.58737454884E+02  0.80699906413E+02  0.41800000000E+01 0. -1.
        -11    1    1    2    0    0  0.20537170852E+02  0.13561137572E+00  0.55596565189E+02  0.59268641269E+02  0.00000000000E+00 0.  1.
         11    1    1    2    0    0  0.21142791095E+02  0.43629872874E+02 -0.25551649270E+02  0.54803925067E+02  0.00000000000E+00 0. -1.
</event>
<event>
 6    1  0.4988969E-006  0.8345245E+02  0.7561462E-02  0.1319530E+00
         -4   -1    0    0    0  501 -0.00000000000E+00  0.00000000000E+00  0.13409983775E+03  0.13409983775E+03  0.00000000000E+00 0.  1.
          4   -1    0    0  501    0  0.00000000000E+00 -0.00000000000E+00 -0.96075151804E+02  0.96075151804E+02  0.00000000000E+00 0. -1.
          5    1    1    2  502    0  0.34760226815E+02  0.50022394660E+02  0.39551667816E+02  0.72748334433E+02  0.41800000000E+01 0.  1.
         -5    1    1    2    0  502 -0.23516014660E+02 -0.57639495216E+02  0.13665894413E+02  0.63871303606E+02  0.41800000000E+01 0.  1.
        -11    1    1    2    0    0 -0.27012488965E+02  0.46116086858E+01 -0.48993636527E+02  0.56136600493E+02  0.00000000000E+00 0. -1.
         11    1    1    2    0    0  0.15768276810E+02  0.30054918699E+01  0.33800760241E+02  0.37418751018E+02  0.00000000000E+00 0.  1.
</event>
<event>
 6    1  0.4988969E-006  0.8302916E+02  0.7561462E-02  0.1320668E+00
         -2   -1    0    0    0  501 -0.00000000000E+00  0.00000000000E+00  0.60860125179E+02  0.60860125179E+02  0.00000000000E+00 0.  1.
          2   -1    0    0  501    0  0.00000000000E+00 -0.00000000000E+00 -0.28416067190E+03  0.28416067190E+03  0.00000000000E+00 0. -1.
          5    1    1    2  502    0 -0.48845156193E+02 -0.18979144526E+02 -0.11617342465E+03  0.12751389808E+03  0.41800000000E+01 0. -1.
         -5    1    1    2    0  502  0.15324336839E+01  0.52889975188E+01  0.37341794725E+02  0.37976359502E+02  0.41800000000E+01 0.  1.
        -11    1    1    2    0    0  0.67028014455E+02  0.36584677835E+02 -0.10445922203E+03  0.12939444517E+03  0.00000000000E+00 0.  1.
         11    1    1    2    0    0 -0.19715291946E+02 -0.22894530828E+02 -0.40009694774E+02  0.50136094326E+02  0.00000000000E+00 0. -1.
</event>
<event>
 6    1  0.4988969E-006  0.1166436E+03  0.7561462E-02  0.1248739E+00
         -1   -1    0    0    0  501 -0.00000000000E+00  0.00000000000E+00  0.25337746047E+02  0.25337746047E+02  0.00000000000E+00 0.  1.
          1   -1    0    0  501    0  0.00000000000E+00 -0.00000000000E+00 -0.60679463979E+03  0.60679463979E+03  0.00000000000E+00 0. -1.
          5    1    1    2  502    0 -0.63069714563E+01 -0.94256826301E+02 -0.17486700676E+03  0.19879655341E+03  0.41800000000E+01 0. -1.
         -5    1    1    2    0  502 -0.18471480131E+02  0.36248676617E+02 -0.13955116102E+03  0.14542063498E+03  0.41800000000E+01 0. -1.
        -11    1    1    2    0    0  0.49745430196E+02  0.52376490809E+02 -0.13199880193E+03  0.15047122092E+03  0.00000000000E+00 0.  1.
         11    1    1    2    0    0 -0.24966978608E+02  0.56316588753E+01 -0.13503992403E+03  0.13744397653E+03  0.00000000000E+00 0. -1.
</event>
<event>
 6    1  0.4988969E-006  0.2130169E+03  0.7561462E-02  0.1139199E+00
         -2   -1    0    0    0  501 -0.00000000000E+00  0.00000000000E+00  0.50371754568E+02  0.50371754568E+02  0.00000000000E+00 0.  1.
          2   -1    0    0  501    0  0.00000000000E+00 -0.00000000000E+00 -0.10668814658E+04  0.10668814658E+04  0.00000000000E+00 0. -1.
          5    1    1    2  502    0 -0.94273895557E+01  0.78849189391E+01 -0.45472641207E+00  0.12989487928E+02  0.41800000000E+01 0.  1.
         -5    1    1    2    0  502  0.15403957586E+03 -0.13623876089E+03 -0.36535242183E+03  0.41927205420E+03  0.41800000000E+01 0.  1.
        -11    1    1    2    0    0 -0.13622302120E+03  0.79347912430E+02 -0.41122783133E+03  0.44041018605E+03  0.00000000000E+00 0.  1.
         11    1    1    2    0    0 -0.83891651030E+01  0.49005929519E+02 -0.23947473163E+03  0.24458149217E+03  0.00000000000E+00 0. -1.
</event>
<event>
 6    1  0.4988969E-006  0.2629630E+03  0.7561462E-02  0.1105376E+00
          2   -1    0    0  501    0  0.00000000000E+00  0.00000000000E+00  0.15788042207E+03  0.15788042207E+03  0.00000000000E+00 0. -1.
         -2   -1    0    0    0  501 -0.00000000000E+00 -0.00000000000E+00 -0.61061163629E+03  0.61061163629E+03  0.00000000000E+00 0.  1.
          5    1    1    2  502    0  0.21684211048E+02 -0.35964463607E+02 -0.17491744003E+02  0.45684583391E+02  0.41800000000E+01 0.  1.
         -5    1    1    2    0  502 -0.70983402898E+02 -0.21325356145E+03 -0.39869950440E+03  0.45770568291E+03  0.41800000000E+01 0.  1.
        -11    1    1    2    0    0  0.21391769229E+01  0.13933018310E+03 -0.41572634074E+02  0.14541581724E+03  0.00000000000E+00 0.  1.
         11    1    1    2    0    0  0.47160014927E+02  0.10988784196E+03  0.50326682595E+01  0.11968597482E+03  0.00000000000E+00 0. -1.
</event>
<event>
 6    1  0.4988969E-006  0.1110980E+03  0.7561462E-02  0.1258550E+00
          2   -1    0    0  501    0  0.00000000000E+00  0.00000000000E+00  0.12912183430E+04  0.12912183430E+04  0.00000000000E+00 0. -1.
         -2   -1    0    0    0  501 -0.00000000000E+00 -0.00000000000E+00 -0.10427275142E+02  0.10427275142E+02  0.00000000000E+00 0.  1.
          5    1    1    2  502    0  0.24638554645E+02  0.50045086869E+02  0.50230973925E+03  0.50541479563E+03  0.41800000000E+01 0. -1.
         -5    1    1    2    0  502 -0.60613416007E+02 -0.28346814664E+02  0.27775425049E+03  0.28573138464E+03  0.41800000000E+01 0. -1.
        -11    1    1    2    0    0 -0.13809064659E+02 -0.42926165340E+02  0.24359012458E+03  0.24772867159E+03  0.00000000000E+00 0. -1.
         11    1    1    2    0    0  0.49783926021E+02  0.21227893135E+02  0.25713695350E+03  0.26277076625E+03  0.00000000000E+00 0.  1.
</event>
<event>
 6    1  0.4988969E-006  0.9670844E+02  0.7561462E-02  0.1287374E+00
          2   -1    0    0  501    0  0.00000000000E+00  0.00000000000E+00  0.70734942560E+03  0.70734942560E+03  0.00000000000E+00 0. -1.
         -2   -1    0    0    0  501 -0.00000000000E+00 -0.00000000000E+00 -0.22470056699E+02  0.22470056699E+02  0.00000000000E+00 0.  1.
          5    1    1    2  502    0  0.46815427026E+02 -0.27470434367E+02  0.34875217799E+02  0.64653400440E+02  0.41800000000E+01 0. -1.
         -5    1    1    2    0  502 -0.36006167633E+02 -0.94675164264E+01  0.23210758301E+03  0.23511163405E+03  0.41800000000E+01 0.  1.
        -11    1    1    2    0    0 -0.74300481751E+01 -0.31817654654E+02  0.13032158064E+03  0.13435506371E+03  0.00000000000E+00 0.  1.
         11    1    1    2    0    0 -0.33792112178E+01  0.68755605448E+02  0.28757498745E+03  0.29569938410E+03  0.00000000000E+00 0. -1.
</event>
<event>
 6    1  0.4988969E-006  0.2930781E+03  0.7561462E-02  0.1088753E+00
          2   -1    0    0  501    0  0.00000000000E+00  0.00000000000E+00  0.74175615286E+03  0.74175615286E+03  0.00000000000E+00 0. -1.
         -2   -1    0    0    0  501 -0.00000000000E+00 -0.00000000000E+00 -0.13580184151E+03  0.13580184151E+03  0.00000000000E+00 0.  1.
          5    1    1    2  502    0  0.55046742568E+02  0.16851851158E+03  0.10657242502E+03  0.20689076051E+03  0.41800000000E+01 0.  1.
         -5    1    1    2    0  502 -0.62632650235E+02  0.10779177627E+03  0.48405076045E+02  0.13379999886E+03  0.41800000000E+01 0.  1.
        -11    1    1    2    0    0  0.36727056819E+02 -0.14438027933E+03  0.17672991319E+03  0.23114498476E+03  0.00000000000E+00 0.  1.
         11    1    1    2    0    0 -0.29141149151E+02 -0.13193000852E+03  0.27424689710E+03  0.30572225023E+03  0.00000000000E+00 0. -1.
</event>
<event>
 6    1  0.4988969E-006  0.7309051E+02  0.7561462E-02  0.1349888E+00
         -3   -1    0    0    0  501 -0.00000000000E+00  0.00000000000E+00  0.46466057485E+02  0.46466057485E+02  0.00000000000E+00 0.  1.
          3   -1    0    0  501    0  0.00000000000E+00 -0.00000000000E+00 -0.32333618600E+03  0.32333618600E+03  0.00000000000E+00 0. -1.
          5    1    1    2  502    0 -0.42670216855E+02 -0.57795471656E+01  0.20448093883E+02  0.47851306308E+02  0.41800000000E+01 0. -1.
         -5    1    1    2    0  502  0.28976388960E+02  0.10844438344E+02 -0.91647476592E+02  0.96819240473E+02  0.41800000000E+01 0. -1.
        -11    1    1    2    0    0  0.23918084958E+02 -0.33681627457E+02 -0.42928890760E+02  0.59576979431E+02  0.00000000000E+00 0.  1.
         11    1    1    2    0    0 -0.10224257063E+02  0.28616736278E+02 -0.16274185505E+03  0.16555471727E+03  0.00000000000E+00 0. -1.
</event>
<event>
 6    1  0.4988969E-006  0.1165406E+03  0.7561462E-02  0.1248916E+00
          1   -1    0    0  501    0  0.00000000000E+00  0.00000000000E+00  0.24250705957E+03  0.24250705957E+03  0.00000000000E+00 0. -1.
         -1   -1    0    0    0  501 -0.00000000000E+00 -0.00000000000E+00 -0.83107481084E+02  0.83107481084E+02  0.00000000000E+00 0.  1.
          5    1    1    2  502    0 -0.36541431607E+02  0.84973432052E+02 -0.21375365166E+02  0.95027043596E+02  0.41800000000E+01 0. -1.
         -5    1    1    2    0  502  0.10995980441E+02 -0.18197077895E+02  0.46393074765E+02  0.51203857432E+02  0.41800000000E+01 0. -1.
        -11    1    1    2    0    0 -0.14328873640E+02 -0.76457369564E+02  0.88860930238E+02  0.11809873371E+03  0.00000000000E+00 0.  1.
         11    1    1    2    0    0  0.39874324806E+02  0.96810154070E+01  0.45520938651E+02  0.61284905921E+02  0.00000000000E+00 0. -1.
</event>
<event>
 6    1  0.4988969E-006  0.8938683E+02  0.7561462E-02  0.1304343E+00
          1   -1    0    0  501    0  0.00000000000E+00  0.00000000000E+00  0.17868789433E+03  0.17868789433E+03  0.00000000000E+00 0. -1.
         -1   -1    0    0    0  501 -0.00000000000E+00 -0.00000000000E+00 -0.68190638980E+02  0.68190638980E+02  0.00000000000E+00 0.  1.
          5    1    1    2  502    0 -0.12734209287E+02 -0.28096678109E+02  0.49808069856E+02  0.58735846207E+02  0.41800000000E+01 0. -1.
         -5    1    1    2    0  502  0.41662931891E+02  0.33691447017E+02 -0.26165520468E+02  0.59774746818E+02  0.41800000000E+01 0.  1.
        -11    1    1    2    0    0  0.23309982025E+02  0.24332655503E+02  0.24268998354E+02  0.41526108257E+02  0.00000000000E+00 0.  1.
         11    1    1    2    0    0 -0.52238704628E+02 -0.29927424411E+02  0.62585707605E+02  0.86841832025E+02  0.00000000000E+00 0. -1.
</event>
<event>
 6    1  0.4988969E-006  0.1156549E+03  0.7561462E-02  0.1250442E+00
          1   -1    0    0  501    0  0.00000000000E+00  0.00000000000E+00  0.52909203586E+03  0.52909203586E+03  0.00000000000E+00 0. -1.
         -1   -1    0    0    0  501 -0.00000000000E+00 -0.00000000000E+00 -0.37060977072E+02  0.37060977072E+02  0.00000000000E+00 0.  1.
          5    1    1    2  502    0  0.99258737761E+00 -0.23338755225E+02 -0.37034432519E+01  0.24018131007E+02  0.41800000000E+01 0. -1.
         -5    1    1    2    0  502  0.84661253402E+02  0.33220934840E+02  0.24238750529E+03  0.25892148126E+03  0.41800000000E+01 0. -1.
        -11    1    1    2    0    0 -0.84378717006E+02  0.19927552758E+02  0.22846573098E+03  0.24436338816E+03  0.00000000000E+00 0. -1.
         11    1    1    2    0    0 -0.12751237737E+01 -0.29809732373E+02  0.24881265771E+02  0.38850012499E+02  0.00000000000E+00 0.  1.
</event>
<event>
 6    1  0.4988969E-006  0.1027626E+03  0.7561462E-02  0.1274592E+00
         -2   -1    0    0    0  501 -0.00000000000E+00  0.00000000000E+00  0.59889020712E+03  0.59889020712E+03  0.00000000000E+00 0.  1.
          2   -1    0    0  501    0  0.00000000000E+00 -0.00000000000E+00 -0.26993045428E+02  0.26993045428E+02  0.00000000000E+00 0. -1.
          5    1    1    2  502    0 -0.63994506672E+02  0.43536069370E+02  0.32074973609E+03  0.32998265382E+03  0.41800000000E+01 0.  1.
         -5    1    1    2    0  502  0.25516111305E+01 -0.19571621864E+02 -0.46103383168E+00  0.20180288747E+02  0.41800000000E+01 0.  1.
        -11    1    1    2    0    0  0.80985670119E+02 -0.58594261879E+01  0.21927354079E+03  0.23382450113E+03  0.00000000000E+00 0.  1.
         11    1    1    2    0    0 -0.19542774578E+02 -0.18105021318E+02  0.32334918637E+02  0.41895808840E+02  0.00000000000E+00 0. -1.
</event>
<event>
 6    1  0.4988969E-006  0.1035483E+03  0.7561462E-02  0.1273006E+00
         -1   -1    0    0    0  501 -0.00000000000E+00  0.00000000000E+00  0.55280448761E+02  0.55280448761E+02  0.00000000000E+00 0.  1.
          1   -1    0    0  501    0  0.00000000000E+00 -0.00000000000E+00 -0.25520946798E+03  0.25520946798E+03  0.00000000000E+00 0. -1.
          5    1    1    2  502    0  0.33622014106E+02 -0.31624809542E+02 -0.46537889110E+02  0.65679646268E+02  0.41800000000E+01 0.  1.
         -5    1    1    2    0  502 -0.53432132893E+02  0.49741640392E+02 -0.85615533970E+01  0.73620623544E+02  0.41800000000E+01 0.  1.
        -11    1    1    2    0    0  0.28905707803E+02  0.28226276261E+02 -0.43344289504E+02  0.59253607888E+02  0.00000000000E+00 0.  1.
         11    1    1    2    0    0 -0.90955890160E+01 -0.46343107112E+02 -0.10148528721E+03  0.11193603904E+03  0.00000000000E+00 0. -1.
</event>
<event>
 6    1  0.4988969E-006  0.1129754E+03  0.7561462E-02  0.1255157E+00
          2   -1    0    0  501    0  0.00000000000E+00  0.00000000000E+00  0.34506353195E+02  0.34506353195E+02  0.00000000000E+00 0. -1.
         -2   -1    0    0    0  501 -0.00000000000E+00 -0.00000000000E+00 -0.43513732915E+03  0.43513732915E+03  0.00000000000E+00 0.  1.
          5    1    1    2  502    0 -0.78848419637E+02  0.36987491624E+02 -0.12272289836E+03  0.15054411313E+03  0.41800000000E+01 0. -1.
         -5    1    1    2    0  502  0.25440525935E+02 -0.19778236115E+02 -0.13746710999E+03  0.14125536348E+03  0.41800000000E+01 0.  1.
        -11    1    1    2    0    0 -0.29428074527E+01 -0.43838865249E+02 -0.78583183032E+02  0.90032343508E+02  0.00000000000E+00 0.  1.
         11    1    1    2    0    0  0.56350701155E+02  0.26629609740E+02 -0.61857784575E+02  0.87811862228E+02  0.00000000000E+00 0. -1.
</event>
<event>
 6    1  0.4988969E-006  0.1732867E+03  0.7561462E-02  0.1174463E+00
         -2   -1    0    0    0  501 -0.00000000000E+00  0.00000000000E+00  0.53871112784E+03  0.53871112784E+03  0.00000000000E+00 0.  1.
          2   -1    0    0  501    0  0.00000000000E+00 -0.00000000000E+00 -0.98462132378E+02  0.98462132378E+02  0.00000000000E+00 0. -1.
          5    1    1    2  502    0  0.29691163791E+02  0.50136297335E+02  0.12042943994E+03  0.13385042369E+03  0.41800000000E+01 0. -1.
         -5    1    1    2    0  502 -0.11543132579E+03  0.70713787896E+02  0.29732809347E+03  0.32672052023E+03  0.41800000000E+01 0. -1.
        -11    1    1    2    0    0  0.52705112297E+02 -0.42548139880E+02 -0.32753143540E+02  0.75239228340E+02  0.00000000000E+00 0. -1.
         11    1    1    2    0    0  0.33035049697E+02 -0.78301945351E+02  0.55244605597E+02  0.10136308796E+03  0.00000000000E+00 0.  1.
</event>
<event>
 6    1  0.4988969E-006  0.1433432E+03  0.7561462E-02  0.1208900E+00
          2   -1    0    0  501    0  0.00000000000E+00  0.00000000000E+00  0.62938184075E+03  0.62938184075E+03  0.00000000000E+00 0. -1.
         -2   -1    0    0    0  501 -0.00000000000E+00 -0.00000000000E+00 -0.37936419199E+02  0.37936419199E+02  0.00000000000E+00 0.  1.
          5    1    1    2  502    0 -0.15642405305E+02 -0.10265576298E+03  0.29481217127E+03  0.31259331287E+03  0.41800000000E+01 0.  1.
         -5    1    1    2    0  502  0.51955373326E+02  0.76798782239E+00  0.64421950864E+02  0.82871049081E+02  0.41800000000E+01 0.  1.
        -11    1    1    2    0    0 -0.28036812131E+02  0.11319767806E+03  0.22971133811E+03  0.25761808168E+03  0.00000000000E+00 0. -1.
         11    1    1    2    0    0 -0.82761558898E+01 -0.11309902895E+02  0.24999613031E+01  0.14235816321E+02  0.00000000000E+00 0.  1.
</event>
<event>
 6    1  0.4988969E-006  0.8158952E+02  0.7561462E-02  0.1324600E+00
          2   -1    0    0  501    0  0.00000000000E+00  0.00000000000E+00  0.48370227897E+02  0.48370227897E+02  0.00000000000E+00 0.  1.
         -2   -1    0    0    0  501 -0.00000000000E+00 -0.00000000000E+00 -0.31532420648E+03  0.31532420648E+03  0.00000000000E+00 0. -1.
          5    1    1    2  502    0 -0.41310094161E+01  0.26852750190E+02  0.96490776363E+01  0.29132671192E+02  0.41800000000E+01 0.  1.
         -5    1    1    2    0  502 -0.48039379253E+02 -0.85867978562E+01 -0.19591498725E+03  0.20194471938E+03  0.41800000000E+01 0.  1.
        -11    1    1    2    0    0  0.56054766776E+02  0.11054689290E+02 -0.12778279247E+02  0.58545943106E+02  0.00000000000E+00 0.  1.
         11    1    1    2    0    0 -0.38843781066E+01 -0.29320641624E+02 -0.67909789714E+02  0.74071100691E+02  0.00000000000E+00 0. -1.
</event>
<event>
 6    1  0.4988969E-006  0.1164884E+03  0.7561462E-02  0.1249005E+00
          1   -1    0    0  501    0  0.00000000000E+00  0.00000000000E+00  0.97512082430E+02  0.97512082430E+02  0.00000000000E+00 0. -1.
         -1   -1    0    0    0  501 -0.00000000000E+00 -0.00000000000E+00 -0.16560801052E+03  0.16560801052E+03  0.00000000000E+00 0.  1.
          5    1    1    2  502    0 -0.90260335133E+01 -0.85896670308E+02 -0.24955612680E+02  0.89999790307E+02  0.41800000000E+01 0. -1.
         -5    1    1    2    0  502 -0.14069507116E+02  0.38401744009E+02 -0.51266132686E+02  0.65714029963E+02  0.41800000000E+01 0. -1.
        -11    1    1    2    0    0  0.46190943409E+02 -0.65209010810E+01  0.13090127823E+02  0.48450767283E+02  0.00000000000E+00 0. -1.
         11    1    1    2    0    0 -0.23095402780E+02  0.54015827381E+02 -0.49643105445E+01  0.58955505395E+02  0.00000000000E+00 0.  1.
</event>
<event>
 6    1  0.4988969E-006  0.6871830E+02  0.7561462E-02  0.1364507E+00
         -1   -1    0    0    0  501 -0.00000000000E+00  0.00000000000E+00  0.89351204507E+02  0.89351204507E+02  0.00000000000E+00 0. -1.
          1   -1    0    0  501    0  0.00000000000E+00 -0.00000000000E+00 -0.14770251611E+03  0.14770251611E+03  0.00000000000E+00 0.  1.
          5    1    1    2  502    0 -0.11301723396E+02 -0.26371347621E+02  0.59751664468E+02  0.66414687635E+02  0.41800000000E+01 0. -1.
         -5    1    1    2    0  502  0.13180016508E+02  0.10636675498E+02 -0.57098462091E+02  0.59703923439E+02  0.41800000000E+01 0. -1.
        -11    1    1    2    0    0 -0.40252415798E+02 -0.13823117641E+02 -0.18177285843E+02  0.46279037150E+02  0.00000000000E+00 0. -1.
         11    1    1    2    0    0  0.38374122687E+02  0.29557789764E+02 -0.42827228139E+02  0.64656072397E+02  0.00000000000E+00 0.  1.
</event>
<event>
 6    1  0.4988969E-006  0.1180439E+03  0.7561462E-02  0.1246359E+00
         -3   -1    0    0    0  501 -0.00000000000E+00  0.00000000000E+00  0.64747731129E+03  0.64747731129E+03  0.00000000000E+00 0.  1.
          3   -1    0    0  501    0  0.00000000000E+00 -0.00000000000E+00 -0.34775743714E+02  0.34775743714E+02  0.00000000000E+00 0. -1.
          5    1    1    2  502    0 -0.15706466308E+02  0.75844463560E+02  0.18354029055E+03  0.19925758804E+03  0.41800000000E+01 0. -1.
         -5    1    1    2    0  502 -0.60347216108E+02 -0.37985184611E+02  0.27901918663E+03  0.28801708222E+03  0.41800000000E+01 0.  1.
        -11    1    1    2    0    0  0.30245134834E+02 -0.25719821934E+02  0.23471957145E+01  0.39771682756E+02  0.00000000000E+00 0. -1.
         11    1    1    2    0    0  0.45808547582E+02 -0.12139457015E+02  0.14779489468E+03  0.15520670198E+03  0.00000000000E+00 0.  1.
</event>
<event>
 6    1  0.4988969E-006  0.7963939E+02  0.7561462E-02  0.1330078E+00
         -2   -1    0    0    0  501 -0.00000000000E+00  0.00000000000E+00  0.18850192136E+03  0.18850192136E+03  0.00000000000E+00 0.  1.
          2   -1    0    0  501    0  0.00000000000E+00 -0.00000000000E+00 -0.69552085514E+02  0.69552085514E+02  0.00000000000E+00 0. -1.
          5    1    1    2  502    0  0.45757945332E+02  0.16572468291E+02  0.45091256062E+02  0.66476537512E+02  0.41800000000E+01 0. -1.
         -5    1    1    2    0  502 -0.71423790272E+02 -0.34194520039E+02  0.50314231249E+02  0.93912817462E+02  0.41800000000E+01 0. -1.
        -11    1    1    2    0    0  0.96553284455E+01  0.64040775064E+01  0.57406742019E+02  0.58564251940E+02  0.00000000000E+00 0.  1.
         11    1    1    2    0    0  0.16010516495E+02  0.11217974241E+02 -0.33862393484E+02  0.39100399959E+02  0.00000000000E+00 0. -1.
</event>
<event>
 6    1  0.4988969E-006  0.1146528E+03  0.7561462E-02  0.1252188E+00
         -1   -1    0    0    0  501 -0.00000000000E+00  0.00000000000E+00  0.10437388920E+03  0.10437388920E+03  0.00000000000E+00 0.  1.
          1   -1    0    0  501    0  0.00000000000E+00 -0.00000000000E+00 -0.51198047385E+03  0.51198047385E+03  0.00000000000E+00 0. -1.
          5    1    1    2  502    0  0.33931136192E+02 -0.26859452095E+02 -0.71415728162E+02  0.83608796182E+02  0.41800000000E+01 0. -1.
         -5    1    1    2    0  502  0.42598546368E+02 -0.34861684172E+02  0.79053619473E+02  0.96420538931E+02  0.41800000000E+01 0.  1.
        -11    1    1    2    0    0  0.10477040852E+02 -0.12466082195E+02 -0.26404015607E+02  0.31021663890E+02  0.00000000000E+00 0.  1.
         11    1    1    2    0    0 -0.87006723412E+02  0.74187218462E+02 -0.38884046035E+03  0.40530336405E+03  0.00000000000E+00 0. -1.
</event>
<event>
 6    1  0.4988969E-006  0.1405976E+03  0.7561462E-02  0.1212527E+00
          2   -1    0    0  501    0  0.00000000000E+00  0.00000000000E+00  0.67212165930E+03  0.67212165930E+03  0.00000000000E+00 0. -1.
         -2   -1    0    0    0  501 -0.00000000000E+00 -0.00000000000E+00 -0.33326293283E+02  0.33326293283E+02  0.00000000000E+00 0.  1.
          5    1    1    2  502    0 -0.93723975146E+02  0.35805034523E+02  0.28494401679E+03  0.30212042156E+03  0.41800000000E+01 0. -1.
         -5    1    1    2    0  502  0.97006608239E+02 -0.20396646128E+02  0.20560146598E+03  0.22828872164E+03  0.41800000000E+01 0.  1.
        -11    1    1    2    0    0 -0.82012605559E+00 -0.48435897788E+02  0.43253516465E+02  0.64942863256E+02  0.00000000000E+00 0.  1.
         11    1    1    2    0    0 -0.24625070372E+01  0.33027509394E+02  0.10499636678E+03  0.11009594613E+03  0.00000000000E+00 0. -1.
</event>
<event>
 6    1  0.4988969E-006  0.7965508E+02  0.7561462E-02  0.1330033E+00
          2   -1    0    0  501    0  0.00000000000E+00  0.00000000000E+00  0.21918826569E+03  0.21918826569E+03  0.00000000000E+00 0.  1.
         -2   -1    0    0    0  501 -0.00000000000E+00 -0.00000000000E+00 -0.71464351849E+02  0.71464351849E+02  0.00000000000E+00 0. -1.
          5    1    1    2  502    0  0.25621180646E+02  0.25873355077E+02  0.70624128585E+02  0.79568306122E+02  0.41800000000E+01 0.  1.
         -5    1    1    2    0  502 -0.49596935337E+02  0.21317937894E+02 -0.30396445947E+02  0.62094498928E+02  0.41800000000E+01 0.  1.
        -11    1    1    2    0    0  0.14356986350E+02 -0.54546217497E+02  0.11937370559E+03  0.13202838516E+03  0.00000000000E+00 0.  1.
         11    1    1    2    0    0  0.96187683409E+01  0.73549245259E+01 -0.11877474392E+02  0.16961427331E+02  0.00000000000E+00 0. -1.
</event>
<event>
 6    1  0.4988969E-006  0.1215679E+03  0.7561462E-02  0.1240533E+00
          2   -1    0    0  501    0  0.00000000000E+00  0.00000000000E+00  0.86728451871E+02  0.86728451871E+02  0.00000000000E+00 0. -1.
         -2   -1    0    0    0  501 -0.00000000000E+00 -0.00000000000E+00 -0.26634913313E+03  0.26634913313E+03  0.00000000000E+00 0.  1.
          5    1    1    2  502    0  0.31180575040E+02  0.45313546690E+02  0.76157618828E+01  0.55686784810E+02  0.41800000000E+01 0. -1.
         -5    1    1    2    0  502  0.65684252300E+02 -0.11851483877E+02 -0.13326003370E+03  0.14909925437E+03  0.41800000000E+01 0. -1.
        -11    1    1    2    0    0 -0.72911361593E+02  0.78600126151E+01  0.36742540747E+01  0.73425789684E+02  0.00000000000E+00 0. -1.
         11    1    1    2    0    0 -0.23953465747E+02 -0.41322075428E+02 -0.57650663516E+02  0.74865756142E+02  0.00000000000E+00 0.  1.
</event>
<event>
 6    1  0.4988969E-006  0.1059418E+03  0.7561462E-02  0.1268275E+00
          1   -1    0    0  501    0  0.00000000000E+00  0.00000000000E+00  0.98130403846E+02  0.98130403846E+02  0.00000000000E+00 0. -1.
         -1   -1    0    0    0  501 -0.00000000000E+00 -0.00000000000E+00 -0.21296966574E+03  0.21296966574E+03  0.00000000000E+00 0.  1.
          5    1    1    2  502    0  0.73259969062E+01 -0.29774476341E+02 -0.55233021958E+00  0.30951044259E+02  0.41800000000E+01 0. -1.
         -5    1    1    2    0  502 -0.47764517499E+02  0.79886011220E+02 -0.13798995705E+03  0.16649902272E+03  0.41800000000E+01 0. -1.
        -11    1    1    2    0    0  0.39434839598E+02 -0.63279273855E+02 -0.12056724206E+02  0.75529713837E+02  0.00000000000E+00 0.  1.
         11    1    1    2    0    0  0.10036809958E+01  0.13167738975E+02  0.35759749584E+02  0.38120288766E+02  0.00000000000E+00 0. -1.
</event>
<event>
 6    1  0.4988969E-006  0.1087862E+03  0.7561462E-02  0.1262834E+00
         -2   -1    0    0    0  501 -0.00000000000E+00  0.00000000000E+00  0.71233874431E+02  0.71233874431E+02  0.00000000000E+00 0. -1.
          2   -1    0    0  501    0  0.00000000000E+00 -0.00000000000E+00 -0.27196357849E+03  0.27196357849E+03  0.00000000000E+00 0.  1.
          5    1    1    2  502    0  0.34124904300E+02 -0.71895989226E+02 -0.13746120133E+00  0.79693372722E+02  0.41800000000E+01 0. -1.
         -5    1    1    2    0  502 -0.51758550927E+02 -0.43995657353E+00 -0.55876514246E+02  0.76281048761E+02  0.41800000000E+01 0. -1.
        -11    1    1    2    0    0  0.28325691245E+02  0.26177453515E+02 -0.40375846519E+01  0.38780226235E+02  0.00000000000E+00 0. -1.
         11    1    1    2    0    0 -0.10692044619E+02  0.46158492285E+02 -0.14067814396E+03  0.14844280520E+03  0.00000000000E+00 0.  1.
</event>
<event>
 6    1  0.4988969E-006  0.1414984E+03  0.7561462E-02  0.1211327E+00
          3   -1    0    0  501    0  0.00000000000E+00  0.00000000000E+00  0.20180577711E+02  0.20180577711E+02  0.00000000000E+00 0. -1.
         -3   -1    0    0    0  501 -0.00000000000E+00 -0.00000000000E+00 -0.10543260057E+04  0.10543260057E+04  0.00000000000E+00 0.  1.
          5    1    1    2  502    0  0.55092532859E+02  0.38928509030E+02 -0.31611333061E+03  0.32325798704E+03  0.41800000000E+01 0. -1.
         -5    1    1    2    0  502 -0.67686648019E+02  0.56644838985E+02 -0.29675163068E+03  0.30962739351E+03  0.41800000000E+01 0. -1.
        -11    1    1    2    0    0 -0.12713073619E+01 -0.10825257290E+03 -0.39322483498E+03  0.40785537462E+03  0.00000000000E+00 0.  1.
         11    1    1    2    0    0  0.13865422521E+02  0.12679224888E+02 -0.28055631712E+02  0.33765828232E+02  0.00000000000E+00 0. -1.
</event>
<event>
 6    1  0.4988969E-006  0.1578081E+03  0.7561462E-02  0.1191194E+00
         -2   -1    0    0    0  501 -0.00000000000E+00  0.00000000000E+00  0.12756079503E+03  0.12756079503E+03  0.00000000000E+00 0.  1.
          2   -1    0    0  501    0  0.00000000000E+00 -0.00000000000E+00 -0.46177446879E+03  0.46177446879E+03  0.00000000000E+00 0. -1.
          5    1    1    2  502    0  0.50672596019E+02 -0.13663242793E+01  0.62446036762E+02  0.80539175167E+02  0.41800000000E+01 0. -1.
         -5    1    1    2    0  502  0.53513889336E+02 -0.89024860737E+02 -0.30625772987E+02  0.10837237910E+03  0.41800000000E+01 0. -1.
        -11    1    1    2    0    0 -0.87179343461E+02  0.10632268637E+03 -0.29086409541E+03  0.32172453056E+03  0.00000000000E+00 0.  1.
         11    1    1    2    0    0 -0.17007141894E+02 -0.15931501350E+02 -0.75169842120E+02  0.78699178998E+02  0.00000000000E+00 0. -1.
</event>
<event>
 6    1  0.4988969E-006  0.9662206E+02  0.7561462E-02  0.1287564E+00
          1   -1    0    0  501    0  0.00000000000E+00  0.00000000000E+00  0.98482567646E+03  0.98482567646E+03  0.00000000000E+00 0. -1.
         -1   -1    0    0    0  501 -0.00000000000E+00 -0.00000000000E+00 -0.17537589625E+02  0.17537589625E+02  0.00000000000E+00 0.  1.
          5    1    1    2  502    0 -0.56709256745E+02 -0.68954248568E+02  0.59474337318E+03  0.60142146664E+03  0.41800000000E+01 0. -1.
         -5    1    1    2    0  502  0.15788182270E+02  0.10468454679E+02  0.13484766916E+02  0.23625549338E+02  0.41800000000E+01 0. -1.
        -11    1    1    2    0    0  0.23443192465E+02  0.16616294259E-01  0.14877365972E+02  0.27765438360E+02  0.00000000000E+00 0.  1.
         11    1    1    2    0    0  0.17477882010E+02  0.58469177595E+02  0.34418258076E+03  0.34955081174E+03  0.00000000000E+00 0. -1.
</event>
<event>
 6    1  0.4988969E-006  0.1083903E+03  0.7561462E-02  0.1263580E+00
          2   -1    0    0  501    0  0.00000000000E+00  0.00000000000E+00  0.81019363444E+03  0.81019363444E+03  0.00000000000E+00 0. -1.
         -2   -1    0    0    0  501 -0.00000000000E+00 -0.00000000000E+00 -0.23721802544E+02  0.23721802544E+02  0.00000000000E+00 0.  1.
          5    1    1    2  502    0 -0.23785565124E+02 -0.57199120217E+02  0.36273912416E+03  0.36801445224E+03  0.41800000000E+01 0.  1.
         -5    1    1    2    0  502  0.18413998104E+02 -0.20796282010E+02  0.54344970204E+01  0.28610606940E+02  0.41800000000E+01 0.  1.
        -11    1    1    2    0    0  0.51933650958E+02  0.50963359985E+02  0.21475121349E+03  0.22674314071E+03  0.00000000000E+00 0.  1.
         11    1    1    2    0    0 -0.46562083938E+02  0.27032042241E+02  0.20354699723E+03  0.21054723710E+03  0.00000000000E+00 0. -1.
</event>
<event>
 6    1  0.4988969E-006  0.1187664E+03  0.7561462E-02  0.1245146E+00
         -1   -1    0    0    0  501 -0.00000000000E+00  0.00000000000E+00  0.64610326544E+02  0.64610326544E+02  0.00000000000E+00 0.  1.
          1   -1    0    0  501    0  0.00000000000E+00 -0.00000000000E+00 -0.30774914850E+03  0.30774914850E+03  0.00000000000E+00 0. -1.
          5    1    1    2  502    0 -0.22891286755E+02  0.17618688272E+02 -0.45999465664E+02  0.54477999477E+02  0.41800000000E+01 0. -1.
         -5    1    1    2    0  502  0.94264371029E+02 -0.71714043699E+02 -0.64433970473E+02  0.13489953543E+03  0.41800000000E+01 0. -1.
        -11    1    1    2    0    0 -0.26879417933E+02  0.16193592710E+02 -0.11883730556E+03  0.12291070233E+03  0.00000000000E+00 0. -1.
         11    1    1    2    0    0 -0.44493666341E+02  0.37901762718E+02 -0.13868080256E+02  0.60071237806E+02  0.00000000000E+00 0.  1.
</event>
<event>
 6    1  0.4988969E-006  0.1197295E+03  0.7561462E-02  0.1243544E+00
         -2   -1    0    0    0  501 -0.00000000000E+00  0.00000000000E+00  0.43023976617E+02  0.43023976617E+02  0.00000000000E+00 0.  1.
          2   -1    0    0  501    0  0.00000000000E+00 -0.00000000000E+00 -0.49354630482E+03  0.49354630482E+03  0.00000000000E+00 0. -1.
          5    1    1    2  502    0 -0.17276524672E+01  0.93157227012E+02 -0.63563453328E+02  0.11286735014E+03  0.41800000000E+01 0.  1.
         -5    1    1    2    0  502 -0.11567085183E+02 -0.41060464507E+02 -0.31259492027E+02  0.53050800625E+02  0.41800000000E+01 0.  1.
        -11    1    1    2    0    0  0.86440194399E+00 -0.76202345843E+02 -0.23962158894E+03  0.25144790830E+03  0.00000000000E+00 0.  1.
         11    1    1    2    0    0  0.12430335707E+02  0.24105583338E+02 -0.11607779392E+03  0.11920422238E+03  0.00000000000E+00 0. -1.
</event>
<event>
 6    1  0.4988969E-006  0.1236957E+03  0.7561462E-02  0.1237122E+00
          1   -1    0    0  501    0  0.00000000000E+00  0.00000000000E+00  0.20592853614E+03  0.20592853614E+03  0.00000000000E+00 0. -1.
         -1   -1    0    0    0  501 -0.00000000000E+00 -0.00000000000E+00 -0.11448086941E+03  0.11448086941E+03  0.00000000000E+00 0.  1.
          5    1    1    2  502    0  0.81415951735E+02  0.21753122663E+02  0.82387081532E+02  0.11792734690E+03  0.41800000000E+01 0. -1.
         -5    1    1    2    0  502  0.14443045077E+02  0.28193878334E+02 -0.41500905335E+02  0.52376462941E+02  0.41800000000E+01 0. -1.
        -11    1    1    2    0    0 -0.79957776830E+02 -0.69443856884E+02  0.61726996589E+02  0.12258024899E+03  0.00000000000E+00 0. -1.
         11    1    1    2    0    0 -0.15901219983E+02  0.19496855887E+02 -0.11165506062E+02  0.27525346719E+02  0.00000000000E+00 0.  1.
</event>
<event>
 6    1  0.4988969E-006  0.8485616E+02  0.7561462E-02  0.1315809E+00
          2   -1    0    0  501    0  0.00000000000E+00  0.00000000000E+00  0.43463824174E+02  0.43463824174E+02  0.00000000000E+00 0. -1.
         -2   -1    0    0    0  501 -0.00000000000E+00 -0.00000000000E+00 -0.29018920688E+03  0.29018920688E+03  0.00000000000E+00 0.  1.
          5    1    1    2  502    0  0.34843092457E+02  0.19671677237E+02 -0.14067973029E+03  0.14631908587E+03  0.41800000000E+01 0. -1.
         -5    1    1    2    0  502 -0.56123203427E+02 -0.23560668032E+02 -0.34713140786E+02  0.70195395748E+02  0.41800000000E+01 0. -1.
        -11    1    1    2    0    0 -0.10290292384E+00  0.32639672511E+02 -0.74332036168E+02  0.81182574556E+02  0.00000000000E+00 0.  1.
         11    1    1    2    0    0  0.21383013893E+02 -0.28750681716E+02  0.29995245292E+01  0.35955974882E+02  0.00000000000E+00 0. -1.
</event>
<event>
 6    1  0.4988969E-006  0.1165854E+03  0.7561462E-02  0.1248839E+00
         -1   -1    0    0    0  501 -0.00000000000E+00  0.00000000000E+00  0.16624392937E+03  0.16624392937E+03  0.00000000000E+00 0.  1.
          1   -1    0    0  501    0  0.00000000000E+00 -0.00000000000E+00 -0.14685920639E+03  0.14685920639E+03  0.00000000000E+00 0. -1.
          5    1    1    2  502    0 -0.77956776248E+02 -0.18779856791E+02  0.15882321270E+02  0.81851466163E+02  0.41800000000E+01 0. -1.
         -5    1    1    2    0  502  0.19652645986E+02 -0.25723949364E+02  0.79716690187E+02  0.86140415366E+02  0.41800000000E+01 0.  1.
        -11    1    1    2    0    0  0.78805839714E+02  0.56049201078E+02 -0.46771510135E+02  0.10742182029E+03  0.00000000000E+00 0.  1.
         11    1    1    2    0    0 -0.20501709452E+02 -0.11545394924E+02 -0.29442778343E+02  0.37689433943E+02  0.00000000000E+00 0. -1.
</event>
<event>
 6    1  0.4988969E-006  0.1410340E+03  0.7561462E-02  0.1211944E+00
          2   -1    0    0  501    0  0.00000000000E+00  0.00000000000E+00  0.12432807389E+03  0.12432807389E+03  0.00000000000E+00 0. -1.
         -2   -1    0    0    0  501 -0.00000000000E+00 -0.00000000000E+00 -0.27790233850E+03  0.27790233850E+03  0.00000000000E+00 0.  1.
          5    1    1    2  502    0  0.47372353899E+02 -0.31268273424E+02 -0.32572034345E+02  0.65576326965E+02  0.41800000000E+01 0. -1.
         -5    1    1    2    0  502 -0.62050232845E+02 -0.67992030442E+02 -0.17043811123E+03  0.19375182518E+03  0.41800000000E+01 0.  1.
        -11    1    1    2    0    0  0.48202807982E+02  0.82446197284E+02  0.43448742790E+02  0.10492225405E+03  0.00000000000E+00 0. -1.
         11    1    1    2    0    0 -0.33524929036E+02  0.16814106582E+02  0.59871381763E+01  0.37980006195E+02  0.00000000000E+00 0.  1.
</event>
<event>
 6    1  0.4988969E-006  0.1156148E+03  0.7561462E-02  0.1250512E+00
         -1   -1    0    0    0  501 -0.00000000000E+00  0.00000000000E+00  0.54835555389E+02  0.54835555389E+02  0.00000000000E+00 0.  1.
          1   -1    0    0  501    0  0.00000000000E+00 -0.00000000000E+00 -0.53755483585E+03  0.53755483585E+03  0.00000000000E+00 0. -1.
          5    1    1    2  502    0 -0.22865360580E+02  0.29183826059E+02 -0.89351591598E+01  0.38364435185E+02  0.41800000000E+01 0. -1.
         -5    1    1    2    0  502  0.20876793391E+02 -0.10639071574E+03 -0.60373721011E+02  0.12416635408E+03  0.41800000000E+01 0. -1.
        -11    1    1    2    0    0  0.12624392761E+02  0.70459642213E+01 -0.49510021437E+01  0.15281797231E+02  0.00000000000E+00 0.  1.
         11    1    1    2    0    0 -0.10635825572E+02  0.70160925459E+02 -0.40845939814E+03  0.41457780474E+03  0.00000000000E+00 0. -1.
</event>
<event>
 6    1  0.4988969E-006  0.8494219E+02  0.7561462E-02  0.1315584E+00
          2   -1    0    0  501    0  0.00000000000E+00  0.00000000000E+00  0.42163099710E+02  0.42163099710E+02  0.00000000000E+00 0.  1.
         -2   -1    0    0    0  501 -0.00000000000E+00 -0.00000000000E+00 -0.37128755320E+03  0.37128755320E+03  0.00000000000E+00 0. -1.
          5    1    1    2  502    0  0.23985494166E+02 -0.69725019753E+02 -0.21384113400E+03  0.22623524328E+03  0.41800000000E+01 0.  1.
         -5    1    1    2    0  502  0.93520502989E+01  0.16012486051E+02  0.97380044352E+01  0.21357941958E+02  0.41800000000E+01 0.  1.
        -11    1    1    2    0    0 -0.23520116991E+02  0.11475313070E+01 -0.10679858343E+03  0.10936384299E+03  0.00000000000E+00 0. -1.
         11    1    1    2    0    0 -0.98174274735E+01  0.52565002396E+02 -0.18222740499E+02  0.56493624688E+02  0.00000000000E+00 0.  1.
</event>
<event>
 6    1  0.4988969E-006  0.1057015E+03  0.7561462E-02  0.1268744E+00
         -2   -1    0    0    0  501 -0.00000000000E+00  0.00000000000E+00  0.25373316411E+02  0.25373316411E+02  0.00000000000E+00 0.  1.
          2   -1    0    0  501    0  0.00000000000E+00 -0.00000000000E+00 -0.67471977161E+03  0.67471977161E+03  0.00000000000E+00 0. -1.
          5    1    1    2  502    0 -0.55632535604E+01  0.19932524532E+02  0.14158528757E+01  0.21159687232E+02  0.41800000000E+01 0.  1.
         -5    1    1    2    0  502 -0.56759767607E+02 -0.53335077594E+02 -0.30348835311E+03  0.31335116817E+03  0.41800000000E+01 0.  1.
        -11    1    1    2    0    0  0.83137016817E+02  0.37292068816E+02 -0.25154405485E+03  0.26753854581E+03  0.00000000000E+00 0. -1.
         11    1    1    2    0    0 -0.20813995649E+02 -0.38895157547E+01 -0.95729900114E+02  0.98043686811E+02  0.00000000000E+00 0.  1.
</event>
<event>
 6    1  0.4988969E-006  0.1275804E+03  0.7561462E-02  0.1231091E+00
         -2   -1    0    0    0  501 -0.00000000000E+00  0.00000000000E+00  0.44276343786E+02  0.44276343786E+02  0.00000000000E+00 0.  1.
          2   -1    0    0  501    0  0.00000000000E+00 -0.00000000000E+00 -0.86279505601E+03  0.86279505601E+03  0.00000000000E+00 0. -1.
          5    1    1    2  502    0 -0.14897843590E+02 -0.84151145280E+01 -0.12438758663E+03  0.12562843628E+03  0.41800000000E+01 0. -1.
         -5    1    1    2    0  502 -0.76151063536E+02  0.63687463375E+02 -0.31343267719E+02  0.10418709277E+03  0.41800000000E+01 0.  1.
        -11    1    1    2    0    0  0.82090826780E+02  0.10352323273E+00 -0.35195261497E+03  0.36139944347E+03  0.00000000000E+00 0. -1.
         11    1    1    2    0    0  0.89580803456E+01 -0.55375872080E+02 -0.31083524290E+03  0.31585642726E+03  0.00000000000E+00 0.  1.
</event>
<event>
 6    1  0.4988969E-006  0.1334136E+03  0.7561462E-02  0.1222477E+00
          2   -1    0    0  501    0  0.00000000000E+00  0.00000000000E+00  0.74051638711E+03  0.74051638711E+03  0.00000000000E+00 0. -1.
         -2   -1    0    0    0  501 -0.00000000000E+00 -0.00000000000E+00 -0.38503848910E+02  0.38503848910E+02  0.00000000000E+00 0.  1.
          5    1    1    2  502    0  0.98903019293E+02 -0.80685551340E+02  0.16659211655E+03  0.20991038830E+03  0.41800000000E+01 0.  1.
         -5    1    1    2    0  502 -0.20626455475E+02  0.19453712582E+02  0.16446030026E+02  0.33043031070E+02  0.41800000000E+01 0.  1.
        -11    1    1    2    0    0  0.65901355175E+01  0.76314400019E+01  0.31452846225E+01  0.10562271441E+02  0.00000000000E+00 0.  1.
         11    1    1    2    0    0 -0.84866699336E+02  0.53600398757E+02  0.51582910700E+03  0.52550454520E+03  0.00000000000E+00 0. -1.
</event>
<event>
 6    1  0.4988969E-006  0.1320837E+03  0.7561462E-02  0.1224396E+00
         -2   -1    0    0    0  501 -0.00000000000E+00  0.00000000000E+00  0.11905606293E+03  0.11905606293E+03  0.00000000000E+00 0.  1.
          2   -1    0    0  501    0  0.00000000000E+00 -0.00000000000E+00 -0.29283723796E+03  0.29283723796E+03  0.00000000000E+00 0. -1.
          5    1    1    2  502    0  0.46833092384E+02  0.14750048833E+01  0.56530953387E+02  0.73544104267E+02  0.41800000000E+01 0. -1.
         -5    1    1    2    0  502  0.32738594850E+02  0.81586366994E+02 -0.41023620789E+02  0.97100776180E+02  0.41800000000E+01 0. -1.
        -11    1    1    2    0    0 -0.31329308694E+02  0.19284630478E+01 -0.11297691892E+03  0.11725625255E+03  0.00000000000E+00 0. -1.
         11    1    1    2    0    0 -0.48242378540E+02 -0.84989834925E+02 -0.76311588703E+02  0.12399216789E+03  0.00000000000E+00 0.  1.
</event>
<event>
 6    1  0.4988969E-006  0.7270213E+02  0.7561462E-02  0.1351138E+00
         -1   -1    0    0    0  501 -0.00000000000E+00  0.00000000000E+00  0.24676233703E+03  0.24676233703E+03  0.00000000000E+00 0.  1.
          1   -1    0    0  501    0  0.00000000000E+00 -0.00000000000E+00 -0.53247074152E+02  0.53247074152E+02  0.00000000000E+00 0. -1.
          5    1    1    2  502    0  0.44563539883E+02  0.31083440411E+00  0.41748515508E+01  0.44954504673E+02  0.41800000000E+01 0. -1.
         -5    1    1    2    0  502 -0.42299800547E+02 -0.38839597817E+02  0.19998948129E+03  0.20811307626E+03  0.41800000000E+01 0.  1.
        -11    1    1    2    0    0 -0.10713712719E+02  0.23429277460E+02 -0.13994567765E+02  0.29318298202E+02  0.00000000000E+00 0.  1.
         11    1    1    2    0    0  0.84499733830E+01  0.15099485953E+02  0.33454978049E+01  0.17623532046E+02  0.00000000000E+00 0. -1.
</event>
<event>
 6    1  0.4988969E-006  0.7277691E+02  0.7561462E-02  0.1350897E+00
          4   -1    0    0  501    0  0.00000000000E+00  0.00000000000E+00  0.44258857966E+03  0.44258857966E+03  0.00000000000E+00 0. -1.
         -4   -1    0    0    0  501 -0.00000000000E+00 -0.00000000000E+00 -0.38965350412E+02  0.38965350412E+02  0.00000000000E+00 0.  1.
          5    1    1    2  502    0  0.15784324110E+02  0.96756801148E+01  0.24474460958E+03  0.24547944922E+03  0.41800000000E+01 0.  1.
         -5    1    1    2    0  502 -0.47291395081E+02  0.42699237965E+02  0.52169869317E+02  0.82455252325E+02  0.41800000000E+01 0.  1.
        -11    1    1    2    0    0  0.83467055803E+01 -0.27476469391E+02 -0.11261720147E+02  0.30845586474E+02  0.00000000000E+00 0.  1.
         11    1    1    2    0    0  0.23160365390E+02 -0.24898448689E+02  0.11797047050E+03  0.12277364205E+03  0.00000000000E+00 0. -1.
</event>
<event>
 6    1  0.4988969E-006  0.2105981E+03  0.7561462E-02  0.1141093E+00
          2   -1    0    0  501    0  0.00000000000E+00  0.00000000000E+00  0.30109668357E+03  0.30109668357E+03  0.00000000000E+00 0. -1.
         -2   -1    0    0    0  501 -0.00000000000E+00 -0.00000000000E+00 -0.21545432359E+03  0.21545432359E+03  0.00000000000E+00 0.  1.
          5    1    1    2  502    0 -0.54791425861E+01 -0.14772256527E+03 -0.58777251635E+02  0.15913583821E+03  0.41800000000E+01 0.  1.
         -5    1    1    2    0  502 -0.75068700204E+02 -0.23118721285E+02 -0.30890574235E+02  0.84507307381E+02  0.41800000000E+01 0.  1.
        -11    1    1    2    0    0  0.53141821661E+02  0.58567031511E+02  0.24268205217E+02  0.82723008733E+02  0.00000000000E+00 0.  1.
         11    1    1    2    0    0  0.27406021130E+02  0.11227425504E+03  0.15104198063E+03  0.19018485285E+03  0.00000000000E+00 0. -1.
</event>
<event>
 6    1  0.4988969E-006  0.1126392E+03  0.7561462E-02  0.1255759E+00
         -2   -1    0    0    0  501 -0.00000000000E+00  0.00000000000E+00  0.59502435150E+02  0.59502435150E+02  0.00000000000E+00 0.  1.
          2   -1    0    0  501    0  0.00000000000E+00 -0.00000000000E+00 -0.24051390797E+03  0.24051390797E+03  0.00000000000E+00 0. -1.
          5    1    1    2  502    0  0.25050539810E+02 -0.44262795757E+02 -0.47476835693E+02  0.69701125962E+02  0.41800000000E+01 0.  1.
         -5    1    1    2    0  502 -0.58233583189E+02  0.45714481636E+02 -0.22827101561E+02  0.77585520607E+02  0.41800000000E+01 0.  1.
        -11    1    1    2    0    0  0.44910890256E+02 -0.39791071276E+02 -0.88423866029E+02  0.10686017734E+03  0.00000000000E+00 0. -1.
         11    1    1    2    0    0 -0.11727846877E+02  0.38339385398E+02 -0.22283669540E+02  0.45869519217E+02  0.00000000000E+00 0.  1.
</event>
<event>
 6    1  0.4988969E-006  0.1145116E+03  0.7561462E-02  0.1252436E+00
          2   -1    0    0  501    0  0.00000000000E+00  0.00000000000E+00  0.69650693207E+03  0.69650693207E+03  0.00000000000E+00 0. -1.
         -2   -1    0    0    0  501 -0.00000000000E+00 -0.00000000000E+00 -0.23820890144E+02  0.23820890144E+02  0.00000000000E+00 0.  1.
          5    1    1    2  502    0 -0.86062443580E+01 -0.53833084518E+02  0.69536749676E+02  0.88458467012E+02  0.41800000000E+01 0. -1.
         -5    1    1    2    0  502 -0.15902292696E+02  0.50611018811E+02  0.24955916599E+03  0.25516976284E+03  0.41800000000E+01 0. -1.
        -11    1    1    2    0    0  0.67096931926E+02  0.27034010603E+02  0.27360706245E+03  0.28300823420E+03  0.00000000000E+00 0. -1.
         11    1    1    2    0    0 -0.42588394873E+02 -0.23811944896E+02  0.79983063814E+02  0.93691358164E+02  0.00000000000E+00 0.  1.
</event>
<event>
 6    1  0.8727815E-006  0.2242495E+03  0.7561462E-02  0.1130754E+00
          1   -1    0    0  501    0  0.00000000000E+00  0.00000000000E+00  0.20106240491E+04  0.20106240491E+04  0.00000000000E+00 0. -1.
         -1   -1    0    0    0  501 -0.00000000000E+00 -0.00000000000E+00 -0.28890042180E+02  0.28890042180E+02  0.00000000000E+00 0.  1.
          5    1    1    2  502    0 -0.26436315485E+02  0.67361594443E+02  0.58545854988E+03  0.58992851195E+03  0.41800000000E+01 0. -1.
         -5    1    1    2    0  502 -0.10307401396E+02  0.14617319505E+03  0.37650953861E+03  0.40404176831E+03  0.41800000000E+01 0. -1.
        -11    1    1    2    0    0 -0.64957350992E+01 -0.16207378293E+03  0.76942808499E+03  0.78633942013E+03  0.00000000000E+00 0.  1.
         11    1    1    2    0    0  0.43239451980E+02 -0.51461006558E+02  0.25033783343E+03  0.25920439088E+03  0.00000000000E+00 0. -1.
</event>
<event>
 6    1  0.4988969E-006  0.1624345E+03  0.7561462E-02  0.1185975E+00
          1   -1    0    0  501    0  0.00000000000E+00  0.00000000000E+00  0.73775560252E+03  0.73775560252E+03  0.00000000000E+00 0. -1.
         -1   -1    0    0    0  501 -0.00000000000E+00 -0.00000000000E+00 -0.59758648902E+02  0.59758648902E+02  0.00000000000E+00 0.  1.
          5    1    1    2  502    0 -0.46780477956E+02 -0.13334298051E+02  0.77894444173E+02  0.91930590422E+02  0.41800000000E+01 0.  1.
         -5    1    1    2    0  502 -0.40979643974E+02  0.11125469486E+03  0.43236451723E+02  0.12626876695E+03  0.41800000000E+01 0.  1.
        -11    1    1    2    0    0  0.64686341082E+01 -0.71705114550E+02  0.30413806558E+03  0.31254348435E+03  0.00000000000E+00 0. -1.
         11    1    1    2    0    0  0.81291487821E+02 -0.26215282264E+02  0.25272799214E+03  0.26677140969E+03  0.00000000000E+00 0.  1.
</event>
<event>
 6    1  0.4988969E-006  0.8445556E+02  0.7561462E-02  0.1316862E+00
         -3   -1    0    0    0  501 -0.00000000000E+00  0.00000000000E+00  0.15293981531E+03  0.15293981531E+03  0.00000000000E+00 0.  1.
          3   -1    0    0  501    0  0.00000000000E+00 -0.00000000000E+00 -0.78504353098E+02  0.78504353098E+02  0.00000000000E+00 0. -1.
          5    1    1    2  502    0 -0.30010680814E+02  0.48428090395E+02  0.43109932457E+01  0.57288550034E+02  0.41800000000E+01 0.  1.
         -5    1    1    2    0  502  0.37616667665E+02 -0.53240976243E+02  0.35191269276E+02  0.74199144677E+02  0.41800000000E+01 0.  1.
        -11    1    1    2    0    0  0.19266303194E+02  0.33029347368E+01 -0.26474781654E+02  0.32909176232E+02  0.00000000000E+00 0. -1.
         11    1    1    2    0    0 -0.26872290045E+02  0.15099511115E+01  0.61407981340E+02  0.67047297461E+02  0.00000000000E+00 0.  1.
</event>
<event>
 6    1  0.4988969E-006  0.1195419E+03  0.7561462E-02  0.1243855E+00
          1   -1    0    0  501    0  0.00000000000E+00  0.00000000000E+00  0.22888495557E+02  0.22888495557E+02  0.00000000000E+00 0. -1.
         -1   -1    0    0    0  501 -0.00000000000E+00 -0.00000000000E+00 -0.70817151757E+03  0.70817151757E+03  0.00000000000E+00 0.  1.
          5    1    1    2  502    0 -0.73812951650E+02  0.27936461992E+02 -0.22492451730E+03  0.23840576466E+03  0.41800000000E+01 0.  1.
         -5    1    1    2    0  502  0.51233681509E+02  0.18973926229E+02 -0.21785461281E+03  0.22463972205E+03  0.41800000000E+01 0.  1.
        -11    1    1    2    0    0 -0.34505495814E+02 -0.29989965260E+02 -0.15910839192E+03  0.16554608916E+03  0.00000000000E+00 0.  1.
         11    1    1    2    0    0  0.57084765955E+02 -0.16920422960E+02 -0.83395499978E+02  0.10246843726E+03  0.00000000000E+00 0. -1.
</event>
<event>
 6    1  0.4988969E-006  0.1081296E+03  0.7561462E-02  0.1264073E+00
         -2   -1    0    0    0  501 -0.00000000000E+00  0.00000000000E+00  0.53162029664E+02  0.53162029664E+02  0.00000000000E+00 0.  1.
          2   -1    0    0  501    0  0.00000000000E+00 -0.00000000000E+00 -0.31925237848E+03  0.31925237848E+03  0.00000000000E+00 0. -1.
          5    1    1    2  502    0  0.53925699866E+02  0.21771547454E+02 -0.58960167213E+02  0.82920173072E+02  0.41800000000E+01 0. -1.
         -5    1    1    2    0  502 -0.20804759902E+02 -0.76943661768E+02 -0.41658286404E+02  0.90033606765E+02  0.41800000000E+01 0. -1.
        -11    1    1    2    0    0 -0.21037303916E+02  0.61142169877E+02 -0.17252845510E+03  0.18424711914E+03  0.00000000000E+00 0. -1.
         11    1    1    2    0    0 -0.12083636048E+02 -0.59700555627E+01  0.70565598978E+01  0.15213509166E+02  0.00000000000E+00 0.  1.
</event>
<event>
 6    1  0.4988969E-006  0.7952779E+02  0.7561462E-02  0.1330397E+00
          2   -1    0    0  501    0  0.00000000000E+00  0.00000000000E+00  0.72138883885E+02  0.72138883885E+02  0.00000000000E+00 0. -1.
         -2   -1    0    0    0  501 -0.00000000000E+00 -0.00000000000E+00 -0.17528663463E+03  0.17528663463E+03  0.00000000000E+00 0.  1.
          5    1    1    2  502    0  0.34114450085E+02 -0.46128988093E+02 -0.97050499210E+02  0.11281822124E+03  0.41800000000E+01 0.  1.
         -5    1    1    2    0  502 -0.20179092177E+02  0.28615211525E+02  0.15132011845E+02  0.38372858561E+02  0.41800000000E+01 0.  1.
        -11    1    1    2    0    0  0.13469210629E+01  0.39482613814E+02 -0.45394054714E+02  0.60177331225E+02  0.00000000000E+00 0.  1.
         11    1    1    2    0    0 -0.15282278970E+02 -0.21968837246E+02  0.24164791332E+02  0.36057107491E+02  0.00000000000E+00 0. -1.
</event>
<event>
 6    1  0.4988969E-006  0.8299215E+02  0.7561462E-02  0.1320768E+00
         -1   -1    0    0    0  501 -0.00000000000E+00  0.00000000000E+00  0.55997766288E+02  0.55997766288E+02  0.00000000000E+00 0.  1.
          1   -1    0    0  501    0  0.00000000000E+00 -0.00000000000E+00 -0.28063679552E+03  0.28063679552E+03  0.00000000000E+00 0. -1.
          5    1    1    2  502    0  0.10489957457E+02 -0.50420644752E+02  0.18932026856E+02  0.55028853028E+02  0.41800000000E+01 0. -1.
         -5    1    1    2    0  502 -0.32545160690E+02  0.96986142876E+01 -0.89608705124E+02  0.95918939931E+02  0.41800000000E+01 0. -1.
        -11    1    1    2    0    0 -0.22969368558E+01  0.52845771706E+02 -0.14890032820E+03  0.15801664230E+03  0.00000000000E+00 0. -1.
         11    1    1    2    0    0  0.24352140089E+02 -0.12123741241E+02 -0.50620227602E+01  0.27670126545E+02  0.00000000000E+00 0.  1.
</event>
<event>
 6    1  0.4988969E-006  0.1101352E+03  0.7561462E-02  0.1260320E+00
         -1   -1    0    0    0  501 -0.00000000000E+00  0.00000000000E+00  0.34210711692E+03  0.34210711692E+03  0.00000000000E+00 0.  1.
          1   -1    0    0  501    0  0.00000000000E+00 -0.00000000000E+00 -0.42275903350E+02  0.42275903350E+02  0.00000000000E+00 0. -1.
          5    1    1    2  502    0 -0.69518833293E+02 -0.37887727491E+02  0.79569327383E+02  0.11232585783E+03  0.41800000000E+01 0. -1.
         -5    1    1    2    0  502  0.22844594294E+02  0.40764895117E+02  0.10971918695E+03  0.11932905994E+03  0.41800000000E+01 0. -1.
        -11    1    1    2    0    0  0.62508388793E+02 -0.24612814445E+02  0.42323749198E+02  0.79400182938E+02  0.00000000000E+00 0. -1.
         11    1    1    2    0    0 -0.15834149794E+02  0.21735646819E+02  0.68218950045E+02  0.73327919564E+02  0.00000000000E+00 0.  1.
</event>
<event>
 6    1  0.4988969E-006  0.1460126E+03  0.7561462E-02  0.1205460E+00
          1   -1    0    0  501    0  0.00000000000E+00  0.00000000000E+00  0.39819239296E+03  0.39819239296E+03  0.00000000000E+00 0.  1.
         -1   -1    0    0    0  501 -0.00000000000E+00 -0.00000000000E+00 -0.83717745889E+02  0.83717745889E+02  0.00000000000E+00 0. -1.
          5    1    1    2  502    0  0.82831396628E+02 -0.78453950904E+02  0.11320575330E+02  0.11472441111E+03  0.41800000000E+01 0. -1.
         -5    1    1    2    0  502  0.31731344371E+02  0.39148235677E+02  0.46656727284E+02  0.68802508479E+02  0.41800000000E+01 0. -1.
        -11    1    1    2    0    0 -0.23664396765E+02  0.26451005198E+02  0.16498631164E+03  0.16876060671E+03  0.00000000000E+00 0.  1.
         11    1    1    2    0    0 -0.90898344234E+02  0.12854710028E+02  0.91511032818E+02  0.12962261254E+03  0.00000000000E+00 0. -1.
</event>
<event>
 6    1  0.4988969E-006  0.1872888E+03  0.7561462E-02  0.1160930E+00
          1   -1    0    0  501    0  0.00000000000E+00  0.00000000000E+00  0.80377817536E+03  0.80377817536E+03  0.00000000000E+00 0. -1.
         -1   -1    0    0    0  501 -0.00000000000E+00 -0.00000000000E+00 -0.58511155487E+02  0.58511155487E+02  0.00000000000E+00 0.  1.
          5    1    1    2  502    0 -0.36009465295E+02 -0.10040997629E+03  0.19868982099E+03  0.22555257102E+03  0.41800000000E+01 0.  1.
         -5    1    1    2    0  502 -0.88235043803E+02 -0.23503077233E+02  0.52510409669E+02  0.10541647460E+03  0.41800000000E+01 0.  1.
        -11    1    1    2    0    0  0.37305627775E+02  0.25973964490E+02  0.25230450669E+03  0.25636677006E+03  0.00000000000E+00 0. -1.
         11    1    1    2    0    0  0.86938881323E+02  0.97939089037E+02  0.24176228253E+03  0.27495351517E+03  0.00000000000E+00 0.  1.
</event>
<event>
 6    1  0.4988969E-006  0.7750790E+02  0.7561462E-02  0.1336276E+00
          1   -1    0    0  501    0  0.00000000000E+00  0.00000000000E+00  0.21130231030E+03  0.21130231030E+03  0.00000000000E+00 0. -1.
         -1   -1    0    0    0  501 -0.00000000000E+00 -0.00000000000E+00 -0.66670341913E+02  0.66670341913E+02  0.00000000000E+00 0.  1.
          5    1    1    2  502    0 -0.33690253128E+01 -0.22953763125E+01 -0.30423137010E+02  0.30978359374E+02  0.41800000000E+01 0.  1.
         -5    1    1    2    0  502  0.52253274366E+02  0.42434813446E+00  0.11867465557E+03  0.12973716132E+03  0.41800000000E+01 0.  1.
        -11    1    1    2    0    0 -0.30163617905E+01  0.38153116466E+02  0.35347579135E+01  0.38435052335E+02  0.00000000000E+00 0.  1.
         11    1    1    2    0    0 -0.45867887263E+02 -0.36282088288E+02  0.52845691913E+02  0.78822079180E+02  0.00000000000E+00 0. -1.
</event>
<event>
 6    1  0.4988969E-006  0.1717291E+03  0.7561462E-02  0.1176057E+00
         -2   -1    0    0    0  501 -0.00000000000E+00  0.00000000000E+00  0.21468928662E+03  0.21468928662E+03  0.00000000000E+00 0.  1.
          2   -1    0    0  501    0  0.00000000000E+00 -0.00000000000E+00 -0.14083583643E+03  0.14083583643E+03  0.00000000000E+00 0. -1.
          5    1    1    2  502    0 -0.79189217063E+02  0.62652493328E+02  0.74518290355E+01  0.10133740265E+03  0.41800000000E+01 0.  1.
         -5    1    1    2    0  502 -0.58374937569E+02 -0.61458898968E+02  0.48744040736E+01  0.85006245733E+02  0.41800000000E+01 0.  1.
        -11    1    1    2    0    0  0.79950263893E+02  0.37315810093E+02  0.36925834908E+02  0.95645343133E+02  0.00000000000E+00 0. -1.
         11    1    1    2    0    0  0.57613890738E+02 -0.38509404453E+02  0.24601382175E+02  0.73536131543E+02  0.00000000000E+00 0.  1.
</event>
<event>
 6    1  0.4988969E-006  0.7619127E+02  0.7561462E-02  0.1340221E+00
         -1   -1    0    0    0  501 -0.00000000000E+00  0.00000000000E+00  0.34919329903E+03  0.34919329903E+03  0.00000000000E+00 0.  1.
          1   -1    0    0  501    0  0.00000000000E+00 -0.00000000000E+00 -0.38535047073E+02  0.38535047073E+02  0.00000000000E+00 0. -1.
          5    1    1    2  502    0 -0.33132228054E+02 -0.62891105177E+02  0.52190340665E+02  0.88285557736E+02  0.41800000000E+01 0. -1.
         -5    1    1    2    0  502 -0.29472101963E+01  0.49526287393E+01  0.21006423383E+03  0.21018484559E+03  0.41800000000E+01 0. -1.
        -11    1    1    2    0    0  0.36976809776E+02  0.34412298497E+02  0.39362794932E+02  0.64038428884E+02  0.00000000000E+00 0.  1.
         11    1    1    2    0    0 -0.89737152573E+00  0.23526177940E+02  0.90408825261E+01  0.25219513893E+02  0.00000000000E+00 0. -1.
</event>
<event>
 6    1  0.4988969E-006  0.2005605E+03  0.7561462E-02  0.1149267E+00
         -4   -1    0    0    0  501 -0.00000000000E+00  0.00000000000E+00  0.12440196210E+03  0.12440196210E+03  0.00000000000E+00 0.  1.
          4   -1    0    0  501    0  0.00000000000E+00 -0.00000000000E+00 -0.36109370921E+03  0.36109370921E+03  0.00000000000E+00 0. -1.
          5    1    1    2  502    0 -0.40768745511E+02 -0.40338421309E+02  0.26664014031E+01  0.57566144049E+02  0.41800000000E+01 0. -1.
         -5    1    1    2    0  502 -0.12490472133E+03  0.85084197202E+02 -0.57514098470E+02  0.16175862866E+03  0.41800000000E+01 0. -1.
        -11    1    1    2    0    0  0.10335947157E+03  0.16948574573E+02 -0.11751171562E+03  0.15741485906E+03  0.00000000000E+00 0.  1.
         11    1    1    2    0    0  0.62313995272E+02 -0.61694350466E+02 -0.64332334416E+02  0.10875603955E+03  0.00000000000E+00 0. -1.
</event>
<event>
 6    1  0.4988969E-006  0.6584750E+02  0.7561462E-02  0.1374812E+00
          2   -1    0    0  501    0  0.00000000000E+00  0.00000000000E+00  0.53383937925E+02  0.53383937925E+02  0.00000000000E+00 0. -1.
         -2   -1    0    0    0  501 -0.00000000000E+00 -0.00000000000E+00 -0.28056618102E+03  0.28056618102E+03  0.00000000000E+00 0.  1.
          5    1    1    2  502    0 -0.10603732546E+02  0.16706682570E+02  0.72186112023E+01  0.21474010666E+02  0.41800000000E+01 0. -1.
         -5    1    1    2    0  502 -0.10891197084E+02 -0.19384149438E+02 -0.20652304165E+03  0.20775851982E+03  0.41800000000E+01 0.  1.
        -11    1    1    2    0    0 -0.19431561515E+02 -0.30498455493E+02 -0.36444565881E+02  0.51341481792E+02  0.00000000000E+00 0.  1.
         11    1    1    2    0    0  0.40926491145E+02  0.33175922361E+02  0.85667532376E+01  0.53376106667E+02  0.00000000000E+00 0. -1.
</event>
<event>
 6    1  0.4988969E-006  0.1273160E+03  0.7561462E-02  0.1231494E+00
          2   -1    0    0  501    0  0.00000000000E+00  0.00000000000E+00  0.60946694345E+02  0.60946694345E+02  0.00000000000E+00 0. -1.
         -2   -1    0    0    0  501 -0.00000000000E+00 -0.00000000000E+00 -0.29282325761E+03  0.29282325761E+03  0.00000000000E+00 0.  1.
          5    1    1    2  502    0  0.79946049761E+01  0.78475860288E+02 -0.78512436006E+02  0.11137346795E+03  0.41800000000E+01 0. -1.
         -5    1    1    2    0  502 -0.59100699221E+02 -0.26433662207E+02 -0.87206324834E+02  0.10869244057E+03  0.41800000000E+01 0. -1.
        -11    1    1    2    0    0 -0.37023602564E+01  0.19944330618E+02  0.20632265775E+01  0.20389720430E+02  0.00000000000E+00 0. -1.
         11    1    1    2    0    0  0.54808454501E+02 -0.71986528699E+02 -0.68221029001E+02  0.11331432300E+03  0.00000000000E+00 0.  1.
</event>
<event>
 6    1  0.4988969E-006  0.9175529E+02  0.7561462E-02  0.1298656E+00
          1   -1    0    0  501    0  0.00000000000E+00  0.00000000000E+00  0.50592179415E+02  0.50592179415E+02  0.00000000000E+00 0. -1.
         -1   -1    0    0    0  501 -0.00000000000E+00 -0.00000000000E+00 -0.31720073352E+03  0.31720073352E+03  0.00000000000E+00 0.  1.
          5    1    1    2  502    0 -0.40512966976E+02 -0.46866162573E+02 -0.11281800505E+02  0.63106965623E+02  0.41800000000E+01 0.  1.
         -5    1    1    2    0  502 -0.24017357701E+02  0.31191177580E+02 -0.13423083866E+03  0.13994682375E+03  0.41800000000E+01 0.  1.
        -11    1    1    2    0    0  0.74018539494E+01  0.23069051047E+02  0.62066532225E+01  0.25009820118E+02  0.00000000000E+00 0. -1.
         11    1    1    2    0    0  0.57128470728E+02 -0.73940660537E+01 -0.12730256816E+03  0.13972930344E+03  0.00000000000E+00 0.  1.
</event>
<event>
 6    1  0.4988969E-006  0.1886138E+03  0.7561462E-02  0.1159718E+00
          2   -1    0    0  501    0  0.00000000000E+00  0.00000000000E+00  0.68586020270E+03  0.68586020270E+03  0.00000000000E+00 0. -1.
         -2   -1    0    0    0  501 -0.00000000000E+00 -0.00000000000E+00 -0.85564513284E+02  0.85564513284E+02  0.00000000000E+00 0.  1.
          5    1    1    2  502    0  0.35865738699E+02 -0.37974419177E+02  0.27092694457E+02  0.58990628215E+02  0.41800000000E+01 0. -1.
         -5    1    1    2    0  502  0.11461929195E+03  0.10093390064E+03  0.55653732901E+02  0.16260395066E+03  0.41800000000E+01 0. -1.
        -11    1    1    2    0    0 -0.10832697627E+03 -0.70456219726E+02  0.27906450197E+03  0.30753180152E+03  0.00000000000E+00 0.  1.
         11    1    1    2    0    0 -0.42158054372E+02  0.74967382598E+01  0.23848476010E+03  0.24229833559E+03  0.00000000000E+00 0. -1.
</event>
<event>
 6    1  0.4988969E-006  0.8605482E+02  0.7561462E-02  0.1312697E+00
          1   -1    0    0  501    0  0.00000000000E+00  0.00000000000E+00  0.49318483723E+02  0.49318483723E+02  0.00000000000E+00 0. -1.
         -1   -1    0    0    0  501 -0.00000000000E+00 -0.00000000000E+00 -0.24900705906E+03  0.24900705906E+03  0.00000000000E+00 0.  1.
          5    1    1    2  502    0 -0.95335406339E+00  0.73124834120E+02 -0.73564953852E+02  0.10381437802E+03  0.41800000000E+01 0.  1.
         -5    1    1    2    0  502 -0.97394670067E+01 -0.52820908574E+02 -0.58674402073E+02  0.79655906616E+02  0.41800000000E+01 0.  1.
        -11    1    1    2    0    0  0.21120425683E+02 -0.25683289095E+02 -0.86393420359E+02  0.92571738674E+02  0.00000000000E+00 0.  1.
         11    1    1    2    0    0 -0.10427604613E+02  0.53793635495E+01  0.18944200950E+02  0.22283519467E+02  0.00000000000E+00 0. -1.
</event>
<event>
 6    1  0.4988969E-006  0.8949862E+02  0.7561462E-02  0.1304070E+00
         -1   -1    0    0    0  501 -0.00000000000E+00  0.00000000000E+00  0.31777688533E+03  0.31777688533E+03  0.00000000000E+00 0.  1.
          1   -1    0    0  501    0  0.00000000000E+00 -0.00000000000E+00 -0.51181937630E+02  0.51181937630E+02  0.00000000000E+00 0. -1.
          5    1    1    2  502    0 -0.50292556823E+02 -0.14011734109E+02  0.38205130315E+02  0.64828808001E+02  0.41800000000E+01 0. -1.
         -5    1    1    2    0  502  0.48345443084E+02 -0.16316860461E+02  0.19434451699E+03  0.20097458916E+03  0.41800000000E+01 0. -1.
        -11    1    1    2    0    0  0.66464125769E+01 -0.21951534003E+02 -0.18061231971E+02  0.29193368177E+02  0.00000000000E+00 0.  1.
         11    1    1    2    0    0 -0.46992988383E+01  0.52280128573E+02  0.52106532368E+02  0.73962057628E+02  0.00000000000E+00 0. -1.
</event>
<event>
 6    1  0.4988969E-006  0.1074768E+03  0.7561462E-02  0.1265315E+00
          1   -1    0    0  501    0  0.00000000000E+00  0.00000000000E+00  0.29819364601E+03  0.29819364601E+03  0.00000000000E+00 0. -1.
         -1   -1    0    0    0  501 -0.00000000000E+00 -0.00000000000E+00 -0.64937498290E+02  0.64937498290E+02  0.00000000000E+00 0.  1.
          5    1    1    2  502    0  0.85157303766E+02 -0.71804170102E+00 -0.14579554879E+01  0.85275318837E+02  0.41800000000E+01 0. -1.
         -5    1    1    2    0  502 -0.59813248264E+01  0.81191215586E+01  0.83359894284E+02  0.84071640620E+02  0.41800000000E+01 0. -1.
        -11    1    1    2    0    0  0.10419723323E+01  0.30174140832E+02  0.56087021187E+02  0.63697083347E+02  0.00000000000E+00 0.  1.
         11    1    1    2    0    0 -0.80217951272E+02 -0.37575220689E+02  0.95267187737E+02  0.13008710150E+03  0.00000000000E+00 0. -1.
</event>
<event>
 6    1  0.4988969E-006  0.1111508E+03  0.7561462E-02  0.1258454E+00
         -3   -1    0    0    0  501 -0.00000000000E+00  0.00000000000E+00  0.79589553286E+02  0.79589553286E+02  0.00000000000E+00 0.  1.
          3   -1    0    0  501    0  0.00000000000E+00 -0.00000000000E+00 -0.20422702519E+03  0.20422702519E+03  0.00000000000E+00 0. -1.
          5    1    1    2  502    0  0.22493294981E+02  0.39125173849E+02 -0.10852081947E+02  0.46604373511E+02  0.41800000000E+01 0. -1.
         -5    1    1    2    0  502  0.55064752100E+01 -0.91899125757E+02 -0.49173483337E+02  0.10445704595E+03  0.41800000000E+01 0. -1.
        -11    1    1    2    0    0  0.14956394270E+02 -0.21308366043E+01  0.18754581113E+02  0.24082535309E+02  0.00000000000E+00 0.  1.
         11    1    1    2    0    0 -0.42956164461E+02  0.54904788513E+02 -0.83366487731E+02  0.10867262371E+03  0.00000000000E+00 0. -1.
</event>
<event>
 6    1  0.4988969E-006  0.2046621E+03  0.7561462E-02  0.1145864E+00
         -1   -1    0    0    0  501 -0.00000000000E+00  0.00000000000E+00  0.11824372820E+03  0.11824372820E+03  0.00000000000E+00 0.  1.
          1   -1    0    0  501    0  0.00000000000E+00 -0.00000000000E+00 -0.43668568075E+03  0.43668568075E+03  0.00000000000E+00 0. -1.
          5    1    1    2  502    0  0.82868739274E+02  0.17671467953E+03 -0.22410194626E+03  0.29721113813E+03  0.41800000000E+01 0. -1.
         -5    1    1    2    0  502  0.55824308145E+00  0.85566820268E+00  0.15008626391E+02  0.15613297844E+02  0.41800000000E+01 0. -1.
        -11    1    1    2    0    0 -0.45059913979E+02 -0.16240578308E+03 -0.62687922193E+02  0.17982160553E+03  0.00000000000E+00 0.  1.
         11    1    1    2    0    0 -0.38367068376E+02 -0.15164564656E+02 -0.46660710490E+02  0.62283367446E+02  0.00000000000E+00 0. -1.
</event>
<event>
 6    1  0.4988969E-006  0.9864198E+02  0.7561462E-02  0.1283178E+00
         -1   -1    0    0    0  501 -0.00000000000E+00  0.00000000000E+00  0.11737998974E+04  0.11737998974E+04  0.00000000000E+00 0.  1.
          1   -1    0    0  501    0  0.00000000000E+00 -0.00000000000E+00 -0.14357104575E+02  0.14357104575E+02  0.00000000000E+00 0. -1.
          5    1    1    2  502    0  0.46834014286E+02  0.12544721530E+02  0.61072385206E+03  0.61265968597E+03  0.41800000000E+01 0.  1.
         -5    1    1    2    0  502 -0.56429298539E+02 -0.36711698248E+02  0.34173568745E+03  0.34832853314E+03  0.41800000000E+01 0.  1.
        -11    1    1    2    0    0  0.13958603776E+02 -0.26693011344E+02  0.13859055606E+03  0.14182630822E+03  0.00000000000E+00 0.  1.
         11    1    1    2    0    0 -0.43633195239E+01  0.50859988062E+02  0.68392697287E+02  0.85342474684E+02  0.00000000000E+00 0. -1.
</event>
<event>
 6    1  0.4988969E-006  0.1242073E+03  0.7561462E-02  0.1236313E+00
         -1   -1    0    0    0  501 -0.00000000000E+00  0.00000000000E+00  0.62363096571E+02  0.62363096571E+02  0.00000000000E+00 0.  1.
          1   -1    0    0  501    0  0.00000000000E+00 -0.00000000000E+00 -0.50692989001E+03  0.50692989001E+03  0.00000000000E+00 0. -1.
          5    1    1    2  502    0 -0.33637173947E+02 -0.10465277679E+03 -0.20630536650E+02  0.11192298514E+03  0.41800000000E+01 0. -1.
         -5    1    1    2    0  502 -0.21480712870E+02  0.34192881940E+01 -0.86068510638E+02  0.88872793816E+02  0.41800000000E+01 0. -1.
        -11    1    1    2    0    0  0.12551188350E+02  0.38125642112E+02 -0.26829474451E+02  0.48279577616E+02  0.00000000000E+00 0.  1.
         11    1    1    2    0    0  0.42566698467E+02  0.63107846480E+02 -0.31103827170E+03  0.32021763001E+03  0.00000000000E+00 0. -1.
</event>
<event>
 6    1  0.5227636E-006  0.1480986E+03  0.7561462E-02  0.1202829E+00
          1   -1    0    0  501    0  0.00000000000E+00  0.00000000000E+00  0.15788221002E+03  0.15788221002E+03  0.00000000000E+00 0. -1.
         -1   -1    0    0    0  501 -0.00000000000E+00 -0.00000000000E+00 -0.18972264586E+03  0.18972264586E+03  0.00000000000E+00 0.  1.
          5    1    1    2  502    0 -0.11197112815E+03 -0.30113789452E+02 -0.12132725424E+02  0.11665782992E+03  0.41800000000E+01 0.  1.
         -5    1    1    2    0  502  0.13308682784E+02 -0.50548958544E+02 -0.49886415968E+02  0.72377103738E+02  0.41800000000E+01 0.  1.
        -11    1    1    2    0    0  0.19818096266E+02  0.20874659694E+02 -0.30946061011E+02  0.42263069565E+02  0.00000000000E+00 0.  1.
         11    1    1    2    0    0  0.78844349103E+02  0.59788088302E+02  0.61124766567E+02  0.11630685266E+03  0.00000000000E+00 0. -1.
</event>
<event>
 6    1  0.4988969E-006  0.1368547E+03  0.7561462E-02  0.1217625E+00
         -1   -1    0    0    0  501 -0.00000000000E+00  0.00000000000E+00  0.63562304135E+02  0.63562304135E+02  0.00000000000E+00 0.  1.
          1   -1    0    0  501    0  0.00000000000E+00 -0.00000000000E+00 -0.34022094155E+03  0.34022094155E+03  0.00000000000E+00 0. -1.
          5    1    1    2  502    0 -0.54882207392E+02 -0.17736664554E+02 -0.89377752870E+01  0.58514974022E+02  0.41800000000E+01 0.  1.
         -5    1    1    2    0  502 -0.85302315940E+01  0.86902608544E+02 -0.95849988729E+02  0.12972864357E+03  0.41800000000E+01 0.  1.
        -11    1    1    2    0    0  0.66705069130E+02 -0.79736972884E+01 -0.72911344032E+02  0.99142373306E+02  0.00000000000E+00 0.  1.
         11    1    1    2    0    0 -0.32926301447E+01 -0.61192246702E+02 -0.98959529366E+02  0.11639725479E+03  0.00000000000E+00 0. -1.
</event>
<event>
 6    1  0.4988969E-006  0.1052385E+03  0.7561462E-02  0.1269650E+00
          2   -1    0    0  501    0  0.00000000000E+00  0.00000000000E+00  0.38863124080E+03  0.38863124080E+03  0.00000000000E+00 0. -1.
         -2   -1    0    0    0  501 -0.00000000000E+00 -0.00000000000E+00 -0.32621058112E+02  0.32621058112E+02  0.00000000000E+00 0.  1.
          5    1    1    2  502    0 -0.37934432397E+01 -0.47521046906E+02  0.31537884547E+02  0.57312744415E+02  0.41800000000E+01 0. -1.
         -5    1    1    2    0  502  0.32703629083E+02  0.57742323747E+02  0.16253162070E+03  0.17560667252E+03  0.41800000000E+01 0. -1.
        -11    1    1    2    0    0 -0.57066611482E+02  0.14257310698E+02  0.97291662409E+02  0.11369053008E+03  0.00000000000E+00 0. -1.
         11    1    1    2    0    0  0.28156425639E+02 -0.24478587538E+02  0.64649015031E+02  0.74642351899E+02  0.00000000000E+00 0.  1.
</event>
<event>
 6    1  0.4988969E-006  0.3453879E+03  0.7561462E-02  0.1064524E+00
          2   -1    0    0  501    0  0.00000000000E+00  0.00000000000E+00  0.19323476113E+04  0.19323476113E+04  0.00000000000E+00 0.  1.
         -2   -1    0    0    0  501 -0.00000000000E+00 -0.00000000000E+00 -0.67802063075E+02  0.67802063075E+02  0.00000000000E+00 0. -1.
          5    1    1    2  502    0  0.67054424404E+02  0.41680986515E+02  0.90360269599E+02  0.12006686134E+03  0.41800000000E+01 0. -1.
         -5    1    1    2    0  502  0.26068441783E+03  0.61922611130E+02  0.75051223356E+03  0.79691709769E+03  0.41800000000E+01 0. -1.
        -11    1    1    2    0    0 -0.22377260455E+03 -0.72409074882E+02  0.56854221122E+03  0.61527026469E+03  0.00000000000E+00 0. -1.
         11    1    1    2    0    0 -0.10396623769E+03 -0.31194522764E+02  0.45513083382E+03  0.46789545063E+03  0.00000000000E+00 0.  1.
</event>
<event>
 6    1  0.4988969E-006  0.8965400E+02  0.7561462E-02  0.1303692E+00
         -1   -1    0    0    0  501 -0.00000000000E+00  0.00000000000E+00  0.15223268711E+03  0.15223268711E+03  0.00000000000E+00 0.  1.
          1   -1    0    0  501    0  0.00000000000E+00 -0.00000000000E+00 -0.88054255369E+02  0.88054255369E+02  0.00000000000E+00 0. -1.
          5    1    1    2  502    0  0.26469272012E+01 -0.66582721355E+02  0.65648625419E+02  0.93634819517E+02  0.41800000000E+01 0. -1.
         -5    1    1    2    0  502  0.11965959321E+02  0.49559114099E+02  0.41259062007E+01  0.51320419666E+02  0.41800000000E+01 0. -1.
        -11    1    1    2    0    0  0.11703565197E+02  0.29885946232E+02  0.33556465644E+02  0.46434681080E+02  0.00000000000E+00 0.  1.
         11    1    1    2    0    0 -0.26316451719E+02 -0.12862338975E+02 -0.39152565521E+02  0.48897022218E+02  0.00000000000E+00 0. -1.
</event>
<event>
 6    1  0.4988969E-006  0.1789711E+03  0.7561462E-02  0.1168803E+00
         -2   -1    0    0    0  501 -0.00000000000E+00  0.00000000000E+00  0.38090261467E+02  0.38090261467E+02  0.00000000000E+00 0. -1.
          2   -1    0    0  501    0  0.00000000000E+00 -0.00000000000E+00 -0.93231778432E+03  0.93231778432E+03  0.00000000000E+00 0.  1.
          5    1    1    2  502    0  0.26300814802E+02 -0.65216821268E+01 -0.37180263881E+02  0.46196424313E+02  0.41800000000E+01 0. -1.
         -5    1    1    2    0  502 -0.90390218204E+02  0.13432610123E+03 -0.28694981592E+03  0.32950199131E+03  0.41800000000E+01 0. -1.
        -11    1    1    2    0    0  0.69544496873E+02 -0.39279869526E+02 -0.29826261984E+03  0.30877165607E+03  0.00000000000E+00 0.  1.
         11    1    1    2    0    0 -0.54550934714E+01 -0.88524549580E+02 -0.27183482321E+03  0.28593797410E+03  0.00000000000E+00 0. -1.
</event>
<event>
 6    1  0.4988969E-006  0.9575301E+02  0.7561462E-02  0.1289489E+00
          2   -1    0    0  501    0  0.00000000000E+00  0.00000000000E+00  0.48412258555E+03  0.48412258555E+03  0.00000000000E+00 0. -1.
         -2   -1    0    0    0  501 -0.00000000000E+00 -0.00000000000E+00 -0.31785355546E+02  0.31785355546E+02  0.00000000000E+00 0.  1.
          5    1    1    2  502    0  0.12650956558E+02 -0.16718364836E+02 -0.12001317744E+01  0.21411752401E+02  0.41800000000E+01 0.  1.
         -5    1    1    2    0  502  0.95173179654E+01  0.70115390798E+02  0.29061727770E+03  0.29913646028E+03  0.41800000000E+01 0.  1.
        -11    1    1    2    0    0  0.37981373812E+01 -0.68899535682E+02  0.14401961922E+03  0.15969728421E+03  0.00000000000E+00 0.  1.
         11    1    1    2    0    0 -0.25966411904E+02  0.15502509720E+02  0.18900464856E+02  0.35662444204E+02  0.00000000000E+00 0. -1.
</event>
<event>
 6    1  0.4988969E-006  0.1217142E+03  0.7561462E-02  0.1240296E+00
          2   -1    0    0  501    0  0.00000000000E+00  0.00000000000E+00  0.80916958402E+03  0.80916958402E+03  0.00000000000E+00 0. -1.
         -2   -1    0    0    0  501 -0.00000000000E+00 -0.00000000000E+00 -0.18662059705E+02  0.18662059705E+02  0.00000000000E+00 0.  1.
          5    1    1    2  502    0  0.44422012438E+02  0.78899525907E+01  0.11973302208E+03  0.12801966847E+03  0.41800000000E+01 0.  1.
         -5    1    1    2    0  502 -0.67582782596E+02 -0.62629769600E+02  0.31681338942E+03  0.32996684176E+03  0.41800000000E+01 0.  1.
        -11    1    1    2    0    0 -0.32962049459E+02  0.29920388270E+02  0.17831389268E+03  0.18378675322E+03  0.00000000000E+00 0. -1.
         11    1    1    2    0    0  0.56122819617E+02  0.24819428739E+02  0.17564722014E+03  0.18605838027E+03  0.00000000000E+00 0.  1.
</event>
<event>
 6    1  0.4988969E-006  0.9357744E+02  0.7561462E-02  0.1294413E+00
         -2   -1    0    0    0  501 -0.00000000000E+00  0.00000000000E+00  0.95886179174E+02  0.95886179174E+02  0.00000000000E+00 0. -1.
          2   -1    0    0  501    0  0.00000000000E+00 -0.00000000000E+00 -0.16474978906E+03  0.16474978906E+03  0.00000000000E+00 0.  1.
          5    1    1    2  502    0 -0.46119117093E+02  0.20410648735E+02  0.31868061865E+02  0.59804793372E+02  0.41800000000E+01 0.  1.
         -5    1    1    2    0  502  0.10474553461E+02 -0.64913353411E+02 -0.41802019073E+02  0.78027821448E+02  0.41800000000E+01 0.  1.
        -11    1    1    2    0    0  0.35943912098E+01  0.37734622082E+02  0.15909878475E+02  0.41108947747E+02  0.00000000000E+00 0. -1.
         11    1    1    2    0    0  0.32050172423E+02  0.67680825951E+01 -0.74839531156E+02  0.81694405671E+02  0.00000000000E+00 0.  1.
</event>
<event>
 6    1  0.4988969E-006  0.1040104E+03  0.7561462E-02  0.1272082E+00
         -2   -1    0    0    0  501 -0.00000000000E+00  0.00000000000E+00  0.29729344843E+02  0.29729344843E+02  0.00000000000E+00 0. -1.
          2   -1    0    0  501    0  0.00000000000E+00 -0.00000000000E+00 -0.49176147267E+03  0.49176147267E+03  0.00000000000E+00 0.  1.
          5    1    1    2  502    0 -0.28256211851E+02  0.62359785572E+02 -0.18453499522E+03  0.19686999067E+03  0.41800000000E+01 0.  1.
         -5    1    1    2    0  502  0.35955706217E+02 -0.17056771348E+02 -0.14303063864E+02  0.42494661950E+02  0.41800000000E+01 0.  1.
        -11    1    1    2    0    0 -0.22858196566E+01  0.26906294700E+02 -0.10012629924E+03  0.10370366178E+03  0.00000000000E+00 0. -1.
         11    1    1    2    0    0 -0.54136747095E+01 -0.72209308923E+02 -0.16306776949E+03  0.17842250311E+03  0.00000000000E+00 0.  1.
</event>
<event>
 6    1  0.4988969E-006  0.1438952E+03  0.7561462E-02  0.1208182E+00
          2   -1    0    0  501    0  0.00000000000E+00  0.00000000000E+00  0.68908172284E+03  0.68908172284E+03  0.00000000000E+00 0. -1.
         -2   -1    0    0    0  501 -0.00000000000E+00 -0.00000000000E+00 -0.45992478044E+02  0.45992478044E+02  0.00000000000E+00 0.  1.
          5    1    1    2  502    0  0.31280008912E+02  0.55985248953E+02  0.20777903718E+03  0.21749112108E+03  0.41800000000E+01 0. -1.
         -5    1    1    2    0  502  0.75681194579E+02  0.22706408586E+02  0.35899450171E+02  0.86887669587E+02  0.41800000000E+01 0. -1.
        -11    1    1    2    0    0 -0.25438483295E+02 -0.53223786101E+02  0.76058675808E+02  0.96253883065E+02  0.00000000000E+00 0.  1.
         11    1    1    2    0    0 -0.81522720195E+02 -0.25467871438E+02  0.32335208164E+03  0.33444152715E+03  0.00000000000E+00 0. -1.
</event>
<event>
 6    1  0.4988969E-006  0.1221220E+03  0.7561462E-02  0.1239637E+00
         -2   -1    0    0    0  501 -0.00000000000E+00  0.00000000000E+00  0.16271281719E+03  0.16271281719E+03  0.00000000000E+00 0. -1.
          2   -1    0    0  501    0  0.00000000000E+00 -0.00000000000E+00 -0.13681607134E+03  0.13681607134E+03  0.00000000000E+00 0.  1.
          5    1    1    2  502    0 -0.37715371436E+02  0.43166338817E+02  0.80836216794E+02  0.99185424307E+02  0.41800000000E+01 0.  1.
         -5    1    1    2    0  502 -0.52232326498E+02 -0.49364930763E+01 -0.38379292510E+02  0.65138524614E+02  0.41800000000E+01 0.  1.
        -11    1    1    2    0    0  0.71907782472E+02 -0.68233792673E+02 -0.10643770369E+02  0.99698894127E+02  0.00000000000E+00 0.  1.
         11    1    1    2    0    0  0.18039915463E+02  0.30003946932E+02 -0.59164080577E+01  0.35506045481E+02  0.00000000000E+00 0. -1.
</event>
<event>
 6    1  0.4988969E-006  0.1162766E+03  0.7561462E-02  0.1249369E+00
         -2   -1    0    0    0  501 -0.00000000000E+00  0.00000000000E+00  0.13852689685E+03  0.13852689685E+03  0.00000000000E+00 0.  1.
          2   -1    0    0  501    0  0.00000000000E+00 -0.00000000000E+00 -0.11451230101E+03  0.11451230101E+03  0.00000000000E+00 0. -1.
          5    1    1    2  502    0  0.31558352452E+02  0.67659711476E+02  0.36620870340E+00  0.74775481779E+02  0.41800000000E+01 0. -1.
         -5    1    1    2    0  502 -0.49658446022E+02 -0.51234843279E+01  0.37046352570E+02  0.62306628794E+02  0.41800000000E+01 0.  1.
        -11    1    1    2    0    0  0.52659857102E+02 -0.42976680258E+02 -0.28184329381E+02  0.73582688308E+02  0.00000000000E+00 0. -1.
         11    1    1    2    0    0 -0.34559763533E+02 -0.19559546890E+02  0.14786363952E+02  0.42374398980E+02  0.00000000000E+00 0.  1.
</event>
<event>
 6    1  0.4988969E-006  0.6425332E+02  0.7561462E-02  0.1380802E+00
          2   -1    0    0  501    0  0.00000000000E+00  0.00000000000E+00  0.10069161558E+03  0.10069161558E+03  0.00000000000E+00 0. -1.
         -2   -1    0    0    0  501 -0.00000000000E+00 -0.00000000000E+00 -0.11707114649E+03  0.11707114649E+03  0.00000000000E+00 0.  1.
          5    1    1    2  502    0 -0.24720383898E+02 -0.37348529695E+01 -0.56619350945E+02  0.62034424381E+02  0.41800000000E+01 0.  1.
         -5    1    1    2    0  502  0.32615767852E+02  0.36195098103E+01  0.54004286804E+02  0.63331071024E+02  0.41800000000E+01 0.  1.
        -11    1    1    2    0    0 -0.70610516935E+01 -0.34619721826E+02 -0.36558999030E+02  0.50842344561E+02  0.00000000000E+00 0.  1.
         11    1    1    2    0    0 -0.83433226018E+00  0.34735064985E+02  0.22794532263E+02  0.41554922102E+02  0.00000000000E+00 0. -1.
</event>
<event>
 6    1  0.4988969E-006  0.1228180E+03  0.7561462E-02  0.1238519E+00
          1   -1    0    0  501    0  0.00000000000E+00  0.00000000000E+00  0.47169634092E+03  0.47169634092E+03  0.00000000000E+00 0. -1.
         -1   -1    0    0    0  501 -0.00000000000E+00 -0.00000000000E+00 -0.35088986243E+02  0.35088986243E+02  0.00000000000E+00 0.  1.
          5    1    1    2  502    0 -0.38813619996E+02  0.39201600604E+01  0.83322833231E+02  0.92097946176E+02  0.41800000000E+01 0. -1.
         -5    1    1    2    0  502  0.90940345149E+02  0.30185174150E+02  0.10203812194E+03  0.14003764438E+03  0.41800000000E+01 0. -1.
        -11    1    1    2    0    0  0.89352396076E+01 -0.47202471913E+02  0.12160561745E+03  0.13075105375E+03  0.00000000000E+00 0. -1.
         11    1    1    2    0    0 -0.61061964760E+02  0.13097137703E+02  0.12964078205E+03  0.14389868286E+03  0.00000000000E+00 0.  1.
</event>
<event>
 6    1  0.4988969E-006  0.5376259E+02  0.7561462E-02  0.1426043E+00
         -2   -1    0    0    0  501 -0.00000000000E+00  0.00000000000E+00  0.11107564828E+03  0.11107564828E+03  0.00000000000E+00 0.  1.
          2   -1    0    0  501    0  0.00000000000E+00 -0.00000000000E+00 -0.13416326436E+03  0.13416326436E+03  0.00000000000E+00 0. -1.
          5    1    1    2  502    0 -0.22752253548E+02  0.20271851236E+02 -0.51767667255E+02  0.60216083956E+02  0.41800000000E+01 0.  1.
         -5    1    1    2    0  502  0.16365787344E+00  0.11943834345E+02  0.71237184784E+02  0.72352545627E+02  0.41800000000E+01 0.  1.
        -11    1    1    2    0    0  0.32767408909E+02 -0.39700827899E+02 -0.67393937118E+02  0.84804490346E+02  0.00000000000E+00 0. -1.
         11    1    1    2    0    0 -0.10178813235E+02  0.74851423186E+01  0.24836803509E+02  0.27865792702E+02  0.00000000000E+00 0.  1.
</event>
<event>
 6    1  0.4988969E-006  0.1011072E+03  0.7561462E-02  0.1277985E+00
          1   -1    0    0  501    0  0.00000000000E+00  0.00000000000E+00  0.31991679747E+02  0.31991679747E+02  0.00000000000E+00 0. -1.
         -1   -1    0    0    0  501 -0.00000000000E+00 -0.00000000000E+00 -0.49186869178E+03  0.49186869178E+03  0.00000000000E+00 0.  1.
          5    1    1    2  502    0 -0.43275945474E+01 -0.43997422949E+02 -0.94460182410E+02  0.10437767846E+03  0.41800000000E+01 0. -1.
         -5    1    1    2    0  502  0.55970074342E+02  0.76284433190E+02 -0.19564204152E+03  0.21735971287E+03  0.41800000000E+01 0. -1.
        -11    1    1    2    0    0 -0.14693428215E+02 -0.18586990024E+02  0.39187862327E+01  0.24015201777E+02  0.00000000000E+00 0. -1.
         11    1    1    2    0    0 -0.36949051579E+02 -0.13700020217E+02 -0.17369357433E+03  0.17810777841E+03  0.00000000000E+00 0.  1.
</event>
<event>
 6    1  0.4988969E-006  0.7588571E+02  0.7561462E-02  0.1341150E+00
         -3   -1    0    0    0  501 -0.00000000000E+00  0.00000000000E+00  0.95506071214E+02  0.95506071214E+02  0.00000000000E+00 0.  1.
          3   -1    0    0  501    0  0.00000000000E+00 -0.00000000000E+00 -0.14196405308E+03  0.14196405308E+03  0.00000000000E+00 0. -1.
          5    1    1    2  502    0  0.40376092300E+02 -0.25677500840E+02 -0.76984724018E+02  0.90739644098E+02  0.41800000000E+01 0.  1.
         -5    1    1    2    0  502 -0.16933790400E+01  0.61527997608E+01  0.44843116180E+02  0.45487382275E+02  0.41800000000E+01 0.  1.
        -11    1    1    2    0    0 -0.77817551846E+01 -0.33688980815E+02 -0.19138401599E+02  0.39519382054E+02  0.00000000000E+00 0. -1.
         11    1    1    2    0    0 -0.30900958076E+02  0.53213681895E+02  0.48220275698E+01  0.61723715869E+02  0.00000000000E+00 0.  1.
</event>
<event>
 6    1  0.4988969E-006  0.1699684E+03  0.7561462E-02  0.1177881E+00
          1   -1    0    0  501    0  0.00000000000E+00  0.00000000000E+00  0.11850534794E+03  0.11850534794E+03  0.00000000000E+00 0. -1.
         -1   -1    0    0    0  501 -0.00000000000E+00 -0.00000000000E+00 -0.40058852679E+03  0.40058852679E+03  0.00000000000E+00 0.  1.
          5    1    1    2  502    0 -0.10119991284E+03 -0.92050040624E+02 -0.25962599263E+03  0.29349235217E+03  0.41800000000E+01 0. -1.
         -5    1    1    2    0  502 -0.12775162134E+02 -0.26947831083E+02  0.90534419004E+01  0.31445628915E+02  0.41800000000E+01 0. -1.
        -11    1    1    2    0    0  0.11843979080E+03  0.10505771890E+03 -0.54040395231E+02  0.16728859095E+03  0.00000000000E+00 0.  1.
         11    1    1    2    0    0 -0.44647158296E+01  0.13940152806E+02  0.22529767115E+02  0.26867302692E+02  0.00000000000E+00 0. -1.
</event>
<event>
 6    1  0.4988969E-006  0.6248450E+02  0.7561462E-02  0.1387692E+00
          1   -1    0    0  501    0  0.00000000000E+00  0.00000000000E+00  0.12877399613E+03  0.12877399613E+03  0.00000000000E+00 0. -1.
         -1   -1    0    0    0  501 -0.00000000000E+00 -0.00000000000E+00 -0.10584049153E+03  0.10584049153E+03  0.00000000000E+00 0.  1.
          5    1    1    2  502    0 -0.32846700036E+01  0.43203105698E+02 -0.64220721261E+02  0.77582670992E+02  0.41800000000E+01 0.  1.
         -5    1    1    2    0  502  0.66307615005E+01 -0.76854096861E+01  0.51926684802E+02  0.53074339512E+02  0.41800000000E+01 0.  1.
        -11    1    1    2    0    0 -0.31211674340E+02 -0.27149956568E+02 -0.16557942600E+02  0.44558436012E+02  0.00000000000E+00 0.  1.
         11    1    1    2    0    0  0.27865582843E+02 -0.83677394442E+01  0.51785483664E+02  0.59399041144E+02  0.00000000000E+00 0. -1.
</event>
<event>
 6    1  0.4988969E-006  0.8283979E+02  0.7561462E-02  0.1321180E+00
          2   -1    0    0  501    0  0.00000000000E+00  0.00000000000E+00  0.27377547105E+03  0.27377547105E+03  0.00000000000E+00 0.  1.
         -2   -1    0    0    0  501 -0.00000000000E+00 -0.00000000000E+00 -0.64763352212E+02  0.64763352212E+02  0.00000000000E+00 0. -1.
          5    1    1    2  502    0  0.16008947483E+01  0.15910815079E+02  0.14690480916E+03  0.14783170247E+03  0.41800000000E+01 0.  1.
         -5    1    1    2    0  502  0.62086119425E+02 -0.26470795564E+02  0.20021707067E+02  0.70524679346E+02  0.41800000000E+01 0.  1.
        -11    1    1    2    0    0 -0.25178378076E+02 -0.20169995216E+02  0.59701644784E+02  0.67860635272E+02  0.00000000000E+00 0.  1.
         11    1    1    2    0    0 -0.38508636097E+02  0.30729975701E+02 -0.17616042166E+02  0.52321806182E+02  0.00000000000E+00 0. -1.
</event>
<event>
 6    1  0.4988969E-006  0.7978548E+02  0.7561462E-02  0.1329661E+00
          3   -1    0    0  501    0  0.00000000000E+00  0.00000000000E+00  0.47521903562E+03  0.47521903562E+03  0.00000000000E+00 0. -1.
         -3   -1    0    0    0  501 -0.00000000000E+00 -0.00000000000E+00 -0.27478803974E+02  0.27478803974E+02  0.00000000000E+00 0.  1.
          5    1    1    2  502    0  0.14880794303E+02  0.42810872170E+02  0.24164121515E+03  0.24589054084E+03  0.41800000000E+01 0.  1.
         -5    1    1    2    0  502  0.85688935860E+01 -0.14320263781E+02 -0.10031266795E+02  0.19914683165E+02  0.41800000000E+01 0.  1.
        -11    1    1    2    0    0  0.32526431786E+02  0.29328065232E+01  0.67131732435E+02  0.74654133298E+02  0.00000000000E+00 0.  1.
         11    1    1    2    0    0 -0.55976119675E+02 -0.31423414912E+02  0.14899855085E+03  0.16223848229E+03  0.00000000000E+00 0. -1.
</event>
<event>
 6    1  0.4988969E-006  0.1338102E+03  0.7561462E-02  0.1221909E+00
          2   -1    0    0  501    0  0.00000000000E+00  0.00000000000E+00  0.17200595317E+03  0.17200595317E+03  0.00000000000E+00 0. -1.
         -2   -1    0    0    0  501 -0.00000000000E+00 -0.00000000000E+00 -0.11620032802E+03  0.11620032802E+03  0.00000000000E+00 0.  1.
          5    1    1    2  502    0 -0.70951744964E+02 -0.39369482477E+02 -0.23684143651E+02  0.84631656751E+02  0.41800000000E+01 0. -1.
         -5    1    1    2    0  502  0.46554304010E+02 -0.42786731576E+02  0.21799962859E+02  0.67012822664E+02  0.41800000000E+01 0. -1.
        -11    1    1    2    0    0 -0.33026086313E+02  0.21130111451E+02  0.11399769824E+02  0.40830855234E+02  0.00000000000E+00 0.  1.
         11    1    1    2    0    0  0.57423527267E+02  0.61026102602E+02  0.46290036122E+02  0.95730946547E+02  0.00000000000E+00 0. -1.
</event>
<event>
 6    1  0.4988969E-006  0.2492429E+03  0.7561462E-02  0.1113784E+00
         -1   -1    0    0    0  501 -0.00000000000E+00  0.00000000000E+00  0.62878902690E+03  0.62878902690E+03  0.00000000000E+00 0.  1.
          1   -1    0    0  501    0  0.00000000000E+00 -0.00000000000E+00 -0.16726639108E+03  0.16726639108E+03  0.00000000000E+00 0. -1.
          5    1    1    2  502    0  0.84567139795E+02 -0.51176430865E+02  0.26093374224E+03  0.27906006244E+03  0.41800000000E+01 0. -1.
         -5    1    1    2    0  502 -0.10349411315E+03 -0.15016115851E+03  0.23004013548E+03  0.29359043124E+03  0.41800000000E+01 0.  1.
        -11    1    1    2    0    0  0.47762158893E+02  0.87370801711E+02 -0.35445351066E+02  0.10569415181E+03  0.00000000000E+00 0. -1.
         11    1    1    2    0    0 -0.28835185537E+02  0.11396678767E+03  0.59941091718E+01  0.11771077249E+03  0.00000000000E+00 0.  1.
</event>
<event>
 6    1  0.4988969E-006  0.2254071E+03  0.7561462E-02  0.1129915E+00
         -1   -1    0    0    0  501 -0.00000000000E+00  0.00000000000E+00  0.31781205827E+03  0.31781205827E+03  0.00000000000E+00 0.  1.
          1   -1    0    0  501    0  0.00000000000E+00 -0.00000000000E+00 -0.19405265724E+03  0.19405265724E+03  0.00000000000E+00 0. -1.
          5    1    1    2  502    0  0.54006668303E+02  0.69996655498E+02 -0.38566257254E+02  0.96545743566E+02  0.41800000000E+01 0. -1.
         -5    1    1    2    0  502 -0.30685598564E+02  0.14227858989E+03  0.39790921502E+02  0.15094897461E+03  0.41800000000E+01 0. -1.
        -11    1    1    2    0    0 -0.13951622439E+02 -0.20311162040E+03  0.13658047528E+03  0.24515954874E+03  0.00000000000E+00 0.  1.
         11    1    1    2    0    0 -0.93694473005E+01 -0.91636249926E+01 -0.14045738496E+02  0.19210448605E+02  0.00000000000E+00 0. -1.
</event>
<event>
 6    1  0.4988969E-006  0.1423399E+03  0.7561462E-02  0.1210215E+00
          1   -1    0    0  501    0  0.00000000000E+00  0.00000000000E+00  0.33556890156E+03  0.33556890156E+03  0.00000000000E+00 0. -1.
         -1   -1    0    0    0  501 -0.00000000000E+00 -0.00000000000E+00 -0.16094519686E+03  0.16094519686E+03  0.00000000000E+00 0.  1.
          5    1    1    2  502    0 -0.77013519160E+02  0.14721179419E+02  0.16744098093E+02  0.80284696411E+02  0.41800000000E+01 0.  1.
         -5    1    1    2    0  502 -0.31010236274E+02  0.49032165261E+02 -0.99460065742E+02  0.11521963835E+03  0.41800000000E+01 0.  1.
        -11    1    1    2    0    0  0.54506824469E+02 -0.75582158296E+02  0.11210794292E+03  0.14578013388E+03  0.00000000000E+00 0.  1.
         11    1    1    2    0    0  0.53516930965E+02  0.11828813616E+02  0.14523172942E+03  0.15522962979E+03  0.00000000000E+00 0. -1.
</event>
<event>
 6    1  0.4988969E-006  0.2396923E+03  0.7561462E-02  0.1119998E+00
          1   -1    0    0  501    0  0.00000000000E+00  0.00000000000E+00  0.39153000247E+03  0.39153000247E+03  0.00000000000E+00 0. -1.
         -1   -1    0    0    0  501 -0.00000000000E+00 -0.00000000000E+00 -0.20877672077E+03  0.20877672077E+03  0.00000000000E+00 0.  1.
          5    1    1    2  502    0 -0.26956467720E+01  0.38420615798E+01  0.26519669059E+02  0.27254232620E+02  0.41800000000E+01 0. -1.
         -5    1    1    2    0  502  0.21976043573E+03  0.74968483180E+02 -0.64738704926E+02  0.24108814757E+03  0.41800000000E+01 0.  1.
        -11    1    1    2    0    0 -0.11782717147E+03 -0.63659570179E+01  0.69574022692E+02  0.13698289083E+03  0.00000000000E+00 0.  1.
         11    1    1    2    0    0 -0.99237617488E+02 -0.72444587742E+02  0.15139829487E+03  0.19498145222E+03  0.00000000000E+00 0. -1.
</event>
<event>
 6    1  0.4988969E-006  0.1336083E+03  0.7561462E-02  0.1222198E+00
          1   -1    0    0  501    0  0.00000000000E+00  0.00000000000E+00  0.72860923974E+02  0.72860923974E+02  0.00000000000E+00 0. -1.
         -1   -1    0    0    0  501 -0.00000000000E+00 -0.00000000000E+00 -0.28983088465E+03  0.28983088465E+03  0.00000000000E+00 0.  1.
          5    1    1    2  502    0  0.10981732523E+02 -0.29206899858E+02 -0.37045659530E+02  0.48615786927E+02  0.41800000000E+01 0.  1.
         -5    1    1    2    0  502 -0.52589719130E+02  0.11187125017E+03 -0.11221621603E+03  0.16700540923E+03  0.41800000000E+01 0.  1.
        -11    1    1    2    0    0 -0.11353277930E+02 -0.46626152229E+02 -0.67734134654E+02  0.83010890785E+02  0.00000000000E+00 0.  1.
         11    1    1    2    0    0  0.52961264538E+02 -0.36038198086E+02  0.26049539160E-01  0.64059721677E+02  0.00000000000E+00 0. -1.
</event>
<event>
 6    1  0.4988969E-006  0.9207132E+02  0.7561462E-02  0.1297912E+00
         -1   -1    0    0    0  501 -0.00000000000E+00  0.00000000000E+00  0.42488301738E+02  0.42488301738E+02  0.00000000000E+00 0.  1.
          1   -1    0    0  501    0  0.00000000000E+00 -0.00000000000E+00 -0.32431588521E+03  0.32431588521E+03  0.00000000000E+00 0. -1.
          5    1    1    2  502    0  0.13627159593E+02  0.62275400290E+02 -0.11779938335E+03  0.13400780603E+03  0.41800000000E+01 0. -1.
         -5    1    1    2    0  502 -0.15331117644E+02 -0.31664742965E+02  0.67324091465E+01  0.36062402141E+02  0.41800000000E+01 0. -1.
        -11    1    1    2    0    0 -0.38588207932E+02 -0.18225402086E+02 -0.36977725951E+02  0.56467400233E+02  0.00000000000E+00 0.  1.
         11    1    1    2    0    0  0.40292165983E+02 -0.12385255239E+02 -0.13378288332E+03  0.14026657854E+03  0.00000000000E+00 0. -1.
</event>
<event>
 6    1  0.4988969E-006  0.1303480E+03  0.7561462E-02  0.1226940E+00
         -2   -1    0    0    0  501 -0.00000000000E+00  0.00000000000E+00  0.18127324099E+02  0.18127324099E+02  0.00000000000E+00 0. -1.
          2   -1    0    0  501    0  0.00000000000E+00 -0.00000000000E+00 -0.98699885286E+03  0.98699885286E+03  0.00000000000E+00 0.  1.
          5    1    1    2  502    0 -0.79971532391E+01  0.78018481479E+02 -0.20661259068E+03  0.22103636113E+03  0.41800000000E+01 0.  1.
         -5    1    1    2    0  502  0.59479083045E+02 -0.20430453228E+02 -0.29605234752E+03  0.30268734630E+03  0.41800000000E+01 0.  1.
        -11    1    1    2    0    0  0.24427086475E+02 -0.29235902399E+02 -0.17733192323E+03  0.18137814516E+03  0.00000000000E+00 0.  1.
         11    1    1    2    0    0 -0.75909016281E+02 -0.28352125852E+02 -0.28887466734E+03  0.30002432438E+03  0.00000000000E+00 0. -1.
</event>
<event>
 6    1  0.4988969E-006  0.1033218E+03  0.7561462E-02  0.1273462E+00
         -1   -1    0    0    0  501 -0.00000000000E+00  0.00000000000E+00  0.40250971397E+03  0.40250971397E+03  0.00000000000E+00 0.  1.
          1   -1    0    0  501    0  0.00000000000E+00 -0.00000000000E+00 -0.40380011844E+02  0.40380011844E+02  0.00000000000E+00 0. -1.
          5    1    1    2  502    0  0.51196486482E+02 -0.30655747540E+02  0.54371850115E+02  0.80837030934E+02  0.41800000000E+01 0. -1.
         -5    1    1    2    0  502 -0.66025338946E+01  0.42536153288E+02  0.22006161951E+03  0.22427105603E+03  0.41800000000E+01 0. -1.
        -11    1    1    2    0    0 -0.60004823087E+02 -0.39576825034E+02  0.45743291379E+02  0.85201834368E+02  0.00000000000E+00 0. -1.
         11    1    1    2    0    0  0.15410870500E+02  0.27696419286E+02  0.41952941124E+02  0.52579804486E+02  0.00000000000E+00 0.  1.
</event>
<event>
 6    1  0.4988969E-006  0.1562937E+03  0.7561462E-02  0.1192946E+00
         -1   -1    0    0    0  501 -0.00000000000E+00  0.00000000000E+00  0.74764746650E+02  0.74764746650E+02  0.00000000000E+00 0.  1.
          1   -1    0    0  501    0  0.00000000000E+00 -0.00000000000E+00 -0.35550246255E+03  0.35550246255E+03  0.00000000000E+00 0. -1.
          5    1    1    2  502    0  0.14875078724E+01 -0.36026500298E+02 -0.67711428729E+01  0.36924817930E+02  0.41800000000E+01 0.  1.
         -5    1    1    2    0  502  0.11761603429E+03  0.57719479554E+02 -0.12817562526E+03  0.18333448435E+03  0.41800000000E+01 0.  1.
        -11    1    1    2    0    0 -0.46792573390E+02 -0.49146362632E+02 -0.39386655996E+02  0.78461573747E+02  0.00000000000E+00 0.  1.
         11    1    1    2    0    0 -0.72310968770E+02  0.27453383375E+02 -0.10640429177E+03  0.13154633317E+03  0.00000000000E+00 0. -1.
</event>
<event>
 6    1  0.4988969E-006  0.8334846E+02  0.7561462E-02  0.1319809E+00
          2   -1    0    0  501    0  0.00000000000E+00  0.00000000000E+00  0.11455130445E+03  0.11455130445E+03  0.00000000000E+00 0. -1.
         -2   -1    0    0    0  501 -0.00000000000E+00 -0.00000000000E+00 -0.14730692410E+03  0.14730692410E+03  0.00000000000E+00 0.  1.
          5    1    1    2  502    0  0.22239252653E+02  0.17600904012E+02  0.19537722465E+02  0.34692523399E+02  0.41800000000E+01 0.  1.
         -5    1    1    2    0  502 -0.46835190061E+02 -0.39548762400E+02 -0.10088535006E+03  0.11812267307E+03  0.41800000000E+01 0.  1.
        -11    1    1    2    0    0  0.56313626396E+01  0.45782857940E+02 -0.60121337493E+01  0.46518040356E+02  0.00000000000E+00 0. -1.
         11    1    1    2    0    0  0.18964574768E+02 -0.23834999552E+02  0.54604141699E+02  0.62524991727E+02  0.00000000000E+00 0.  1.
</event>
<event>
 6    1  0.4988969E-006  0.7777484E+02  0.7561462E-02  0.1335487E+00
          1   -1    0    0  501    0  0.00000000000E+00  0.00000000000E+00  0.40274184803E+03  0.40274184803E+03  0.00000000000E+00 0. -1.
         -1   -1    0    0    0  501 -0.00000000000E+00 -0.00000000000E+00 -0.31843013788E+02  0.31843013788E+02  0.00000000000E+00 0.  1.
          5    1    1    2  502    0 -0.15811199223E+02  0.42677515715E+02  0.20273577297E+03  0.20782355596E+03  0.41800000000E+01 0.  1.
         -5    1    1    2    0  502  0.96294897570E+01 -0.10344901204E+02 -0.14426891692E+02  0.20624055319E+02  0.41800000000E+01 0.  1.
        -11    1    1    2    0    0  0.47522800799E+02 -0.22666400976E+02  0.89833678254E+02  0.10412623146E+03  0.00000000000E+00 0.  1.
         11    1    1    2    0    0 -0.41341091333E+02 -0.96662135351E+01  0.92756274701E+02  0.10201101908E+03  0.00000000000E+00 0. -1.
</event>
<event>
 6    1  0.4988969E-006  0.1266553E+03  0.7561462E-02  0.1232505E+00
          2   -1    0    0  501    0  0.00000000000E+00  0.00000000000E+00  0.43707137123E+03  0.43707137123E+03  0.00000000000E+00 0. -1.
         -2   -1    0    0    0  501 -0.00000000000E+00 -0.00000000000E+00 -0.54307037499E+02  0.54307037499E+02  0.00000000000E+00 0.  1.
          5    1    1    2  502    0 -0.47301055934E+02 -0.15453187103E+02 -0.24790339348E+01  0.49998088898E+02  0.41800000000E+01 0. -1.
         -5    1    1    2    0  502 -0.13215362462E+02  0.82695619841E+02  0.10919397404E+03  0.13767355488E+03  0.41800000000E+01 0. -1.
        -11    1    1    2    0    0  0.76734392667E+01 -0.66229129198E+02  0.20208641961E+03  0.21280061141E+03  0.00000000000E+00 0. -1.
         11    1    1    2    0    0  0.52842979130E+02 -0.10133035396E+01  0.73962974005E+02  0.90906153538E+02  0.00000000000E+00 0.  1.
</event>
<event>
 6    1  0.4988969E-006  0.1342225E+03  0.7561462E-02  0.1221321E+00
          2   -1    0    0  501    0  0.00000000000E+00  0.00000000000E+00  0.47232098940E+03  0.47232098940E+03  0.00000000000E+00 0. -1.
         -2   -1    0    0    0  501 -0.00000000000E+00 -0.00000000000E+00 -0.67709817528E+02  0.67709817528E+02  0.00000000000E+00 0.  1.
          5    1    1    2  502    0 -0.14755767008E+02  0.38854528455E+02  0.10849006275E+03  0.11625391673E+03  0.41800000000E+01 0. -1.
         -5    1    1    2    0  502  0.14489771427E+01  0.79129550558E+02 -0.13880003685E+02  0.80459382352E+02  0.41800000000E+01 0. -1.
        -11    1    1    2    0    0  0.37799829867E+02 -0.13554238187E+02  0.78553335814E+02  0.88222282210E+02  0.00000000000E+00 0.  1.
         11    1    1    2    0    0 -0.24493040001E+02 -0.10442984083E+03  0.23144777700E+03  0.25509522563E+03  0.00000000000E+00 0. -1.
</event>
<event>
 6    1  0.4988969E-006  0.9490719E+02  0.7561462E-02  0.1291385E+00
         -2   -1    0    0    0  501 -0.00000000000E+00  0.00000000000E+00  0.27540545199E+03  0.27540545199E+03  0.00000000000E+00 0. -1.
          2   -1    0    0  501    0  0.00000000000E+00 -0.00000000000E+00 -0.45013770671E+02  0.45013770671E+02  0.00000000000E+00 0.  1.
          5    1    1    2  502    0  0.18038333209E+02  0.65055717111E+02  0.10048365666E+03  0.12112830160E+03  0.41800000000E+01 0.  1.
         -5    1    1    2    0  502  0.10262137603E+02 -0.53769825419E+02  0.31692479928E+02  0.63390782277E+02  0.41800000000E+01 0.  1.
        -11    1    1    2    0    0  0.17853280039E+02 -0.11286083117E+02 -0.59702890490E+01  0.21949023477E+02  0.00000000000E+00 0.  1.
         11    1    1    2    0    0 -0.46153750852E+02  0.19142390713E-03  0.10418583378E+03  0.11395111530E+03  0.00000000000E+00 0. -1.
</event>
<event>
 6    1  0.4988969E-006  0.1077142E+03  0.7561462E-02  0.1264862E+00
         -1   -1    0    0    0  501 -0.00000000000E+00  0.00000000000E+00  0.79213543186E+02  0.79213543186E+02  0.00000000000E+00 0.  1.
          1   -1    0    0  501    0  0.00000000000E+00 -0.00000000000E+00 -0.22571442161E+03  0.22571442161E+03  0.00000000000E+00 0. -1.
          5    1    1    2  502    0 -0.27184199399E+02 -0.21474429261E+02 -0.96220248106E+02  0.10235204128E+03  0.41800000000E+01 0. -1.
         -5    1    1    2    0  502  0.13123025926E+02 -0.59826714404E+02  0.14986292656E+02  0.63194231805E+02  0.41800000000E+01 0.  1.
        -11    1    1    2    0    0 -0.20053753961E+02  0.82603515210E+02 -0.61743216945E+02  0.10506054736E+03  0.00000000000E+00 0. -1.
         11    1    1    2    0    0  0.34114927435E+02 -0.13023715457E+01 -0.35237060333E+01  0.34321144353E+02  0.00000000000E+00 0.  1.
</event>
<event>
 6    1  0.4988969E-006  0.1156505E+03  0.7561462E-02  0.1250450E+00
         -3   -1    0    0    0  501 -0.00000000000E+00  0.00000000000E+00  0.33947812034E+03  0.33947812034E+03  0.00000000000E+00 0. -1.
          3   -1    0    0  501    0  0.00000000000E+00 -0.00000000000E+00 -0.46634363046E+02  0.46634363046E+02  0.00000000000E+00 0.  1.
          5    1    1    2  502    0  0.29598602872E+02 -0.49646187876E+02  0.61249002538E+02  0.84319238461E+02  0.41800000000E+01 0. -1.
         -5    1    1    2    0  502 -0.69569618487E+02  0.14387937884E+02  0.16425709554E+03  0.17901064328E+03  0.41800000000E+01 0. -1.
        -11    1    1    2    0    0 -0.27665897063E+02  0.51104493718E+01  0.24011981994E+02  0.36987752465E+02  0.00000000000E+00 0. -1.
         11    1    1    2    0    0  0.67636912678E+02  0.30147800620E+02  0.43325677221E+02  0.85794849178E+02  0.00000000000E+00 0.  1.
</event>
<event>
 6    1  0.4988969E-006  0.1387124E+03  0.7561462E-02  0.1215072E+00
          2   -1    0    0  501    0  0.00000000000E+00  0.00000000000E+00  0.71149818198E+03  0.71149818198E+03  0.00000000000E+00 0. -1.
         -2   -1    0    0    0  501 -0.00000000000E+00 -0.00000000000E+00 -0.30462267243E+02  0.30462267243E+02  0.00000000000E+00 0.  1.
          5    1    1    2  502    0 -0.33731938288E+02  0.15871078767E+02  0.12000086642E+03  0.12572754330E+03  0.41800000000E+01 0.  1.
         -5    1    1    2    0  502  0.26765792763E+02 -0.11111174609E+03  0.18540127422E+03  0.21783785866E+03  0.41800000000E+01 0.  1.
        -11    1    1    2    0    0  0.44059595272E+02  0.43805438683E+02  0.25075127551E+03  0.25833382776E+03  0.00000000000E+00 0. -1.
         11    1    1    2    0    0 -0.37093449747E+02  0.51435228636E+02  0.12488249858E+03  0.14006121951E+03  0.00000000000E+00 0.  1.
</event>
<event>
 6    1  0.4988969E-006  0.8720013E+02  0.7561462E-02  0.1309777E+00
          1   -1    0    0  501    0  0.00000000000E+00  0.00000000000E+00  0.12182976434E+03  0.12182976434E+03  0.00000000000E+00 0. -1.
         -1   -1    0    0    0  501 -0.00000000000E+00 -0.00000000000E+00 -0.95547168894E+02  0.95547168894E+02  0.00000000000E+00 0.  1.
          5    1    1    2  502    0  0.45498721800E+02  0.21333254855E+02  0.35293757364E+02  0.61549680398E+02  0.41800000000E+01 0. -1.
         -5    1    1    2    0  502 -0.56675723060E+02 -0.17122721329E+02 -0.25143946339E+02  0.64459410544E+02  0.41800000000E+01 0. -1.
        -11    1    1    2    0    0 -0.53242397395E+01 -0.31925477531E+02 -0.23697980755E+02  0.40114560153E+02  0.00000000000E+00 0.  1.
         11    1    1    2    0    0  0.16501241000E+02  0.27714944006E+02  0.39830765177E+02  0.51253282142E+02  0.00000000000E+00 0. -1.
</event>
<event>
 6    1  0.4988969E-006  0.1238330E+03  0.7561462E-02  0.1236904E+00
         -1   -1    0    0    0  501 -0.00000000000E+00  0.00000000000E+00  0.46661973193E+02  0.46661973193E+02  0.00000000000E+00 0.  1.
          1   -1    0    0  501    0  0.00000000000E+00 -0.00000000000E+00 -0.53658639670E+03  0.53658639670E+03  0.00000000000E+00 0. -1.
          5    1    1    2  502    0 -0.44261295637E+02 -0.52841488141E+02 -0.24116438828E+03  0.25085657204E+03  0.41800000000E+01 0. -1.
         -5    1    1    2    0  502 -0.35994275708E+02 -0.24542283174E+02  0.23280788189E+01  0.43826976831E+02  0.41800000000E+01 0.  1.
        -11    1    1    2    0    0 -0.14320538565E+02  0.18654593285E+02 -0.88099284125E+02  0.91184184697E+02  0.00000000000E+00 0. -1.
         11    1    1    2    0    0  0.94576109910E+02  0.58729178031E+02 -0.16298882993E+03  0.19738063633E+03  0.00000000000E+00 0.  1.
</event>
<event>
 6    1  0.4988969E-006  0.7218571E+02  0.7561462E-02  0.1352814E+00
         -2   -1    0    0    0  501 -0.00000000000E+00  0.00000000000E+00  0.65514939546E+02  0.65514939546E+02  0.00000000000E+00 0.  1.
          2   -1    0    0  501    0  0.00000000000E+00 -0.00000000000E+00 -0.22780946437E+03  0.22780946437E+03  0.00000000000E+00 0. -1.
          5    1    1    2  502    0 -0.26473842247E+02 -0.99818045138E+01 -0.50097604296E+02  0.57686593770E+02  0.41800000000E+01 0. -1.
         -5    1    1    2    0  502  0.16418067171E+02  0.60398495136E+02  0.38903557770E+02  0.73813889963E+02  0.41800000000E+01 0.  1.
        -11    1    1    2    0    0  0.96146801641E+01 -0.16316844575E+02 -0.88832041378E+02  0.90828481585E+02  0.00000000000E+00 0. -1.
         11    1    1    2    0    0  0.44109491120E+00 -0.34099846048E+02 -0.62268436916E+02  0.70995438594E+02  0.00000000000E+00 0.  1.
</event>
<event>
 6    1  0.6589816E-006  0.2751635E+03  0.7561462E-02  0.1098360E+00
         -1   -1    0    0    0  501 -0.00000000000E+00  0.00000000000E+00  0.99937403248E+02  0.99937403248E+02  0.00000000000E+00 0.  1.
          1   -1    0    0  501    0  0.00000000000E+00 -0.00000000000E+00 -0.83169320063E+03  0.83169320063E+03  0.00000000000E+00 0. -1.
          5    1    1    2  502    0  0.11116681081E+03  0.21400308170E+03 -0.37087054736E+03  0.44240006114E+03  0.41800000000E+01 0. -1.
         -5    1    1    2    0  502  0.34963465617E+02  0.95020054230E+01 -0.73745328783E+01  0.37210054692E+02  0.41800000000E+01 0. -1.
        -11    1    1    2    0    0 -0.61017735293E+02 -0.14315379185E+03 -0.14394233551E+03  0.21198011250E+03  0.00000000000E+00 0. -1.
         11    1    1    2    0    0 -0.85112541135E+02 -0.80351295269E+02 -0.20956838164E+03  0.24004037555E+03  0.00000000000E+00 0.  1.
</event>
<event>
 6    1  0.4988969E-006  0.9140069E+02  0.7561462E-02  0.1299495E+00
         -1   -1    0    0    0  501 -0.00000000000E+00  0.00000000000E+00  0.14022829144E+03  0.14022829144E+03  0.00000000000E+00 0.  1.
          1   -1    0    0  501    0  0.00000000000E+00 -0.00000000000E+00 -0.11513719528E+03  0.11513719528E+03  0.00000000000E+00 0. -1.
          5    1    1    2  502    0  0.22029154071E+02 -0.66165315524E+02  0.38546461224E+02  0.79789940972E+02  0.41800000000E+01 0. -1.
         -5    1    1    2    0  502 -0.54743864928E+02  0.24931388090E+02 -0.33803182016E+01  0.60393408668E+02  0.41800000000E+01 0. -1.
        -11    1    1    2    0    0  0.14256898590E+02  0.18599271593E+02  0.46186330142E+02  0.51791593460E+02  0.00000000000E+00 0.  1.
         11    1    1    2    0    0  0.18457812268E+02  0.22634655841E+02 -0.56261376997E+02  0.63390543619E+02  0.00000000000E+00 0. -1.
</event>
<event>
 6    1  0.4988969E-006  0.8706892E+02  0.7561462E-02  0.1310109E+00
         -3   -1    0    0    0  501 -0.00000000000E+00  0.00000000000E+00  0.28250748819E+03  0.28250748819E+03  0.00000000000E+00 0.  1.
          3   -1    0    0  501    0  0.00000000000E+00 -0.00000000000E+00 -0.55022451666E+02  0.55022451666E+02  0.00000000000E+00 0. -1.
          5    1    1    2  502    0  0.25145852555E+02 -0.61198250307E+02  0.33126040935E+01  0.66377597782E+02  0.41800000000E+01 0.  1.
         -5    1    1    2    0  502 -0.18891133168E+02 -0.45962742791E+01  0.11896955475E+03  0.12062018076E+03  0.41800000000E+01 0.  1.
        -11    1    1    2    0    0 -0.32295470042E+02  0.37973867496E+02  0.14138278633E+02  0.51816048871E+02  0.00000000000E+00 0. -1.
         11    1    1    2    0    0  0.26040750655E+02  0.27820657090E+02  0.91064599042E+02  0.98716112435E+02  0.00000000000E+00 0.  1.
</event>
<event>
 6    1  0.4988969E-006  0.1575374E+03  0.7561462E-02  0.1191505E+00
         -1   -1    0    0    0  501 -0.00000000000E+00  0.00000000000E+00  0.92117968772E+02  0.92117968772E+02  0.00000000000E+00 0.  1.
          1   -1    0    0  501    0  0.00000000000E+00 -0.00000000000E+00 -0.30136975112E+03  0.30136975112E+03  0.00000000000E+00 0. -1.
          5    1    1    2  502    0 -0.63982779785E+02 -0.60580206215E+02 -0.59505382557E+01  0.88411757135E+02  0.41800000000E+01 0. -1.
         -5    1    1    2    0  502  0.40520688175E+02 -0.68594402734E+02 -0.77450063648E+02  0.11118949148E+03  0.41800000000E+01 0. -1.
        -11    1    1    2    0    0  0.33948545203E+02  0.24449454830E+02 -0.42429584888E+02  0.59586485352E+02  0.00000000000E+00 0.  1.
         11    1    1    2    0    0 -0.10486453593E+02  0.10472515412E+03 -0.83421595556E+02  0.13429998592E+03  0.00000000000E+00 0. -1.
</event>
<event>
 6    1  0.4988969E-006  0.7532105E+02  0.7561462E-02  0.1342880E+00
          2   -1    0    0  501    0  0.00000000000E+00  0.00000000000E+00  0.10494976338E+02  0.10494976338E+02  0.00000000000E+00 0. -1.
         -2   -1    0    0    0  501 -0.00000000000E+00 -0.00000000000E+00 -0.13947122327E+04  0.13947122327E+04  0.00000000000E+00 0.  1.
          5    1    1    2  502    0  0.40760538587E+02  0.14148987794E+02 -0.11276962770E+03  0.12081422389E+03  0.41800000000E+01 0. -1.
         -5    1    1    2    0  502  0.48373122032E+01 -0.83666840183E+01 -0.81717741772E+03  0.81724525414E+03  0.41800000000E+01 0.  1.
        -11    1    1    2    0    0 -0.70949864432E+02 -0.95383616045E+00 -0.40837916231E+03  0.41449768791E+03  0.00000000000E+00 0.  1.
         11    1    1    2    0    0  0.25352013642E+02 -0.48284676157E+01 -0.45891048678E+02  0.52650043153E+02  0.00000000000E+00 0. -1.
</event>
<event>
 6    1  0.4988969E-006  0.1582252E+03  0.7561462E-02  0.1190715E+00
          1   -1    0    0  501    0  0.00000000000E+00  0.00000000000E+00  0.19786305434E+03  0.19786305434E+03  0.00000000000E+00 0. -1.
         -1   -1    0    0    0  501 -0.00000000000E+00 -0.00000000000E+00 -0.24845254733E+03  0.24845254733E+03  0.00000000000E+00 0.  1.
          5    1    1    2  502    0  0.36625157307E+02  0.89868958566E+01 -0.90947320998E+02  0.98544680433E+02  0.41800000000E+01 0.  1.
         -5    1    1    2    0  502 -0.15916891184E+02  0.13045440264E+03 -0.68163218316E+02  0.14810602731E+03  0.41800000000E+01 0.  1.
        -11    1    1    2    0    0 -0.28987690629E+02 -0.54982359433E+02  0.32376336314E+00  0.62156664000E+02  0.00000000000E+00 0.  1.
         11    1    1    2    0    0  0.82794245058E+01 -0.84458939063E+02  0.10819728296E+03  0.13750822993E+03  0.00000000000E+00 0. -1.
</event>
<event>
 6    1  0.4988969E-006  0.1133321E+03  0.7561462E-02  0.1254521E+00
          2   -1    0    0  501    0  0.00000000000E+00  0.00000000000E+00  0.13660389030E+03  0.13660389030E+03  0.00000000000E+00 0. -1.
         -2   -1    0    0    0  501 -0.00000000000E+00 -0.00000000000E+00 -0.11311075310E+03  0.11311075310E+03  0.00000000000E+00 0.  1.
          5    1    1    2  502    0  0.66138111753E+02  0.53198886631E+02 -0.40457838019E+02  0.94120563227E+02  0.41800000000E+01 0. -1.
         -5    1    1    2    0  502 -0.33139081173E+02 -0.15927704445E+02  0.19994630404E+02  0.42061242432E+02  0.41800000000E+01 0. -1.
        -11    1    1    2    0    0 -0.58458195402E+02  0.12876590792E+01  0.24702068788E+02  0.63476065394E+02  0.00000000000E+00 0. -1.
         11    1    1    2    0    0  0.25459164822E+02 -0.38558841265E+02  0.19254276025E+02  0.50056772353E+02  0.00000000000E+00 0.  1.
</event>
<event>
 6    1  0.4988969E-006  0.1031903E+03  0.7561462E-02  0.1273727E+00
          2   -1    0    0  501    0  0.00000000000E+00  0.00000000000E+00  0.22099661692E+03  0.22099661692E+03  0.00000000000E+00 0. -1.
         -2   -1    0    0    0  501 -0.00000000000E+00 -0.00000000000E+00 -0.54719299837E+02  0.54719299837E+02  0.00000000000E+00 0.  1.
          5    1    1    2  502    0 -0.61377002450E+02  0.32115367192E+02  0.58440741267E+02  0.90726654736E+02  0.41800000000E+01 0. -1.
         -5    1    1    2    0  502  0.44798516441E+02 -0.81259445511E+01  0.50361001100E+01  0.45997529874E+02  0.41800000000E+01 0.  1.
        -11    1    1    2    0    0 -0.34454654549E+02 -0.20540259953E+02  0.60638025290E+02  0.72704852728E+02  0.00000000000E+00 0.  1.
         11    1    1    2    0    0  0.51033140558E+02 -0.34491626876E+01  0.42162450420E+02  0.66286879425E+02  0.00000000000E+00 0. -1.
</event>
<event>
 6    1  0.4988969E-006  0.1113169E+03  0.7561462E-02  0.1258150E+00
          1   -1    0    0  501    0  0.00000000000E+00  0.00000000000E+00  0.24560367452E+03  0.24560367452E+03  0.00000000000E+00 0.  1.
         -1   -1    0    0    0  501 -0.00000000000E+00 -0.00000000000E+00 -0.52548542489E+02  0.52548542489E+02  0.00000000000E+00 0. -1.
          5    1    1    2  502    0 -0.11827311858E+02 -0.69115430114E+02  0.78827119374E+02  0.10558416138E+03  0.41800000000E+01 0. -1.
         -5    1    1    2    0  502  0.28281773104E+02  0.47253927378E+02  0.32465593534E+02  0.64064650987E+02  0.41800000000E+01 0. -1.
        -11    1    1    2    0    0  0.36292965260E+02  0.25393479309E+02  0.24699554698E+02  0.50715639808E+02  0.00000000000E+00 0.  1.
         11    1    1    2    0    0 -0.52747426506E+02 -0.35319765733E+01  0.57062864426E+02  0.77787764835E+02  0.00000000000E+00 0. -1.
</event>
<event>
 6    1  0.4988969E-006  0.1769959E+03  0.7561462E-02  0.1170742E+00
          3   -1    0    0  501    0  0.00000000000E+00  0.00000000000E+00  0.65479536291E+02  0.65479536291E+02  0.00000000000E+00 0. -1.
         -3   -1    0    0    0  501 -0.00000000000E+00 -0.00000000000E+00 -0.62286801715E+03  0.62286801715E+03  0.00000000000E+00 0.  1.
          5    1    1    2  502    0 -0.42992490325E+01 -0.27229660038E+02 -0.19435678681E+03  0.19634655818E+03  0.41800000000E+01 0.  1.
         -5    1    1    2    0  502  0.84171864469E+02 -0.11711980395E+03 -0.17240702496E+03  0.22481905147E+03  0.41800000000E+01 0.  1.
        -11    1    1    2    0    0 -0.83720228031E+02  0.75112204599E+02 -0.14761336020E+03  0.18558185248E+03  0.00000000000E+00 0.  1.
         11    1    1    2    0    0  0.38476125950E+01  0.69237259389E+02 -0.43011308880E+02  0.81600091311E+02  0.00000000000E+00 0. -1.
</event>
<event>
 6    1  0.4988969E-006  0.2073019E+03  0.7561462E-02  0.1143721E+00
         -1   -1    0    0    0  501 -0.00000000000E+00  0.00000000000E+00  0.35191067775E+03  0.35191067775E+03  0.00000000000E+00 0. -1.
          1   -1    0    0  501    0  0.00000000000E+00 -0.00000000000E+00 -0.14261732253E+03  0.14261732253E+03  0.00000000000E+00 0.  1.
          5    1    1    2  502    0  0.23323884847E+02  0.20155536279E+03  0.15801294141E+03  0.25720445161E+03  0.41800000000E+01 0.  1.
         -5    1    1    2    0  502 -0.15584051457E+02 -0.14649578079E+02  0.12399181238E+02  0.25073589553E+02  0.41800000000E+01 0.  1.
        -11    1    1    2    0    0 -0.20566816841E+02 -0.11301332647E+03 -0.20381767692E+02  0.11666371488E+03  0.00000000000E+00 0.  1.
         11    1    1    2    0    0  0.12826983450E+02 -0.73892458234E+02  0.59263000255E+02  0.95586244237E+02  0.00000000000E+00 0. -1.
</event>
<event>
 6    1  0.4988969E-006  0.1169412E+03  0.7561462E-02  0.1248230E+00
          1   -1    0    0  501    0  0.00000000000E+00  0.00000000000E+00  0.57765685073E+03  0.57765685073E+03  0.00000000000E+00 0. -1.
         -1   -1    0    0    0  501 -0.00000000000E+00 -0.00000000000E+00 -0.98626537350E+02  0.98626537350E+02  0.00000000000E+00 0.  1.
          5    1    1    2  502    0 -0.35961178717E+02 -0.10943671127E+02  0.34037228794E+02  0.50881977717E+02  0.41800000000E+01 0. -1.
         -5    1    1    2    0  502  0.59092445750E+02 -0.62025206574E+02 -0.61313665403E+02  0.10543188019E+03  0.41800000000E+01 0.  1.
        -11    1    1    2    0    0  0.18848464390E+02 -0.68918611378E+01  0.37227092003E+02  0.42292064726E+02  0.00000000000E+00 0.  1.
         11    1    1    2    0    0 -0.41979731422E+02  0.79860738839E+02  0.46907965799E+03  0.47767746545E+03  0.00000000000E+00 0. -1.
</event>
<event>
 6    1  0.4988969E-006  0.9533012E+02  0.7561462E-02  0.1290434E+00
          1   -1    0    0  501    0  0.00000000000E+00  0.00000000000E+00  0.15653071877E+03  0.15653071877E+03  0.00000000000E+00 0. -1.
         -1   -1    0    0    0  501 -0.00000000000E+00 -0.00000000000E+00 -0.96641880223E+02  0.96641880223E+02  0.00000000000E+00 0.  1.
          5    1    1    2  502    0 -0.10012882673E+02 -0.19978889946E+02  0.45862213007E+02  0.51188170945E+02  0.41800000000E+01 0.  1.
         -5    1    1    2    0  502  0.27074624300E+02  0.67367627228E+02 -0.41500142279E+02  0.83732709788E+02  0.41800000000E+01 0.  1.
        -11    1    1    2    0    0 -0.17265993369E+02  0.20787980586E+02  0.40092649521E+02  0.48349510954E+02  0.00000000000E+00 0. -1.
         11    1    1    2    0    0  0.20425174189E+00 -0.68176717869E+02  0.15434118295E+02  0.69902207302E+02  0.00000000000E+00 0.  1.
</event>
<event>
 6    1  0.4988969E-006  0.7365112E+02  0.7561462E-02  0.1348100E+00
          2   -1    0    0  501    0  0.00000000000E+00  0.00000000000E+00  0.71501366316E+02  0.71501366316E+02  0.00000000000E+00 0.  1.
         -2   -1    0    0    0  501 -0.00000000000E+00 -0.00000000000E+00 -0.26135261318E+03  0.26135261318E+03  0.00000000000E+00 0. -1.
          5    1    1    2  502    0  0.29233143179E+02  0.19470231160E+02  0.46703126738E+01  0.35678435812E+02  0.41800000000E+01 0. -1.
         -5    1    1    2    0  502  0.20259001051E+02 -0.32954247556E+02 -0.18870094689E+03  0.19267052010E+03  0.41800000000E+01 0. -1.
        -11    1    1    2    0    0 -0.80402710494E+01 -0.18822426020E+02  0.33231917214E+02  0.39029347952E+02  0.00000000000E+00 0.  1.
         11    1    1    2    0    0 -0.41451873180E+02  0.32306442416E+02 -0.39052529857E+02  0.65475675636E+02  0.00000000000E+00 0. -1.
</event>
<event>
 6    1  0.5475857E-006  0.1791076E+03  0.7561462E-02  0.1168670E+00
          1   -1    0    0  501    0  0.00000000000E+00  0.00000000000E+00  0.38016599604E+03  0.38016599604E+03  0.00000000000E+00 0. -1.
         -1   -1    0    0    0  501 -0.00000000000E+00 -0.00000000000E+00 -0.99683501416E+02  0.99683501416E+02  0.00000000000E+00 0.  1.
          5    1    1    2  502    0 -0.12094464107E+03 -0.78084649652E+02  0.54791827985E+02  0.15409229549E+03  0.41800000000E+01 0. -1.
         -5    1    1    2    0  502 -0.19520988942E+02  0.41557645229E+02  0.37519307621E+01  0.46256418698E+02  0.41800000000E+01 0. -1.
        -11    1    1    2    0    0  0.19822433451E+02  0.42920521758E+02  0.45135924607E+02  0.65363229312E+02  0.00000000000E+00 0.  1.
         11    1    1    2    0    0  0.12064319656E+03 -0.63935173352E+01  0.17680281127E+03  0.21413755396E+03  0.00000000000E+00 0. -1.
</event>
<event>
 6    1  0.4988969E-006  0.9737450E+02  0.7561462E-02  0.1285916E+00
          1   -1    0    0  501    0  0.00000000000E+00  0.00000000000E+00  0.53558272322E+02  0.53558272322E+02  0.00000000000E+00 0. -1.
         -1   -1    0    0    0  501 -0.00000000000E+00 -0.00000000000E+00 -0.33821243743E+03  0.33821243743E+03  0.00000000000E+00 0.  1.
          5    1    1    2  502    0 -0.23612666646E+02 -0.83383729303E+02 -0.17764987049E+03  0.19770521800E+03  0.41800000000E+01 0.  1.
         -5    1    1    2    0  502 -0.21394577234E+02  0.19194214196E+02  0.49740855646E+01  0.29467943953E+02  0.41800000000E+01 0.  1.
        -11    1    1    2    0    0  0.18287331153E+02  0.34141021460E+02  0.66880812033E+01  0.39303514566E+02  0.00000000000E+00 0. -1.
         11    1    1    2    0    0  0.26719912727E+02  0.30048493647E+02 -0.11866646138E+03  0.12529403323E+03  0.00000000000E+00 0.  1.
</event>
<event>
 6    1  0.4988969E-006  0.6398325E+02  0.7561462E-02  0.1381837E+00
         -3   -1    0    0    0  501 -0.00000000000E+00  0.00000000000E+00  0.63401560626E+02  0.63401560626E+02  0.00000000000E+00 0.  1.
          3   -1    0    0  501    0  0.00000000000E+00 -0.00000000000E+00 -0.20908757345E+03  0.20908757345E+03  0.00000000000E+00 0. -1.
          5    1    1    2  502    0  0.15091702849E+01  0.12479052329E+02 -0.88800547620E+02  0.89783149864E+02  0.41800000000E+01 0. -1.
         -5    1    1    2    0  502  0.23044068210E+02 -0.11421271610E+02  0.39147678175E+02  0.47026456717E+02  0.41800000000E+01 0. -1.
        -11    1    1    2    0    0  0.62664812934E+01 -0.39159116977E+02 -0.18038915589E+02  0.43567277925E+02  0.00000000000E+00 0.  1.
         11    1    1    2    0    0 -0.30819719788E+02  0.38101336258E+02 -0.77994227791E+02  0.92112249572E+02  0.00000000000E+00 0. -1.
</event>
<event>
 6    1  0.4988969E-006  0.8542510E+02  0.7561462E-02  0.1314325E+00
         -2   -1    0    0    0  501 -0.00000000000E+00  0.00000000000E+00  0.56493592338E+02  0.56493592338E+02  0.00000000000E+00 0.  1.
          2   -1    0    0  501    0  0.00000000000E+00 -0.00000000000E+00 -0.20569925540E+03  0.20569925540E+03  0.00000000000E+00 0. -1.
          5    1    1    2  502    0  0.31910371194E+02  0.37934097265E+01  0.18187184691E+02  0.37160568269E+02  0.41800000000E+01 0.  1.
         -5    1    1    2    0  502 -0.55016456427E+02 -0.42395148079E+02 -0.90510141839E+02  0.11416530661E+03  0.41800000000E+01 0.  1.
        -11    1    1    2    0    0 -0.12793586533E+02 -0.37604019482E+01 -0.44788379233E+02  0.46731310633E+02  0.00000000000E+00 0. -1.
         11    1    1    2    0    0  0.35899671765E+02  0.42362140301E+02 -0.32094326684E+02  0.64135662225E+02  0.00000000000E+00 0.  1.
</event>
<event>
 6    1  0.4988969E-006  0.2096055E+03  0.7561462E-02  0.1141879E+00
          2   -1    0    0  501    0  0.00000000000E+00  0.00000000000E+00  0.11114291531E+04  0.11114291531E+04  0.00000000000E+00 0. -1.
         -2   -1    0    0    0  501 -0.00000000000E+00 -0.00000000000E+00 -0.54069165871E+02  0.54069165871E+02  0.00000000000E+00 0.  1.
          5    1    1    2  502    0 -0.93586458966E+02 -0.10984760985E+03  0.28695193133E+03  0.32122236222E+03  0.41800000000E+01 0. -1.
         -5    1    1    2    0  502 -0.58421151390E+02 -0.12794771390E+02  0.19368746355E+02  0.63002839936E+02  0.41800000000E+01 0. -1.
        -11    1    1    2    0    0  0.50509960227E+02 -0.61808841196E+01  0.15959242196E+03  0.16750880741E+03  0.00000000000E+00 0.  1.
         11    1    1    2    0    0  0.10149765013E+03  0.12882326536E+03  0.59144688754E+03  0.61376430938E+03  0.00000000000E+00 0. -1.
</event>
<event>
 6    1  0.4988969E-006  0.1321291E+03  0.7561462E-02  0.1224330E+00
         -1   -1    0    0    0  501 -0.00000000000E+00  0.00000000000E+00  0.81915088724E+02  0.81915088724E+02  0.00000000000E+00 0.  1.
          1   -1    0    0  501    0  0.00000000000E+00 -0.00000000000E+00 -0.23943758575E+03  0.23943758575E+03  0.00000000000E+00 0. -1.
          5    1    1    2  502    0 -0.34769607300E+02  0.15319246516E+02 -0.11806301644E+02  0.40005825377E+02  0.41800000000E+01 0. -1.
         -5    1    1    2    0  502  0.44626989105E+02 -0.10143614518E+03 -0.93529970413E+02  0.14507304185E+03  0.41800000000E+01 0. -1.
        -11    1    1    2    0    0 -0.28198563522E+02  0.91721159909E+02 -0.62481312308E+02  0.11450696288E+03  0.00000000000E+00 0. -1.
         11    1    1    2    0    0  0.18341181717E+02 -0.56042612463E+01  0.10295087336E+02  0.21766844377E+02  0.00000000000E+00 0.  1.
</event>
<event>
 6    1  0.4988969E-006  0.1187756E+03  0.7561462E-02  0.1245131E+00
         -2   -1    0    0    0  501 -0.00000000000E+00  0.00000000000E+00  0.30886491698E+02  0.30886491698E+02  0.00000000000E+00 0. -1.
          2   -1    0    0  501    0  0.00000000000E+00 -0.00000000000E+00 -0.48251110641E+03  0.48251110641E+03  0.00000000000E+00 0.  1.
          5    1    1    2  502    0  0.94547013514E+02 -0.20280532390E+02 -0.17083864106E+03  0.19635109227E+03  0.41800000000E+01 0.  1.
         -5    1    1    2    0  502 -0.40428657028E+02  0.20805255019E+01 -0.75195795051E+02  0.85502543172E+02  0.41800000000E+01 0.  1.
        -11    1    1    2    0    0  0.20300047116E+02  0.15600534364E+02 -0.23244440712E+02  0.34579945190E+02  0.00000000000E+00 0. -1.
         11    1    1    2    0    0 -0.74418403602E+02  0.25994725239E+01 -0.18234573789E+03  0.19696401747E+03  0.00000000000E+00 0.  1.
</event>
<event>
 6    1  0.4988969E-006  0.3032823E+03  0.7561462E-02  0.1083611E+00
          2   -1    0    0  501    0  0.00000000000E+00  0.00000000000E+00  0.76247762218E+03  0.76247762218E+03  0.00000000000E+00 0.  1.
         -2   -1    0    0    0  501 -0.00000000000E+00 -0.00000000000E+00 -0.12784463307E+03  0.12784463307E+03  0.00000000000E+00 0. -1.
          5    1    1    2  502    0 -0.75108687105E+02 -0.86058870041E+01  0.52632962910E+02  0.92212132360E+02  0.41800000000E+01 0.  1.
         -5    1    1    2    0  502 -0.17467932378E+03  0.15834194846E+03  0.30828263520E+03  0.38812458614E+03  0.41800000000E+01 0.  1.
        -11    1    1    2    0    0  0.62943226327E+02 -0.62987358492E+02  0.13467522093E+03  0.16145176433E+03  0.00000000000E+00 0.  1.
         11    1    1    2    0    0  0.18684478455E+03 -0.86748702966E+02  0.13904217006E+03  0.24853377242E+03  0.00000000000E+00 0. -1.
</event>
<event>
 6    1  0.4988969E-006  0.1310216E+03  0.7561462E-02  0.1225948E+00
          2   -1    0    0  501    0  0.00000000000E+00  0.00000000000E+00  0.88987868565E+03  0.88987868565E+03  0.00000000000E+00 0. -1.
         -2   -1    0    0    0  501 -0.00000000000E+00 -0.00000000000E+00 -0.32361906104E+02  0.32361906104E+02  0.00000000000E+00 0.  1.
          5    1    1    2  502    0 -0.98943906349E+01  0.34619496898E+02  0.27448125689E+02  0.45467356810E+02  0.41800000000E+01 0. -1.
         -5    1    1    2    0  502  0.15141074365E+02  0.84997766294E+02  0.57185921366E+03  0.57835482626E+03  0.41800000000E+01 0. -1.
        -11    1    1    2    0    0 -0.37347743527E+02 -0.47536525102E+02  0.60418149807E+02  0.85468871476E+02  0.00000000000E+00 0.  1.
         11    1    1    2    0    0  0.32101059798E+02 -0.72080738090E+02  0.19779129039E+03  0.21294953721E+03  0.00000000000E+00 0. -1.
</event>
<event>
 6    1  0.4988969E-006  0.1998764E+03  0.7561462E-02  0.1149843E+00
          1   -1    0    0  501    0  0.00000000000E+00  0.00000000000E+00  0.18659070403E+03  0.18659070403E+03  0.00000000000E+00 0. -1.
         -1   -1    0    0    0  501 -0.00000000000E+00 -0.00000000000E+00 -0.26408724467E+03  0.26408724467E+03  0.00000000000E+00 0.  1.
          5    1    1    2  502    0  0.11412689031E+03  0.11774745275E+03 -0.83071793036E+02  0.18386898846E+03  0.41800000000E+01 0.  1.
         -5    1    1    2    0  502  0.39553453299E+02 -0.10725623712E+01  0.32741373038E+02  0.51527623333E+02  0.41800000000E+01 0.  1.
        -11    1    1    2    0    0 -0.75353648887E+02 -0.36082067403E+02  0.30531958454E+02  0.88951045389E+02  0.00000000000E+00 0. -1.
         11    1    1    2    0    0 -0.78326694722E+02 -0.80592822976E+02 -0.57698079100E+02  0.12633029151E+03  0.00000000000E+00 0.  1.
</event>
<event>
 6    1  0.4988969E-006  0.6689659E+02  0.7561462E-02  0.1370976E+00
          1   -1    0    0  501    0  0.00000000000E+00  0.00000000000E+00  0.53264176055E+03  0.53264176055E+03  0.00000000000E+00 0. -1.
         -1   -1    0    0    0  501 -0.00000000000E+00 -0.00000000000E+00 -0.24754153688E+02  0.24754153688E+02  0.00000000000E+00 0.  1.
          5    1    1    2  502    0  0.10067705673E+02  0.96484303232E+01 -0.98627880703E+01  0.17584023821E+02  0.41800000000E+01 0.  1.
         -5    1    1    2    0  502 -0.26397869313E+02  0.23692798535E+02  0.28162445135E+03  0.28388025681E+03  0.41800000000E+01 0.  1.
        -11    1    1    2    0    0  0.45970409635E+02 -0.26636978689E+02  0.74682974116E+02  0.91653444117E+02  0.00000000000E+00 0.  1.
         11    1    1    2    0    0 -0.29640245995E+02 -0.67042501697E+01  0.16144296946E+03  0.16427818949E+03  0.00000000000E+00 0. -1.
</event>
<event>
 6    1  0.4988969E-006  0.8780026E+02  0.7561462E-02  0.1308268E+00
         -2   -1    0    0    0  501 -0.00000000000E+00  0.00000000000E+00  0.19330637176E+03  0.19330637176E+03  0.00000000000E+00 0.  1.
          2   -1    0    0  501    0  0.00000000000E+00 -0.00000000000E+00 -0.78384073936E+02  0.78384073936E+02  0.00000000000E+00 0. -1.
          5    1    1    2  502    0  0.49544354179E+02  0.23542930702E+01  0.46699481400E+02  0.68253202782E+02  0.41800000000E+01 0. -1.
         -5    1    1    2    0  502 -0.75692407726E+02 -0.25958215939E+02  0.68971411968E+02  0.10572463115E+03  0.41800000000E+01 0. -1.
        -11    1    1    2    0    0  0.25182261727E+02  0.33333036642E+01 -0.43508737671E+02  0.50381221430E+02  0.00000000000E+00 0. -1.
         11    1    1    2    0    0  0.96579181946E+00  0.20270619204E+02  0.42760142129E+02  0.47331390342E+02  0.00000000000E+00 0.  1.
</event>
<event>
 6    1  0.4988969E-006  0.1370330E+03  0.7561462E-02  0.1217378E+00
          1   -1    0    0  501    0  0.00000000000E+00  0.00000000000E+00  0.61229325866E+02  0.61229325866E+02  0.00000000000E+00 0. -1.
         -1   -1    0    0    0  501 -0.00000000000E+00 -0.00000000000E+00 -0.39459161264E+03  0.39459161264E+03  0.00000000000E+00 0.  1.
          5    1    1    2  502    0  0.75068357532E+02 -0.75223480068E+02 -0.22061420418E+03  0.24491208574E+03  0.41800000000E+01 0. -1.
         -5    1    1    2    0  502  0.16816810273E+02  0.40246714231E+02 -0.34587936438E+02  0.55824733418E+02  0.41800000000E+01 0. -1.
        -11    1    1    2    0    0 -0.75866366235E+02  0.58243290901E+02 -0.82740709847E+02  0.12646743267E+03  0.00000000000E+00 0.  1.
         11    1    1    2    0    0 -0.16018801570E+02 -0.23266525065E+02  0.45805636932E+01  0.28616686672E+02  0.00000000000E+00 0. -1.
</event>
<event>
 6    1  0.4988969E-006  0.9888984E+02  0.7561462E-02  0.1282648E+00
          2   -1    0    0  501    0  0.00000000000E+00  0.00000000000E+00  0.24510966119E+03  0.24510966119E+03  0.00000000000E+00 0. -1.
         -2   -1    0    0    0  501 -0.00000000000E+00 -0.00000000000E+00 -0.54512662804E+02  0.54512662804E+02  0.00000000000E+00 0.  1.
          5    1    1    2  502    0 -0.47378038145E+01 -0.41325830968E+02  0.52163693548E+02  0.66849041988E+02  0.41800000000E+01 0. -1.
         -5    1    1    2    0  502  0.19438966727E+02  0.59884949777E+02 -0.14452352167E+01  0.63116097329E+02  0.41800000000E+01 0.  1.
        -11    1    1    2    0    0 -0.99074930153E+00 -0.54447232050E+02  0.10243636881E+03  0.11601160423E+03  0.00000000000E+00 0.  1.
         11    1    1    2    0    0 -0.13710413611E+02  0.35888113241E+02  0.37442171244E+02  0.53645580441E+02  0.00000000000E+00 0. -1.
</event>
<event>
 6    1  0.4988969E-006  0.9485976E+02  0.7561462E-02  0.1291492E+00
         -2   -1    0    0    0  501 -0.00000000000E+00  0.00000000000E+00  0.71909618291E+02  0.71909618291E+02  0.00000000000E+00 0.  1.
          2   -1    0    0  501    0  0.00000000000E+00 -0.00000000000E+00 -0.24113758186E+03  0.24113758186E+03  0.00000000000E+00 0. -1.
          5    1    1    2  502    0  0.59892819296E+02  0.65778010153E+02 -0.25596870646E+02  0.92663739455E+02  0.41800000000E+01 0. -1.
         -5    1    1    2    0  502 -0.24350727027E+02 -0.34671430564E+02  0.40733805054E+01  0.42768339140E+02  0.41800000000E+01 0. -1.
        -11    1    1    2    0    0 -0.15178258868E+02  0.55443176687E+01  0.67933260969E+01  0.17529069574E+02  0.00000000000E+00 0.  1.
         11    1    1    2    0    0 -0.20363833402E+02 -0.36650897257E+02 -0.15449779953E+03  0.16008605198E+03  0.00000000000E+00 0. -1.
</event>
<event>
 6    1  0.4988969E-006  0.1773057E+03  0.7561462E-02  0.1170436E+00
          4   -1    0    0  501    0  0.00000000000E+00  0.00000000000E+00  0.32605326041E+03  0.32605326041E+03  0.00000000000E+00 0. -1.
         -4   -1    0    0    0  501 -0.00000000000E+00 -0.00000000000E+00 -0.12979979805E+03  0.12979979805E+03  0.00000000000E+00 0.  1.
          5    1    1    2  502    0  0.30225328764E+02  0.79969963551E+02 -0.20408068514E+02  0.87992768053E+02  0.41800000000E+01 0.  1.
         -5    1    1    2    0  502  0.72694078849E+02  0.60374155887E+02  0.10795441349E+03  0.14353081756E+03  0.41800000000E+01 0.  1.
        -11    1    1    2    0    0 -0.58646648747E+02 -0.89601926378E+02  0.13822504928E+02  0.10797683206E+03  0.00000000000E+00 0.  1.
         11    1    1    2    0    0 -0.44272758866E+02 -0.50742193060E+02  0.94884612459E+02  0.11635264078E+03  0.00000000000E+00 0. -1.
</event>
<event>
 6    1  0.4988969E-006  0.2635834E+03  0.7561462E-02  0.1105009E+00
         -2   -1    0    0    0  501 -0.00000000000E+00  0.00000000000E+00  0.28863323469E+03  0.28863323469E+03  0.00000000000E+00 0.  1.
          2   -1    0    0  501    0  0.00000000000E+00 -0.00000000000E+00 -0.28011080408E+03  0.28011080408E+03  0.00000000000E+00 0. -1.
          5    1    1    2  502    0  0.13021402655E+03  0.60394923840E+02  0.81798809952E+02  0.16526269164E+03  0.41800000000E+01 0.  1.
         -5    1    1    2    0  502  0.40145017284E+02  0.11992533788E+03  0.83185464678E+01  0.12680843700E+03  0.41800000000E+01 0.  1.
        -11    1    1    2    0    0 -0.11010719694E+03 -0.67553279070E+02 -0.73356230050E+02  0.14855361597E+03  0.00000000000E+00 0. -1.
         11    1    1    2    0    0 -0.60251846902E+02 -0.11276698265E+03 -0.82386957674E+01  0.12811929417E+03  0.00000000000E+00 0.  1.
</event>
<event>
 6    1  0.4988969E-006  0.7713401E+02  0.7561462E-02  0.1337387E+00
         -1   -1    0    0    0  501 -0.00000000000E+00  0.00000000000E+00  0.24829524556E+03  0.24829524556E+03  0.00000000000E+00 0.  1.
          1   -1    0    0  501    0  0.00000000000E+00 -0.00000000000E+00 -0.49669083159E+02  0.49669083159E+02  0.00000000000E+00 0. -1.
          5    1    1    2  502    0  0.10413966186E+02  0.42511753706E+02  0.19760497827E+01  0.44012237703E+02  0.41800000000E+01 0.  1.
         -5    1    1    2    0  502 -0.11705353971E+01 -0.40799851747E+02  0.13789975320E+03  0.14387429370E+03  0.41800000000E+01 0.  1.
        -11    1    1    2    0    0 -0.15055979267E+02 -0.33619755106E+02  0.67136140920E+02  0.76578272785E+02  0.00000000000E+00 0.  1.
         11    1    1    2    0    0  0.58125484785E+01  0.31907853147E+02 -0.83857815016E+01  0.33499524529E+02  0.00000000000E+00 0. -1.
</event>
<event>
 6    1  0.4988969E-006  0.9705890E+02  0.7561462E-02  0.1286605E+00
         -2   -1    0    0    0  501 -0.00000000000E+00  0.00000000000E+00  0.41345814509E+02  0.41345814509E+02  0.00000000000E+00 0.  1.
          2   -1    0    0  501    0  0.00000000000E+00 -0.00000000000E+00 -0.28625306953E+03  0.28625306953E+03  0.00000000000E+00 0. -1.
          5    1    1    2  502    0  0.59662615032E+02 -0.18330841854E+02 -0.51677997511E+02  0.81140219511E+02  0.41800000000E+01 0.  1.
         -5    1    1    2    0  502 -0.65000017822E+02 -0.11711807881E+02 -0.51071803565E+02  0.83594080413E+02  0.41800000000E+01 0.  1.
        -11    1    1    2    0    0 -0.18986301767E+02  0.35678632197E+02 -0.37036826210E+02  0.54819439489E+02  0.00000000000E+00 0.  1.
         11    1    1    2    0    0  0.24323704557E+02 -0.56359824614E+01 -0.10512062773E+03  0.10804514462E+03  0.00000000000E+00 0. -1.
</event>
<event>
 6    1  0.4988969E-006  0.1105929E+03  0.7561462E-02  0.1259476E+00
         -2   -1    0    0    0  501 -0.00000000000E+00  0.00000000000E+00  0.25464105618E+02  0.25464105618E+02  0.00000000000E+00 0.  1.
          2   -1    0    0  501    0  0.00000000000E+00 -0.00000000000E+00 -0.62904283788E+03  0.62904283788E+03  0.00000000000E+00 0. -1.
          5    1    1    2  502    0 -0.22728029149E+02 -0.74453254609E+02 -0.22637147702E+03  0.23941881388E+03  0.41800000000E+01 0.  1.
         -5    1    1    2    0  502  0.45298513311E+02  0.17539813509E+02 -0.48764682514E+02  0.68956994038E+02  0.41800000000E+01 0.  1.
        -11    1    1    2    0    0  0.16369895110E+02  0.52843511790E+02 -0.99321498444E+02  0.11368891880E+03  0.00000000000E+00 0.  1.
         11    1    1    2    0    0 -0.38940379272E+02  0.40699293095E+01 -0.22912107429E+03  0.23244221679E+03  0.00000000000E+00 0. -1.
</event>
<event>
 6    1  0.4988969E-006  0.9460586E+02  0.7561462E-02  0.1292066E+00
         -2   -1    0    0    0  501 -0.00000000000E+00  0.00000000000E+00  0.68109825056E+03  0.68109825056E+03  0.00000000000E+00 0.  1.
          2   -1    0    0  501    0  0.00000000000E+00 -0.00000000000E+00 -0.22253420088E+02  0.22253420088E+02  0.00000000000E+00 0. -1.
          5    1    1    2  502    0 -0.39742233060E+02 -0.35957410319E+02  0.44655977249E+03  0.44978381835E+03  0.41800000000E+01 0.  1.
         -5    1    1    2    0  502  0.36458060599E+02  0.19188787312E+01  0.42532463759E+02  0.56208141329E+02  0.41800000000E+01 0.  1.
        -11    1    1    2    0    0 -0.44212743224E+02  0.94030636681E+01  0.58676303239E+02  0.74068163414E+02  0.00000000000E+00 0. -1.
         11    1    1    2    0    0  0.47496915685E+02  0.24635467920E+02  0.11107629099E+03  0.12329154755E+03  0.00000000000E+00 0.  1.
</event>
<event>
 6    1  0.4988969E-006  0.9725158E+02  0.7561462E-02  0.1286184E+00
         -1   -1    0    0    0  501 -0.00000000000E+00  0.00000000000E+00  0.23044755836E+02  0.23044755836E+02  0.00000000000E+00 0.  1.
          1   -1    0    0  501    0  0.00000000000E+00 -0.00000000000E+00 -0.54909643201E+03  0.54909643201E+03  0.00000000000E+00 0. -1.
          5    1    1    2  502    0  0.33318941231E+02 -0.44832395220E+02 -0.48261849251E+02  0.73937635876E+02  0.41800000000E+01 0. -1.
         -5    1    1    2    0  502 -0.26452901969E+02  0.43492763336E+02 -0.17256221858E+03  0.17996268548E+03  0.41800000000E+01 0. -1.
        -11    1    1    2    0    0 -0.82440703897E+01  0.43981833517E+02 -0.19442666151E+03  0.19950963155E+03  0.00000000000E+00 0.  1.
         11    1    1    2    0    0  0.13780311276E+01 -0.42642201634E+02 -0.11080094683E+03  0.11873123493E+03  0.00000000000E+00 0. -1.
</event>
<event>
 6    1  0.4988969E-006  0.1007275E+03  0.7561462E-02  0.1278774E+00
         -1   -1    0    0    0  501 -0.00000000000E+00  0.00000000000E+00  0.97986309348E+02  0.97986309348E+02  0.00000000000E+00 0.  1.
          1   -1    0    0  501    0  0.00000000000E+00 -0.00000000000E+00 -0.17541620759E+03  0.17541620759E+03  0.00000000000E+00 0. -1.
          5    1    1    2  502    0  0.12749070621E+02  0.30579762672E+02  0.50494717773E+02  0.60538001369E+02  0.41800000000E+01 0. -1.
         -5    1    1    2    0  502 -0.65434890881E+02 -0.78770184794E+01 -0.40456991022E+02  0.77446839105E+02  0.41800000000E+01 0. -1.
        -11    1    1    2    0    0  0.39914538118E+01 -0.47299526839E+02 -0.51688299646E+02  0.70177327272E+02  0.00000000000E+00 0. -1.
         11    1    1    2    0    0  0.48694366449E+02  0.24596782647E+02 -0.35779325349E+02  0.65240349193E+02  0.00000000000E+00 0.  1.
</event>
<event>
 6    1  0.4988969E-006  0.2266974E+03  0.7561462E-02  0.1128986E+00
          2   -1    0    0  501    0  0.00000000000E+00  0.00000000000E+00  0.29723327937E+03  0.29723327937E+03  0.00000000000E+00 0.  1.
         -2   -1    0    0    0  501 -0.00000000000E+00 -0.00000000000E+00 -0.19412098780E+03  0.19412098780E+03  0.00000000000E+00 0. -1.
          5    1    1    2  502    0 -0.19906659143E+03 -0.77628569085E+01  0.71471682723E+02  0.21169186003E+03  0.41800000000E+01 0.  1.
         -5    1    1    2    0  502 -0.11079172060E+02 -0.34985587491E+02 -0.19779623027E+02  0.41898034234E+02  0.41800000000E+01 0.  1.
        -11    1    1    2    0    0  0.48391829650E+02 -0.47231505618E+01  0.49202926752E+02  0.69173732941E+02  0.00000000000E+00 0.  1.
         11    1    1    2    0    0  0.16175393384E+03  0.47471594961E+02  0.22173051176E+01  0.16859063996E+03  0.00000000000E+00 0. -1.
</event>
<event>
 6    1  0.4988969E-006  0.1067554E+03  0.7561462E-02  0.1266699E+00
         -1   -1    0    0    0  501 -0.00000000000E+00  0.00000000000E+00  0.12213641996E+02  0.12213641996E+02  0.00000000000E+00 0.  1.
          1   -1    0    0  501    0  0.00000000000E+00 -0.00000000000E+00 -0.11260066399E+04  0.11260066399E+04  0.00000000000E+00 0. -1.
          5    1    1    2  502    0 -0.37502343939E+02  0.13568614210E+02 -0.42514205421E+03  0.42702900575E+03  0.41800000000E+01 0.  1.
         -5    1    1    2    0  502  0.75951350909E+02  0.39107948200E+01 -0.26969781301E+03  0.28024682829E+03  0.41800000000E+01 0.  1.
        -11    1    1    2    0    0 -0.37641194850E+02 -0.51181269428E+02 -0.32436457390E+03  0.33052799986E+03  0.00000000000E+00 0. -1.
         11    1    1    2    0    0 -0.80781212013E+00  0.33701860398E+02 -0.94588556741E+02  0.10041644796E+03  0.00000000000E+00 0.  1.
</event>
<event>
 6    1  0.4988969E-006  0.1129584E+03  0.7561462E-02  0.1255187E+00
          1   -1    0    0  501    0  0.00000000000E+00  0.00000000000E+00  0.74725800072E+02  0.74725800072E+02  0.00000000000E+00 0. -1.
         -1   -1    0    0    0  501 -0.00000000000E+00 -0.00000000000E+00 -0.28212205381E+03  0.28212205381E+03  0.00000000000E+00 0.  1.
          5    1    1    2  502    0  0.36889631961E+02 -0.22022119011E+02 -0.69384705971E+02  0.81716145862E+02  0.41800000000E+01 0.  1.
         -5    1    1    2    0  502 -0.87636733237E+02  0.27398766616E+02 -0.14243945512E+03  0.16952097274E+03  0.41800000000E+01 0.  1.
        -11    1    1    2    0    0 -0.19914009139E+02 -0.29672777507E+01 -0.22282495299E+02  0.30031351851E+02  0.00000000000E+00 0.  1.
         11    1    1    2    0    0  0.70661110415E+02 -0.24093698539E+01  0.26710402657E+02  0.75579383421E+02  0.00000000000E+00 0. -1.
</event>
<event>
 6    1  0.4988969E-006  0.9612561E+02  0.7561462E-02  0.1288661E+00
         -3   -1    0    0    0  501 -0.00000000000E+00  0.00000000000E+00  0.23374770197E+03  0.23374770197E+03  0.00000000000E+00 0.  1.
          3   -1    0    0  501    0  0.00000000000E+00 -0.00000000000E+00 -0.78889338959E+02  0.78889338959E+02  0.00000000000E+00 0. -1.
          5    1    1    2  502    0 -0.61286141120E+02 -0.13566314692E+02  0.38374243231E+02  0.73689150703E+02  0.41800000000E+01 0.  1.
         -5    1    1    2    0  502  0.49899841233E+02 -0.42353887104E+02  0.11421008732E+03  0.13170141364E+03  0.41800000000E+01 0.  1.
        -11    1    1    2    0    0  0.14422359655E+02  0.95702733652E+01 -0.40536887433E+02  0.44077588785E+02  0.00000000000E+00 0. -1.
         11    1    1    2    0    0 -0.30360597681E+01  0.46349928431E+02  0.42810919893E+02  0.63168887806E+02  0.00000000000E+00 0.  1.
</event>
<event>
 6    1  0.4988969E-006  0.1079661E+03  0.7561462E-02  0.1264383E+00
         -1   -1    0    0    0  501 -0.00000000000E+00  0.00000000000E+00  0.29816081125E+02  0.29816081125E+02  0.00000000000E+00 0.  1.
          1   -1    0    0  501    0  0.00000000000E+00 -0.00000000000E+00 -0.49846351954E+03  0.49846351954E+03  0.00000000000E+00 0. -1.
          5    1    1    2  502    0  0.62994563698E+02  0.39364368329E+02 -0.78763428359E+02  0.10834675166E+03  0.41800000000E+01 0. -1.
         -5    1    1    2    0  502 -0.19283481286E+02 -0.54147503429E+02 -0.87229514397E+02  0.10454790940E+03  0.41800000000E+01 0. -1.
        -11    1    1    2    0    0 -0.49726672322E+02 -0.16231787879E+02 -0.13500323153E+03  0.14478289057E+03  0.00000000000E+00 0. -1.
         11    1    1    2    0    0  0.60155899110E+01  0.31014922979E+02 -0.16765126413E+03  0.17060204903E+03  0.00000000000E+00 0.  1.
</event>
<event>
 6    1  0.4988969E-006  0.1376556E+03  0.7561462E-02  0.1216519E+00
         -1   -1    0    0    0  501 -0.00000000000E+00  0.00000000000E+00  0.30435177910E+03  0.30435177910E+03  0.00000000000E+00 0.  1.
          1   -1    0    0  501    0  0.00000000000E+00 -0.00000000000E+00 -0.11640627228E+03  0.11640627228E+03  0.00000000000E+00 0. -1.
          5    1    1    2  502    0 -0.10859275651E+03  0.44691782557E+02  0.20288823874E+03  0.23445863604E+03  0.41800000000E+01 0.  1.
         -5    1    1    2    0  502  0.17409424407E+01  0.26596458002E+02 -0.10098219134E+02  0.28807097884E+02  0.41800000000E+01 0.  1.
        -11    1    1    2    0    0  0.46976836747E+02 -0.16857191604E+02 -0.44961669391E+02  0.67175440557E+02  0.00000000000E+00 0. -1.
         11    1    1    2    0    0  0.59874977323E+02 -0.54431048955E+02  0.40117156609E+02  0.90316876907E+02  0.00000000000E+00 0.  1.
</event>
<event>
 6    1  0.4988969E-006  0.1237920E+03  0.7561462E-02  0.1236969E+00
         -3   -1    0    0    0  501 -0.00000000000E+00  0.00000000000E+00  0.48004260389E+03  0.48004260389E+03  0.00000000000E+00 0.  1.
          3   -1    0    0  501    0  0.00000000000E+00 -0.00000000000E+00 -0.38640878796E+02  0.38640878796E+02  0.00000000000E+00 0. -1.
          5    1    1    2  502    0  0.34402265970E+02 -0.40840911370E+02  0.13434735759E+03  0.14463118902E+03  0.41800000000E+01 0.  1.
         -5    1    1    2    0  502  0.20033954794E+02  0.87294871673E+02  0.17464815275E+03  0.19631913718E+03  0.41800000000E+01 0.  1.
        -11    1    1    2    0    0 -0.12069797163E+01  0.19538314172E+02  0.69381369817E+02  0.72090061717E+02  0.00000000000E+00 0.  1.
         11    1    1    2    0    0 -0.53229241047E+02 -0.65992274475E+02  0.63024844936E+02  0.10564309477E+03  0.00000000000E+00 0. -1.
</event>
<event>
 6    1  0.4988969E-006  0.1323904E+03  0.7561462E-02  0.1223951E+00
         -1   -1    0    0    0  501 -0.00000000000E+00  0.00000000000E+00  0.12426451221E+03  0.12426451221E+03  0.00000000000E+00 0.  1.
          1   -1    0    0  501    0  0.00000000000E+00 -0.00000000000E+00 -0.29732302448E+03  0.29732302448E+03  0.00000000000E+00 0. -1.
          5    1    1    2  502    0 -0.94973047305E+02 -0.18980890831E+02 -0.49842575347E+02  0.10900416803E+03  0.41800000000E+01 0. -1.
         -5    1    1    2    0  502 -0.31926618676E+02  0.19153241809E+02  0.58408008855E+02  0.69391091289E+02  0.41800000000E+01 0. -1.
        -11    1    1    2    0    0  0.37294272552E+02  0.13640743436E+02 -0.13603355221E+03  0.14171118507E+03  0.00000000000E+00 0. -1.
         11    1    1    2    0    0  0.89605393430E+02 -0.13813094415E+02 -0.45590393564E+02  0.10148109230E+03  0.00000000000E+00 0.  1.
</event>
<event>
 6    1  0.4988969E-006  0.1172843E+03  0.7561462E-02  0.1247646E+00
         -1   -1    0    0    0  501 -0.00000000000E+00  0.00000000000E+00  0.35290201127E+02  0.35290201127E+02  0.00000000000E+00 0.  1.
          1   -1    0    0  501    0  0.00000000000E+00 -0.00000000000E+00 -0.48765506267E+03  0.48765506267E+03  0.00000000000E+00 0. -1.
          5    1    1    2  502    0 -0.46706301075E+02  0.28812851772E+02 -0.59994907200E+02  0.81415725000E+02  0.41800000000E+01 0. -1.
         -5    1    1    2    0  502  0.80368496102E+02 -0.28484316780E+01 -0.79305323019E+02  0.11302218980E+03  0.41800000000E+01 0.  1.
        -11    1    1    2    0    0  0.62254568568E+01 -0.51347955511E+02 -0.14651693722E+03  0.15537883299E+03  0.00000000000E+00 0.  1.
         11    1    1    2    0    0 -0.39887651884E+02  0.25383535417E+02 -0.16654769411E+03  0.17312851601E+03  0.00000000000E+00 0. -1.
</event>
<event>
 6    1  0.4988969E-006  0.1201355E+03  0.7561462E-02  0.1242874E+00
         -1   -1    0    0    0  501 -0.00000000000E+00  0.00000000000E+00  0.68854414786E+02  0.68854414786E+02  0.00000000000E+00 0.  1.
          1   -1    0    0  501    0  0.00000000000E+00 -0.00000000000E+00 -0.32084559504E+03  0.32084559504E+03  0.00000000000E+00 0. -1.
          5    1    1    2  502    0 -0.50179037157E+02  0.28657423287E+02 -0.13550180153E+03  0.14736822690E+03  0.41800000000E+01 0. -1.
         -5    1    1    2    0  502 -0.47333566896E+02 -0.40548372744E+01  0.18657740039E+02  0.51210271663E+02  0.41800000000E+01 0. -1.
        -11    1    1    2    0    0 -0.10539123672E+02  0.16047361964E+02 -0.13884404421E+02  0.23693198178E+02  0.00000000000E+00 0.  1.
         11    1    1    2    0    0  0.10805172773E+03 -0.40649947977E+02 -0.12126271433E+03  0.16742831309E+03  0.00000000000E+00 0. -1.
</event>
<event>
 6    1  0.4988969E-006  0.1678071E+03  0.7561462E-02  0.1180154E+00
          1   -1    0    0  501    0  0.00000000000E+00  0.00000000000E+00  0.12189720578E+04  0.12189720578E+04  0.00000000000E+00 0. -1.
         -1   -1    0    0    0  501 -0.00000000000E+00 -0.00000000000E+00 -0.25074673973E+02  0.25074673973E+02  0.00000000000E+00 0.  1.
          5    1    1    2  502    0  0.73857585709E+01  0.65589824421E+02  0.40503268038E+03  0.41039678249E+03  0.41800000000E+01 0.  1.
         -5    1    1    2    0  502 -0.10168539466E+03  0.24030800432E+02  0.31469447423E+03  0.33161345474E+03  0.41800000000E+01 0.  1.
        -11    1    1    2    0    0  0.11349332912E+03 -0.56864016340E+02  0.36874716857E+03  0.38998554645E+03  0.00000000000E+00 0. -1.
         11    1    1    2    0    0 -0.19193693036E+02 -0.32756608512E+02  0.10542306068E+03  0.11205094813E+03  0.00000000000E+00 0.  1.
</event>
<event>
 6    1  0.4988969E-006  0.2377447E+03  0.7561462E-02  0.1121304E+00
          1   -1    0    0  501    0  0.00000000000E+00  0.00000000000E+00  0.51392745650E+03  0.51392745650E+03  0.00000000000E+00 0. -1.
         -1   -1    0    0    0  501 -0.00000000000E+00 -0.00000000000E+00 -0.13737612078E+03  0.13737612078E+03  0.00000000000E+00 0.  1.
          5    1    1    2  502    0  0.87606352062E+02 -0.16835923499E+03  0.32184269277E+02  0.19254351331E+03  0.41800000000E+01 0.  1.
         -5    1    1    2    0  502  0.56737646471E+02 -0.75948987115E+01  0.59988569495E+02  0.83023754935E+02  0.41800000000E+01 0.  1.
        -11    1    1    2    0    0 -0.72908033907E+02  0.10261338454E+03  0.85857593760E+02  0.15236999213E+03  0.00000000000E+00 0.  1.
         11    1    1    2    0    0 -0.71435964626E+02  0.73340749158E+02  0.19852090318E+03  0.22336631691E+03  0.00000000000E+00 0. -1.
</event>
<event>
 6    1  0.4988969E-006  0.1007797E+03  0.7561462E-02  0.1278665E+00
         -2   -1    0    0    0  501 -0.00000000000E+00  0.00000000000E+00  0.36256424581E+03  0.36256424581E+03  0.00000000000E+00 0.  1.
          2   -1    0    0  501    0  0.00000000000E+00 -0.00000000000E+00 -0.61828751078E+02  0.61828751078E+02  0.00000000000E+00 0. -1.
          5    1    1    2  502    0  0.98838305804E+02  0.16268836257E+02  0.23763014612E+03  0.25791324990E+03  0.41800000000E+01 0.  1.
         -5    1    1    2    0  502 -0.35483774808E+02 -0.57134528311E+00  0.40702875903E+02  0.54162913667E+02  0.41800000000E+01 0.  1.
        -11    1    1    2    0    0 -0.36627087176E+02 -0.12249791637E+02  0.56758630400E+02  0.68652334520E+02  0.00000000000E+00 0.  1.
         11    1    1    2    0    0 -0.26727443820E+02 -0.34476993370E+01 -0.34356157696E+02  0.43664498800E+02  0.00000000000E+00 0. -1.
</event>
<event>
 6    1  0.4988969E-006  0.1236725E+03  0.7561462E-02  0.1237159E+00
          1   -1    0    0  501    0  0.00000000000E+00  0.00000000000E+00  0.26332502223E+03  0.26332502223E+03  0.00000000000E+00 0. -1.
         -1   -1    0    0    0  501 -0.00000000000E+00 -0.00000000000E+00 -0.88325741894E+02  0.88325741894E+02  0.00000000000E+00 0.  1.
          5    1    1    2  502    0 -0.67776110504E+02  0.42078011468E+02  0.91927515448E+01  0.80412308045E+02  0.41800000000E+01 0. -1.
         -5    1    1    2    0  502 -0.14612680518E+02 -0.70888667035E+02  0.14853571499E+02  0.74005638516E+02  0.41800000000E+01 0. -1.
        -11    1    1    2    0    0  0.25679533532E+02 -0.85323451113E+01 -0.46534248659E+01  0.27457125096E+02  0.00000000000E+00 0.  1.
         11    1    1    2    0    0  0.56709257489E+02  0.37343000678E+02  0.15560638216E+03  0.16977569247E+03  0.00000000000E+00 0. -1.
</event>
<event>
 6    1  0.4988969E-006  0.1260811E+03  0.7561462E-02  0.1233389E+00
         -1   -1    0    0    0  501 -0.00000000000E+00  0.00000000000E+00  0.31114213419E+02  0.31114213419E+02  0.00000000000E+00 0. -1.
          1   -1    0    0  501    0  0.00000000000E+00 -0.00000000000E+00 -0.54111636585E+03  0.54111636585E+03  0.00000000000E+00 0.  1.
          5    1    1    2  502    0  0.45204718660E+02  0.40063102124E+02 -0.10043729387E+03  0.11727591885E+03  0.41800000000E+01 0.  1.
         -5    1    1    2    0  502 -0.79923043563E+02  0.22825457951E+02 -0.16687091905E+03  0.18647270697E+03  0.41800000000E+01 0.  1.
        -11    1    1    2    0    0  0.38702362669E+02  0.61931537718E+01 -0.13414246244E+03  0.13975130861E+03  0.00000000000E+00 0.  1.
         11    1    1    2    0    0 -0.39840377663E+01 -0.69081713846E+02 -0.10855147708E+03  0.12873064484E+03  0.00000000000E+00 0. -1.
</event>
<event>
 6    1  0.4988969E-006  0.1009072E+03  0.7561462E-02  0.1278400E+00
          4   -1    0    0  501    0  0.00000000000E+00  0.00000000000E+00  0.95867686255E+02  0.95867686255E+02  0.00000000000E+00 0. -1.
         -4   -1    0    0    0  501 -0.00000000000E+00 -0.00000000000E+00 -0.26175162378E+03  0.26175162378E+03  0.00000000000E+00 0.  1.
          5    1    1    2  502    0  0.40397342699E+02  0.35508677274E+02 -0.17237736331E+03  0.18062181275E+03  0.41800000000E+01 0. -1.
         -5    1    1    2    0  502  0.29871369948E+02 -0.46282434175E+02 -0.18188916961E+02  0.58160738956E+02  0.41800000000E+01 0. -1.
        -11    1    1    2    0    0  0.10760983227E+02  0.32737055242E+01  0.35042902111E+02  0.36803816327E+02  0.00000000000E+00 0. -1.
         11    1    1    2    0    0 -0.81029695874E+02  0.75000513768E+01 -0.10360559369E+02  0.82032942008E+02  0.00000000000E+00 0.  1.
</event>
<event>
 6    1  0.4988969E-006  0.1080605E+03  0.7561462E-02  0.1264204E+00
         -1   -1    0    0    0  501 -0.00000000000E+00  0.00000000000E+00  0.12957323846E+03  0.12957323846E+03  0.00000000000E+00 0.  1.
          1   -1    0    0  501    0  0.00000000000E+00 -0.00000000000E+00 -0.16445374049E+03  0.16445374049E+03  0.00000000000E+00 0. -1.
          5    1    1    2  502    0  0.71668100409E+00 -0.73632051437E+02  0.61696014878E+02  0.96156452109E+02  0.41800000000E+01 0.  1.
         -5    1    1    2    0  502 -0.20734050835E+02 -0.18729517003E+02 -0.53845686146E+02  0.60807285647E+02  0.41800000000E+01 0.  1.
        -11    1    1    2    0    0 -0.23500871650E+02  0.32266079362E+02 -0.48296148067E+02  0.62657072735E+02  0.00000000000E+00 0. -1.
         11    1    1    2    0    0  0.43518241480E+02  0.60095489078E+02  0.55653173076E+01  0.74406168466E+02  0.00000000000E+00 0.  1.
</event>
<event>
 6    1  0.4988969E-006  0.1740016E+03  0.7561462E-02  0.1173738E+00
         -2   -1    0    0    0  501 -0.00000000000E+00  0.00000000000E+00  0.28474735702E+03  0.28474735702E+03  0.00000000000E+00 0. -1.
          2   -1    0    0  501    0  0.00000000000E+00 -0.00000000000E+00 -0.23471012948E+03  0.23471012948E+03  0.00000000000E+00 0.  1.
          5    1    1    2  502    0  0.71976870747E+01 -0.10201843395E+02  0.81598792756E+02  0.82654217601E+02  0.41800000000E+01 0.  1.
         -5    1    1    2    0  502  0.53534850159E+02  0.15092468215E+03  0.12312476092E+03  0.20204311177E+03  0.41800000000E+01 0.  1.
        -11    1    1    2    0    0 -0.23520486758E+02  0.51684090430E+01 -0.34689776988E+02  0.42229212364E+02  0.00000000000E+00 0.  1.
         11    1    1    2    0    0 -0.37212050476E+02 -0.14589124779E+03 -0.11999654915E+03  0.19253094477E+03  0.00000000000E+00 0. -1.
</event>
<event>
 6    1  0.4988969E-006  0.8679881E+02  0.7561462E-02  0.1310794E+00
         -1   -1    0    0    0  501 -0.00000000000E+00  0.00000000000E+00  0.61869099329E+02  0.61869099329E+02  0.00000000000E+00 0.  1.
          1   -1    0    0  501    0  0.00000000000E+00 -0.00000000000E+00 -0.21673199183E+03  0.21673199183E+03  0.00000000000E+00 0. -1.
          5    1    1    2  502    0 -0.37091662337E+02  0.62134071771E+02 -0.51969724380E+02  0.89189455329E+02  0.41800000000E+01 0. -1.
         -5    1    1    2    0  502  0.33273115532E+02 -0.34387471351E+02  0.27768126630E+01  0.48112176127E+02  0.41800000000E+01 0. -1.
        -11    1    1    2    0    0  0.16943831030E+02 -0.34414804321E+02 -0.11673934119E+03  0.12288020975E+03  0.00000000000E+00 0. -1.
         11    1    1    2    0    0 -0.13125284224E+02  0.66682039016E+01  0.11069360403E+02  0.18419249957E+02  0.00000000000E+00 0.  1.
</event>
<event>
 6    1  0.4988969E-006  0.8767804E+02  0.7561462E-02  0.1308574E+00
         -2   -1    0    0    0  501 -0.00000000000E+00  0.00000000000E+00  0.42639901315E+02  0.42639901315E+02  0.00000000000E+00 0. -1.
          2   -1    0    0  501    0  0.00000000000E+00 -0.00000000000E+00 -0.22076839447E+03  0.22076839447E+03  0.00000000000E+00 0.  1.
          5    1    1    2  502    0 -0.54105077165E+02  0.57272722996E+01 -0.91929889593E+02  0.10690527594E+03  0.41800000000E+01 0. -1.
         -5    1    1    2    0  502  0.50206705482E+02 -0.22717195518E+02 -0.11752270239E+02  0.56501084090E+02  0.41800000000E+01 0. -1.
        -11    1    1    2    0    0 -0.16049592503E+02  0.35090684612E+02 -0.53064774076E+02  0.65611095203E+02  0.00000000000E+00 0.  1.
         11    1    1    2    0    0  0.19947964186E+02 -0.18100761394E+02 -0.21381559249E+02  0.34390840555E+02  0.00000000000E+00 0. -1.
</event>
<event>
 6    1  0.4988969E-006  0.9856084E+02  0.7561462E-02  0.1283352E+00
         -2   -1    0    0    0  501 -0.00000000000E+00  0.00000000000E+00  0.77680205250E+02  0.77680205250E+02  0.00000000000E+00 0.  1.
          2   -1    0    0  501    0  0.00000000000E+00 -0.00000000000E+00 -0.21760694477E+03  0.21760694477E+03  0.00000000000E+00 0. -1.
          5    1    1    2  502    0  0.50748879470E+02  0.69530080813E+02 -0.84112030325E+02  0.12042502626E+03  0.41800000000E+01 0. -1.
         -5    1    1    2    0  502 -0.27994504444E+02 -0.30412615996E+01  0.21921695446E+02  0.35930136132E+02  0.41800000000E+01 0. -1.
        -11    1    1    2    0    0  0.11400701877E+02 -0.31837022740E+02  0.12793318992E+02  0.36155788348E+02  0.00000000000E+00 0.  1.
         11    1    1    2    0    0 -0.34155076902E+02 -0.34651796473E+02 -0.90529723635E+02  0.10277619928E+03  0.00000000000E+00 0. -1.
</event>
<event>
 6    1  0.4988969E-006  0.6238555E+02  0.7561462E-02  0.1388085E+00
          1   -1    0    0  501    0  0.00000000000E+00  0.00000000000E+00  0.85883346044E+02  0.85883346044E+02  0.00000000000E+00 0. -1.
         -1   -1    0    0    0  501 -0.00000000000E+00 -0.00000000000E+00 -0.15697842142E+03  0.15697842142E+03  0.00000000000E+00 0.  1.
          5    1    1    2  502    0 -0.23814143323E+01  0.16444052987E+02  0.38504322126E+02  0.42144195748E+02  0.41800000000E+01 0. -1.
         -5    1    1    2    0  502  0.51761780289E+01  0.19429205866E+02 -0.99501875757E+02  0.10159912666E+03  0.41800000000E+01 0. -1.
        -11    1    1    2    0    0 -0.25771854150E+02  0.16022254460E+02 -0.26234557834E+02  0.40114250947E+02  0.00000000000E+00 0.  1.
         11    1    1    2    0    0  0.22977090454E+02 -0.51895513313E+02  0.16137036092E+02  0.59004194101E+02  0.00000000000E+00 0. -1.
</event>
<event>
 6    1  0.4988969E-006  0.1488499E+03  0.7561462E-02  0.1201893E+00
          2   -1    0    0  501    0  0.00000000000E+00  0.00000000000E+00  0.37327102461E+02  0.37327102461E+02  0.00000000000E+00 0. -1.
         -2   -1    0    0    0  501 -0.00000000000E+00 -0.00000000000E+00 -0.70490243884E+03  0.70490243884E+03  0.00000000000E+00 0.  1.
          5    1    1    2  502    0  0.11747544160E+03  0.19452450330E+02 -0.34411951260E+03  0.36416285993E+03  0.41800000000E+01 0. -1.
         -5    1    1    2    0  502 -0.27627197346E+02  0.31812947062E+02 -0.15553947740E+03  0.16119964970E+03  0.41800000000E+01 0. -1.
        -11    1    1    2    0    0 -0.27378391356E+02  0.25379013727E+02 -0.58455432832E+02  0.69359269593E+02  0.00000000000E+00 0.  1.
         11    1    1    2    0    0 -0.62469852902E+02 -0.76644411119E+02 -0.10946091355E+03  0.14750776208E+03  0.00000000000E+00 0. -1.
</event>
<event>
 6    1  0.4988969E-006  0.2804479E+03  0.7561462E-02  0.1095445E+00
         -2   -1    0    0    0  501 -0.00000000000E+00  0.00000000000E+00  0.45412047934E+02  0.45412047934E+02  0.00000000000E+00 0.  1.
          2   -1    0    0  501    0  0.00000000000E+00 -0.00000000000E+00 -0.19973450152E+04  0.19973450152E+04  0.00000000000E+00 0. -1.
          5    1    1    2  502    0 -0.12065231521E+03  0.18977513749E+03 -0.46338919308E+03  0.51509086638E+03  0.41800000000E+01 0.  1.
         -5    1    1    2    0  502 -0.57708487433E+02  0.56282176255E+01 -0.23604083512E+03  0.24309400363E+03  0.41800000000E+01 0.  1.
        -11    1    1    2    0    0  0.16468294510E+03 -0.12667498198E+03 -0.10479878626E+04  0.10683845673E+04  0.00000000000E+00 0.  1.
         11    1    1    2    0    0  0.13677857542E+02 -0.68728373129E+02 -0.20451507648E+03  0.21618762584E+03  0.00000000000E+00 0. -1.
</event>
<event>
 6    1  0.4988969E-006  0.1206247E+03  0.7561462E-02  0.1242070E+00
         -2   -1    0    0    0  501 -0.00000000000E+00  0.00000000000E+00  0.23901410030E+03  0.23901410030E+03  0.00000000000E+00 0.  1.
          2   -1    0    0  501    0  0.00000000000E+00 -0.00000000000E+00 -0.66782831640E+02  0.66782831640E+02  0.00000000000E+00 0. -1.
          5    1    1    2  502    0  0.19135365913E+02  0.52320644451E+02  0.78962024617E+02  0.96726861812E+02  0.41800000000E+01 0. -1.
         -5    1    1    2    0  502  0.38406805142E+02 -0.66718235366E+02  0.46031927021E+02  0.89793186361E+02  0.41800000000E+01 0. -1.
        -11    1    1    2    0    0 -0.79484167789E+02 -0.40966305954E+01  0.42388246077E+02  0.90173603216E+02  0.00000000000E+00 0.  1.
         11    1    1    2    0    0  0.21941996734E+02  0.18494221510E+02  0.48490709465E+01  0.29103280554E+02  0.00000000000E+00 0. -1.
</event>
<event>
 6    1  0.4988969E-006  0.5505068E+02  0.7561462E-02  0.1419859E+00
          2   -1    0    0  501    0  0.00000000000E+00  0.00000000000E+00  0.19641397731E+02  0.19641397731E+02  0.00000000000E+00 0. -1.
         -2   -1    0    0    0  501 -0.00000000000E+00 -0.00000000000E+00 -0.85719771344E+03  0.85719771344E+03  0.00000000000E+00 0.  1.
          5    1    1    2  502    0 -0.36233044580E+01  0.22391517034E+02 -0.18240723643E+02  0.29405862839E+02  0.41800000000E+01 0.  1.
         -5    1    1    2    0  502 -0.45968551080E+01 -0.10192582828E+02 -0.67994629104E+03  0.68005106493E+03  0.41800000000E+01 0.  1.
        -11    1    1    2    0    0 -0.32903866971E+02 -0.70947782217E+01 -0.11383528703E+03  0.11870750992E+03  0.00000000000E+00 0.  1.
         11    1    1    2    0    0  0.41124026537E+02 -0.51041559847E+01 -0.25534014000E+02  0.48674673475E+02  0.00000000000E+00 0. -1.
</event>
<event>
 6    1  0.4988969E-006  0.9372432E+02  0.7561462E-02  0.1294075E+00
         -2   -1    0    0    0  501 -0.00000000000E+00  0.00000000000E+00  0.31466495095E+02  0.31466495095E+02  0.00000000000E+00 0.  1.
          2   -1    0    0  501    0  0.00000000000E+00 -0.00000000000E+00 -0.55807050706E+03  0.55807050706E+03  0.00000000000E+00 0. -1.
          5    1    1    2  502    0  0.23798709393E+02  0.63528998014E+02 -0.23107831906E+03  0.24086712955E+03  0.41800000000E+01 0. -1.
         -5    1    1    2    0  502  0.18779365114E+02 -0.19255645290E+02  0.19747388386E+01  0.27291325052E+02  0.41800000000E+01 0. -1.
        -11    1    1    2    0    0 -0.58428719845E+02 -0.17234498402E+02 -0.27770583788E+03  0.28430876812E+03  0.00000000000E+00 0. -1.
         11    1    1    2    0    0  0.15850645338E+02 -0.27038854322E+02 -0.19794593854E+02  0.37069779423E+02  0.00000000000E+00 0.  1.
</event>
<event>
 6    1  0.4988969E-006  0.3225000E+03  0.7561462E-02  0.1074504E+00
          2   -1    0    0  501    0  0.00000000000E+00  0.00000000000E+00  0.10601483155E+04  0.10601483155E+04  0.00000000000E+00 0. -1.
         -2   -1    0    0    0  501 -0.00000000000E+00 -0.00000000000E+00 -0.35863074280E+03  0.35863074280E+03  0.00000000000E+00 0.  1.
          5    1    1    2  502    0  0.31662656271E+02  0.10751628381E+03 -0.10233554254E+02  0.11262536624E+03  0.41800000000E+01 0. -1.
         -5    1    1    2    0  502 -0.26183147028E+03 -0.13095109720E+03 -0.20436488032E+03  0.35705235666E+03  0.41800000000E+01 0.  1.
        -11    1    1    2    0    0  0.17259983619E+03 -0.11046424470E+02  0.75524358965E+03  0.77479391237E+03  0.00000000000E+00 0. -1.
         11    1    1    2    0    0  0.57568977827E+02  0.34481237853E+02  0.16087241763E+03  0.17430742304E+03  0.00000000000E+00 0.  1.
</event>
<event>
 6    1  0.4988969E-006  0.1653889E+03  0.7561462E-02  0.1182744E+00
         -1   -1    0    0    0  501 -0.00000000000E+00  0.00000000000E+00  0.20198473316E+03  0.20198473316E+03  0.00000000000E+00 0.  1.
          1   -1    0    0  501    0  0.00000000000E+00 -0.00000000000E+00 -0.18822396138E+03  0.18822396138E+03  0.00000000000E+00 0. -1.
          5    1    1    2  502    0 -0.63952229284E+02 -0.42178386815E+02  0.32453449054E+02  0.83304277803E+02  0.41800000000E+01 0. -1.
         -5    1    1    2    0  502  0.52897803590E+02 -0.98236899581E+02  0.48774018005E+02  0.12184023677E+03  0.41800000000E+01 0. -1.
        -11    1    1    2    0    0 -0.63273705837E+01  0.36654373491E+02 -0.70612515828E+02  0.79810438578E+02  0.00000000000E+00 0. -1.
         11    1    1    2    0    0  0.17381796278E+02  0.10376091291E+03  0.31458205543E+01  0.10525374139E+03  0.00000000000E+00 0.  1.
</event>
<event>
 6    1  0.4988969E-006  0.1710655E+03  0.7561462E-02  0.1176741E+00
          2   -1    0    0  501    0  0.00000000000E+00  0.00000000000E+00  0.43450075718E+02  0.43450075718E+02  0.00000000000E+00 0. -1.
         -2   -1    0    0    0  501 -0.00000000000E+00 -0.00000000000E+00 -0.85510025740E+03  0.85510025740E+03  0.00000000000E+00 0.  1.
          5    1    1    2  502    0  0.82098023992E+02  0.73375784673E+02 -0.45459518254E+03  0.46775885209E+03  0.41800000000E+01 0. -1.
         -5    1    1    2    0  502  0.53802456884E+02 -0.43306543536E+02 -0.15114456102E+03  0.16622969592E+03  0.41800000000E+01 0. -1.
        -11    1    1    2    0    0 -0.11005921307E+03  0.14721011580E+02 -0.16372313606E+03  0.19782569056E+03  0.00000000000E+00 0. -1.
         11    1    1    2    0    0 -0.25841267801E+02 -0.44790252717E+02 -0.42187302059E+02  0.66736094545E+02  0.00000000000E+00 0.  1.
</event>
<event>
 6    1  0.4988969E-006  0.1069583E+03  0.7561462E-02  0.1266309E+00
          2   -1    0    0  501    0  0.00000000000E+00  0.00000000000E+00  0.41642320548E+02  0.41642320548E+02  0.00000000000E+00 0.  1.
         -2   -1    0    0    0  501 -0.00000000000E+00 -0.00000000000E+00 -0.31640616829E+03  0.31640616829E+03  0.00000000000E+00 0. -1.
          5    1    1    2  502    0  0.59959634398E+01  0.58479742210E+02 -0.58722397606E+02  0.83196299239E+02  0.41800000000E+01 0.  1.
         -5    1    1    2    0  502  0.11580268422E+02 -0.59431397222E+02 -0.13574675527E+03  0.14869716728E+03  0.41800000000E+01 0.  1.
        -11    1    1    2    0    0 -0.73396181546E+01  0.46769155003E+02 -0.55883351005E+02  0.73240513201E+02  0.00000000000E+00 0. -1.
         11    1    1    2    0    0 -0.10236613707E+02 -0.45817499990E+02 -0.24411343862E+02  0.52914509113E+02  0.00000000000E+00 0.  1.
</event>
<event>
 6    1  0.4988969E-006  0.2527649E+03  0.7561462E-02  0.1111570E+00
         -3   -1    0    0    0  501 -0.00000000000E+00  0.00000000000E+00  0.52705400506E+03  0.52705400506E+03  0.00000000000E+00 0.  1.
          3   -1    0    0  501    0  0.00000000000E+00 -0.00000000000E+00 -0.13620356853E+03  0.13620356853E+03  0.00000000000E+00 0. -1.
          5    1    1    2  502    0 -0.65804952163E+02 -0.39096188335E+02  0.34544725988E+02  0.84080997646E+02  0.41800000000E+01 0. -1.
         -5    1    1    2    0  502 -0.36385780707E+02 -0.17262512454E+03  0.24577241654E+03  0.30256389704E+03  0.41800000000E+01 0. -1.
        -11    1    1    2    0    0  0.10369857804E+03  0.11185824238E+03  0.79634429211E+02  0.17206773025E+03  0.00000000000E+00 0. -1.
         11    1    1    2    0    0 -0.15078451711E+01  0.99863070496E+02  0.30898864787E+02  0.10454494866E+03  0.00000000000E+00 0.  1.
</event>
<event>
 6    1  0.4988969E-006  0.9535678E+02  0.7561462E-02  0.1290375E+00
         -2   -1    0    0    0  501 -0.00000000000E+00  0.00000000000E+00  0.12866170309E+02  0.12866170309E+02  0.00000000000E+00 0.  1.
          2   -1    0    0  501    0  0.00000000000E+00 -0.00000000000E+00 -0.93871068208E+03  0.93871068208E+03  0.00000000000E+00 0. -1.
          5    1    1    2  502    0  0.13778067025E+01  0.25282408326E+02 -0.34279375843E+03  0.34375300979E+03  0.41800000000E+01 0. -1.
         -5    1    1    2    0  502 -0.31559688265E+02 -0.58562385267E+02 -0.16383246931E+03  0.17687316725E+03  0.41800000000E+01 0.  1.
        -11    1    1    2    0    0  0.43773546432E+02 -0.16509572571E+02 -0.23651244722E+03  0.24109505811E+03  0.00000000000E+00 0. -1.
         11    1    1    2    0    0 -0.13591664869E+02  0.49789549513E+02 -0.18270583681E+03  0.18985561724E+03  0.00000000000E+00 0.  1.
</event>
<event>
 6    1  0.4988969E-006  0.1087044E+03  0.7561462E-02  0.1262988E+00
          4   -1    0    0  501    0  0.00000000000E+00  0.00000000000E+00  0.35526082697E+03  0.35526082697E+03  0.00000000000E+00 0. -1.
         -4   -1    0    0    0  501 -0.00000000000E+00 -0.00000000000E+00 -0.37447275974E+02  0.37447275974E+02  0.00000000000E+00 0.  1.
          5    1    1    2  502    0  0.11573814543E+02  0.69062036520E+02  0.16927162309E+03  0.18323174631E+03  0.41800000000E+01 0.  1.
         -5    1    1    2    0  502 -0.12440639475E+02 -0.48677429007E+02  0.56815090333E+02  0.75958465590E+02  0.41800000000E+01 0.  1.
        -11    1    1    2    0    0 -0.31521380642E+02 -0.45851973675E+02  0.56676916819E+02  0.79424642446E+02  0.00000000000E+00 0. -1.
         11    1    1    2    0    0  0.32388205573E+02  0.25467366162E+02  0.35049920756E+02  0.54093248604E+02  0.00000000000E+00 0.  1.
</event>
<event>
 6    1  0.4988969E-006  0.1051316E+03  0.7561462E-02  0.1269861E+00
          2   -1    0    0  501    0  0.00000000000E+00  0.00000000000E+00  0.28259359608E+02  0.28259359608E+02  0.00000000000E+00 0. -1.
         -2   -1    0    0    0  501 -0.00000000000E+00 -0.00000000000E+00 -0.51598357831E+03  0.51598357831E+03  0.00000000000E+00 0.  1.
          5    1    1    2  502    0 -0.15078452562E+02  0.48651268726E+02 -0.17141229983E+03  0.17886854003E+03  0.41800000000E+01 0. -1.
         -5    1    1    2    0  502  0.16625342046E+02 -0.73781268571E+02 -0.20120087541E+03  0.21498684205E+03  0.41800000000E+01 0. -1.
        -11    1    1    2    0    0  0.38572890865E+02  0.62696185407E+01 -0.16788153176E+02  0.42532553572E+02  0.00000000000E+00 0.  1.
         11    1    1    2    0    0 -0.40119780348E+02  0.18860381305E+02 -0.98322890282E+02  0.10785500226E+03  0.00000000000E+00 0. -1.
</event>
<event>
 6    1  0.4988969E-006  0.8127943E+02  0.7561462E-02  0.1325459E+00
          1   -1    0    0  501    0  0.00000000000E+00  0.00000000000E+00  0.36195600771E+02  0.36195600771E+02  0.00000000000E+00 0. -1.
         -1   -1    0    0    0  501 -0.00000000000E+00 -0.00000000000E+00 -0.45387273437E+03  0.45387273437E+03  0.00000000000E+00 0.  1.
          5    1    1    2  502    0  0.91123644249E+01 -0.59747045498E+01 -0.23671709342E+03  0.23700461387E+03  0.41800000000E+01 0. -1.
         -5    1    1    2    0  502 -0.68377046855E+02  0.11885532645E+02 -0.65800659229E+02  0.95728185911E+02  0.41800000000E+01 0. -1.
        -11    1    1    2    0    0  0.47925596871E+02  0.20873858957E+02 -0.17017539212E+02  0.54974334594E+02  0.00000000000E+00 0. -1.
         11    1    1    2    0    0  0.11339085559E+02 -0.26784687052E+02 -0.98141841734E+02  0.10236120076E+03  0.00000000000E+00 0.  1.
</event>
<event>
 6    1  0.4988969E-006  0.9203219E+02  0.7561462E-02  0.1298004E+00
          4   -1    0    0  501    0  0.00000000000E+00  0.00000000000E+00  0.53683474491E+02  0.53683474491E+02  0.00000000000E+00 0. -1.
         -4   -1    0    0    0  501 -0.00000000000E+00 -0.00000000000E+00 -0.39225460734E+03  0.39225460734E+03  0.00000000000E+00 0.  1.
          5    1    1    2  502    0  0.19688183947E+02  0.62767956175E+01 -0.22810023684E+03  0.22907250642E+03  0.41800000000E+01 0.  1.
         -5    1    1    2    0  502 -0.14576414768E+01  0.34051752540E+02  0.54359728488E+00  0.34342604266E+02  0.41800000000E+01 0.  1.
        -11    1    1    2    0    0  0.44976129233E+02  0.12040750377E+02 -0.27248293578E+01  0.46639645855E+02  0.00000000000E+00 0. -1.
         11    1    1    2    0    0 -0.63206671703E+02 -0.52369298535E+02 -0.10828966393E+03  0.13588332529E+03  0.00000000000E+00 0.  1.
</event>
<event>
 6    1  0.4988969E-006  0.2396409E+03  0.7561462E-02  0.1120032E+00
         -2   -1    0    0    0  501 -0.00000000000E+00  0.00000000000E+00  0.73601968551E+02  0.73601968551E+02  0.00000000000E+00 0.  1.
          2   -1    0    0  501    0  0.00000000000E+00 -0.00000000000E+00 -0.12874239412E+04  0.12874239412E+04  0.00000000000E+00 0. -1.
          5    1    1    2  502    0  0.12249905658E+03  0.11436412691E+03 -0.11612305768E+03  0.20392942238E+03  0.41800000000E+01 0. -1.
         -5    1    1    2    0  502 -0.22334308174E+02  0.76903770817E+02 -0.81934941431E+02  0.11464649282E+03  0.41800000000E+01 0. -1.
        -11    1    1    2    0    0 -0.96170006152E+02 -0.95263215580E+02 -0.51123277564E+03  0.52885035805E+03  0.00000000000E+00 0. -1.
         11    1    1    2    0    0 -0.39947422577E+01 -0.96004682147E+02 -0.50453119791E+03  0.51359963651E+03  0.00000000000E+00 0.  1.
</event>
<event>
 6    1  0.4988969E-006  0.1294460E+03  0.7561462E-02  0.1228280E+00
         -3   -1    0    0    0  501 -0.00000000000E+00  0.00000000000E+00  0.44585985627E+02  0.44585985627E+02  0.00000000000E+00 0.  1.
          3   -1    0    0  501    0  0.00000000000E+00 -0.00000000000E+00 -0.52379860612E+03  0.52379860612E+03  0.00000000000E+00 0. -1.
          5    1    1    2  502    0  0.64835482365E+02 -0.85215343497E+01 -0.46793551147E+02  0.80519346433E+02  0.41800000000E+01 0.  1.
         -5    1    1    2    0  502  0.25767096715E+02  0.64081691825E+02 -0.24162557504E+03  0.25133801426E+03  0.41800000000E+01 0.  1.
        -11    1    1    2    0    0 -0.33756393376E+02 -0.58180739455E+02 -0.47493588186E+02  0.82341565786E+02  0.00000000000E+00 0. -1.
         11    1    1    2    0    0 -0.56846185703E+02  0.26205819801E+01 -0.14329990612E+03  0.15418566526E+03  0.00000000000E+00 0.  1.
</event>
<event>
 6    1  0.4988969E-006  0.1414552E+03  0.7561462E-02  0.1211384E+00
          2   -1    0    0  501    0  0.00000000000E+00  0.00000000000E+00  0.79890183358E+03  0.79890183358E+03  0.00000000000E+00 0. -1.
         -2   -1    0    0    0  501 -0.00000000000E+00 -0.00000000000E+00 -0.73173805767E+02  0.73173805767E+02  0.00000000000E+00 0.  1.
          5    1    1    2  502    0 -0.48634675968E+02  0.57505387465E+02  0.53193871965E+03  0.53726015594E+03  0.41800000000E+01 0. -1.
         -5    1    1    2    0  502  0.66267448658E+02 -0.95990206361E+02  0.64360460830E-01  0.11671748374E+03  0.41800000000E+01 0.  1.
        -11    1    1    2    0    0 -0.21950273169E+02  0.62562454691E+02  0.17546219255E+03  0.18757093657E+03  0.00000000000E+00 0. -1.
         11    1    1    2    0    0  0.43175004788E+01 -0.24077635795E+02  0.18262755147E+02  0.30527063099E+02  0.00000000000E+00 0.  1.
</event>
<event>
 6    1  0.4988969E-006  0.1386359E+03  0.7561462E-02  0.1215176E+00
         -2   -1    0    0    0  501 -0.00000000000E+00  0.00000000000E+00  0.76771892111E+02  0.76771892111E+02  0.00000000000E+00 0.  1.
          2   -1    0    0  501    0  0.00000000000E+00 -0.00000000000E+00 -0.31405679947E+03  0.31405679947E+03  0.00000000000E+00 0. -1.
          5    1    1    2  502    0  0.16572104123E+02  0.28340888439E+02 -0.19838781871E+02  0.38586140760E+02  0.41800000000E+01 0. -1.
         -5    1    1    2    0  502 -0.20765536898E+02 -0.11583770286E+03 -0.22537085777E+02  0.11989567782E+03  0.41800000000E+01 0. -1.
        -11    1    1    2    0    0 -0.42570189679E+02  0.54638258583E+02 -0.11020948894E+03  0.13016793692E+03  0.00000000000E+00 0.  1.
         11    1    1    2    0    0  0.46763622454E+02  0.32858555833E+02 -0.84699550771E+02  0.10217893607E+03  0.00000000000E+00 0. -1.
</event>
<event>
 6    1  0.4988969E-006  0.8876009E+02  0.7561462E-02  0.1305882E+00
         -2   -1    0    0    0  501 -0.00000000000E+00  0.00000000000E+00  0.31599637283E+02  0.31599637283E+02  0.00000000000E+00 0.  1.
          2   -1    0    0  501    0  0.00000000000E+00 -0.00000000000E+00 -0.44433751547E+03  0.44433751547E+03  0.00000000000E+00 0. -1.
          5    1    1    2  502    0  0.44833698678E+02  0.21955463276E+02 -0.16848131518E+03  0.17577124016E+03  0.41800000000E+01 0.  1.
         -5    1    1    2    0  502 -0.39196561634E+02  0.98634772758E+01 -0.56067423176E+01  0.41019100274E+02  0.41800000000E+01 0.  1.
        -11    1    1    2    0    0 -0.34317526311E+02 -0.43855546177E+02 -0.20857525163E+03  0.21588107174E+03  0.00000000000E+00 0. -1.
         11    1    1    2    0    0  0.28680389266E+02  0.12036605624E+02 -0.30074569068E+02  0.43265740581E+02  0.00000000000E+00 0.  1.
</event>
<event>
 6    1  0.8060916E-006  0.4393418E+03  0.7561462E-02  0.1030949E+00
          1   -1    0    0  501    0  0.00000000000E+00  0.00000000000E+00  0.13967403930E+04  0.13967403930E+04  0.00000000000E+00 0. -1.
         -1   -1    0    0    0  501 -0.00000000000E+00 -0.00000000000E+00 -0.16605293456E+03  0.16605293456E+03  0.00000000000E+00 0.  1.
          5    1    1    2  502    0  0.15765668343E+02 -0.15535628625E+02  0.61588407581E+02  0.65578322664E+02  0.41800000000E+01 0. -1.
         -5    1    1    2    0  502  0.11206268452E+03 -0.39985437575E+03  0.27270813109E+03  0.49681864320E+03  0.41800000000E+01 0. -1.
        -11    1    1    2    0    0 -0.12150345730E+03  0.27862716908E+03  0.67176043611E+03  0.73733186084E+03  0.00000000000E+00 0.  1.
         11    1    1    2    0    0 -0.63248955658E+01  0.13676283529E+03  0.22463048361E+03  0.26306450081E+03  0.00000000000E+00 0. -1.
</event>
<event>
 6    1  0.4988969E-006  0.1352795E+03  0.7561462E-02  0.1219826E+00
          1   -1    0    0  501    0  0.00000000000E+00  0.00000000000E+00  0.22826432316E+03  0.22826432316E+03  0.00000000000E+00 0. -1.
         -1   -1    0    0    0  501 -0.00000000000E+00 -0.00000000000E+00 -0.10200223625E+03  0.10200223625E+03  0.00000000000E+00 0.  1.
          5    1    1    2  502    0 -0.34973212556E+02  0.47116929712E+02  0.23939477011E+02  0.63511429062E+02  0.41800000000E+01 0.  1.
         -5    1    1    2    0  502  0.77813764552E+02  0.15120830331E+01 -0.76622420328E+01  0.78316350156E+02  0.41800000000E+01 0.  1.
        -11    1    1    2    0    0  0.22133286089E+02  0.26458397427E+02 -0.67870561219E+01  0.35156696067E+02  0.00000000000E+00 0.  1.
         11    1    1    2    0    0 -0.64973838085E+02 -0.75087410172E+02  0.11677190805E+03  0.15328208412E+03  0.00000000000E+00 0. -1.
</event>
<event>
 6    1  0.4988969E-006  0.1280634E+03  0.7561462E-02  0.1230358E+00
         -2   -1    0    0    0  501 -0.00000000000E+00  0.00000000000E+00  0.16707968462E+03  0.16707968462E+03  0.00000000000E+00 0. -1.
          2   -1    0    0  501    0  0.00000000000E+00 -0.00000000000E+00 -0.15065239235E+03  0.15065239235E+03  0.00000000000E+00 0.  1.
          5    1    1    2  502    0 -0.57914419715E+01  0.28156211270E+02  0.47774861942E+02  0.55912636020E+02  0.41800000000E+01 0.  1.
         -5    1    1    2    0  502  0.10899648517E+03  0.22443092136E+02 -0.28783670103E+02  0.11502129468E+03  0.41800000000E+01 0.  1.
        -11    1    1    2    0    0 -0.68685425242E+02 -0.26512075549E+02  0.42599506553E+02  0.85060541670E+02  0.00000000000E+00 0. -1.
         11    1    1    2    0    0 -0.34519617958E+02 -0.24087227856E+02 -0.45163406116E+02  0.61737604600E+02  0.00000000000E+00 0.  1.
</event>
<event>
 6    1  0.4988969E-006  0.1256272E+03  0.7561462E-02  0.1234092E+00
          1   -1    0    0  501    0  0.00000000000E+00  0.00000000000E+00  0.25353179334E+03  0.25353179334E+03  0.00000000000E+00 0. -1.
         -1   -1    0    0    0  501 -0.00000000000E+00 -0.00000000000E+00 -0.64403711350E+02  0.64403711350E+02  0.00000000000E+00 0.  1.
          5    1    1    2  502    0 -0.72644710358E+02  0.40411253491E+02  0.79842603909E+02  0.11533705888E+03  0.41800000000E+01 0. -1.
         -5    1    1    2    0  502  0.50664736137E+02  0.24352576813E+02  0.25192288624E+02  0.61742103069E+02  0.41800000000E+01 0. -1.
        -11    1    1    2    0    0  0.55866969509E+02 -0.31349052480E+02  0.58828696227E+02  0.86975265871E+02  0.00000000000E+00 0. -1.
         11    1    1    2    0    0 -0.33886995287E+02 -0.33414777824E+02  0.25264493228E+02  0.53881076870E+02  0.00000000000E+00 0.  1.
</event>
<event>
 6    1  0.4988969E-006  0.2212282E+03  0.7561462E-02  0.1132971E+00
          1   -1    0    0  501    0  0.00000000000E+00  0.00000000000E+00  0.42566539253E+03  0.42566539253E+03  0.00000000000E+00 0. -1.
         -1   -1    0    0    0  501 -0.00000000000E+00 -0.00000000000E+00 -0.15234043179E+03  0.15234043179E+03  0.00000000000E+00 0.  1.
          5    1    1    2  502    0 -0.59769811428E+02 -0.21901405310E+02 -0.13745839488E+02  0.65257355263E+02  0.41800000000E+01 0.  1.
         -5    1    1    2    0  502 -0.15236536732E+03 -0.37535204238E+02  0.17481034968E+03  0.23494728658E+03  0.41800000000E+01 0.  1.
        -11    1    1    2    0    0  0.15972228482E+03  0.55641784287E+02  0.18273659555E+02  0.17012096596E+03  0.00000000000E+00 0.  1.
         11    1    1    2    0    0  0.52412893930E+02  0.37948252613E+01  0.93986790985E+02  0.10768021651E+03  0.00000000000E+00 0. -1.
</event>
<event>
 6    1  0.4988969E-006  0.1159661E+03  0.7561462E-02  0.1249904E+00
         -2   -1    0    0    0  501 -0.00000000000E+00  0.00000000000E+00  0.51269026802E+02  0.51269026802E+02  0.00000000000E+00 0.  1.
          2   -1    0    0  501    0  0.00000000000E+00 -0.00000000000E+00 -0.34109483329E+03  0.34109483329E+03  0.00000000000E+00 0. -1.
          5    1    1    2  502    0 -0.44658674891E+02 -0.41219105845E+02 -0.13911422911E+02  0.62485294407E+02  0.41800000000E+01 0.  1.
         -5    1    1    2    0  502  0.68572629377E+02 -0.12406213366E+02 -0.71769974354E+02  0.10012253117E+03  0.41800000000E+01 0.  1.
        -11    1    1    2    0    0 -0.25788059141E+02 -0.16784521320E+02 -0.35408965936E+02  0.46909903207E+02  0.00000000000E+00 0.  1.
         11    1    1    2    0    0  0.18741046554E+01  0.70409840531E+02 -0.16873544329E+03  0.18284613131E+03  0.00000000000E+00 0. -1.
</event>
<event>
 6    1  0.4988969E-006  0.1476415E+03  0.7561462E-02  0.1203401E+00
         -2   -1    0    0    0  501 -0.00000000000E+00  0.00000000000E+00  0.21567182860E+02  0.21567182860E+02  0.00000000000E+00 0.  1.
          2   -1    0    0  501    0  0.00000000000E+00 -0.00000000000E+00 -0.13301093671E+04  0.13301093671E+04  0.00000000000E+00 0. -1.
          5    1    1    2  502    0  0.27094039260E+02 -0.29364500537E+02 -0.46140603003E+03  0.46315154949E+03  0.41800000000E+01 0.  1.
         -5    1    1    2    0  502 -0.28919502042E+02 -0.99664489836E+02 -0.25247632053E+03  0.27300386987E+03  0.41800000000E+01 0.  1.
        -11    1    1    2    0    0  0.39084844036E+02  0.46800698071E+02 -0.33779624375E+03  0.34325534616E+03  0.00000000000E+00 0.  1.
         11    1    1    2    0    0 -0.37259381254E+02  0.82228292301E+02 -0.25686358995E+03  0.27226578446E+03  0.00000000000E+00 0. -1.
</event>
<event>
 6    1  0.4988969E-006  0.1043706E+03  0.7561462E-02  0.1271365E+00
          1   -1    0    0  501    0  0.00000000000E+00  0.00000000000E+00  0.11110478565E+03  0.11110478565E+03  0.00000000000E+00 0. -1.
         -1   -1    0    0    0  501 -0.00000000000E+00 -0.00000000000E+00 -0.30392797776E+03  0.30392797776E+03  0.00000000000E+00 0.  1.
          5    1    1    2  502    0 -0.26594691626E+02  0.78181010615E+02 -0.80821745805E+02  0.11562514881E+03  0.41800000000E+01 0. -1.
         -5    1    1    2    0  502  0.20900711761E+02 -0.13400140359E+02 -0.17214773967E+03  0.17397907974E+03  0.41800000000E+01 0. -1.
        -11    1    1    2    0    0 -0.21724467793E+02  0.79634527323E+01 -0.53813955994E+01  0.23755599317E+02  0.00000000000E+00 0.  1.
         11    1    1    2    0    0  0.27418447658E+02 -0.72744322988E+02  0.65527688963E+02  0.10167293553E+03  0.00000000000E+00 0. -1.
</event>
<event>
 6    1  0.4988969E-006  0.1177809E+03  0.7561462E-02  0.1246803E+00
         -2   -1    0    0    0  501 -0.00000000000E+00  0.00000000000E+00  0.11577160054E+03  0.11577160054E+03  0.00000000000E+00 0.  1.
          2   -1    0    0  501    0  0.00000000000E+00 -0.00000000000E+00 -0.22968959676E+03  0.22968959676E+03  0.00000000000E+00 0. -1.
          5    1    1    2  502    0  0.67411561492E+02 -0.13950942205E+02 -0.84239822994E+02  0.10887041650E+03  0.41800000000E+01 0. -1.
         -5    1    1    2    0  502 -0.77891258115E+02  0.23989683836E+01  0.66863411430E+02  0.10276668394E+03  0.41800000000E+01 0.  1.
        -11    1    1    2    0    0  0.43308244404E+02  0.28265990150E+02 -0.36202282522E+02  0.63128246390E+02  0.00000000000E+00 0. -1.
         11    1    1    2    0    0 -0.32828547780E+02 -0.16714016329E+02 -0.60339302133E+02  0.70695850466E+02  0.00000000000E+00 0.  1.
</event>
<event>
 6    1  0.4988969E-006  0.1014703E+03  0.7561462E-02  0.1277234E+00
         -1   -1    0    0    0  501 -0.00000000000E+00  0.00000000000E+00  0.58683539691E+03  0.58683539691E+03  0.00000000000E+00 0.  1.
          1   -1    0    0  501    0  0.00000000000E+00 -0.00000000000E+00 -0.26841623036E+02  0.26841623036E+02  0.00000000000E+00 0. -1.
          5    1    1    2  502    0  0.26026685532E+02 -0.60748504737E+02  0.10366328797E+03  0.12300942590E+03  0.41800000000E+01 0. -1.
         -5    1    1    2    0  502  0.16450639926E+02  0.43741839857E+02  0.29827191300E+03  0.30193969364E+03  0.41800000000E+01 0.  1.
        -11    1    1    2    0    0  0.72962862094E+01 -0.24141443852E+02  0.98767115311E+01  0.27084950330E+02  0.00000000000E+00 0. -1.
         11    1    1    2    0    0 -0.49773611668E+02  0.41148108732E+02  0.14818186137E+03  0.16164295008E+03  0.00000000000E+00 0.  1.
</event>
<event>
 6    1  0.4988969E-006  0.1160724E+03  0.7561462E-02  0.1249721E+00
          2   -1    0    0  501    0  0.00000000000E+00  0.00000000000E+00  0.60965562170E+03  0.60965562170E+03  0.00000000000E+00 0.  1.
         -2   -1    0    0    0  501 -0.00000000000E+00 -0.00000000000E+00 -0.36714694293E+02  0.36714694293E+02  0.00000000000E+00 0. -1.
          5    1    1    2  502    0  0.66872568659E+02  0.14969154073E+02  0.20570379978E+03  0.21685834467E+03  0.41800000000E+01 0. -1.
         -5    1    1    2    0  502  0.69741528814E+01  0.36425298877E+02 -0.33614198723E+01  0.37472826825E+02  0.41800000000E+01 0. -1.
        -11    1    1    2    0    0 -0.27788416232E+02  0.24727022321E+02  0.82106898889E+02  0.90139694667E+02  0.00000000000E+00 0.  1.
         11    1    1    2    0    0 -0.46058305308E+02 -0.76121475271E+02  0.28849164861E+03  0.30189944983E+03  0.00000000000E+00 0. -1.
</event>
<event>
 6    1  0.4988969E-006  0.1121048E+03  0.7561462E-02  0.1256721E+00
          2   -1    0    0  501    0  0.00000000000E+00  0.00000000000E+00  0.27618153008E+03  0.27618153008E+03  0.00000000000E+00 0.  1.
         -2   -1    0    0    0  501 -0.00000000000E+00 -0.00000000000E+00 -0.54280317845E+02  0.54280317845E+02  0.00000000000E+00 0. -1.
          5    1    1    2  502    0 -0.21522831251E+01  0.45700868298E+02  0.67966693562E+02  0.82037464122E+02  0.41800000000E+01 0. -1.
         -5    1    1    2    0  502 -0.44805410684E+02 -0.61419061922E+02  0.20065930796E+02  0.78739697566E+02  0.41800000000E+01 0. -1.
        -11    1    1    2    0    0  0.53626411549E+02 -0.26198483933E+02  0.60901774564E+02  0.85271206871E+02  0.00000000000E+00 0. -1.
         11    1    1    2    0    0 -0.66687177399E+01  0.41916677558E+02  0.72966813313E+02  0.84413479367E+02  0.00000000000E+00 0.  1.
</event>
<event>
 6    1  0.4988969E-006  0.1224206E+03  0.7561462E-02  0.1239156E+00
         -2   -1    0    0    0  501 -0.00000000000E+00  0.00000000000E+00  0.15301789355E+03  0.15301789355E+03  0.00000000000E+00 0.  1.
          2   -1    0    0  501    0  0.00000000000E+00 -0.00000000000E+00 -0.14927229455E+03  0.14927229455E+03  0.00000000000E+00 0. -1.
          5    1    1    2  502    0 -0.46854286418E+02 -0.31691201089E+02 -0.55419474890E+02  0.79299728747E+02  0.41800000000E+01 0.  1.
         -5    1    1    2    0  502 -0.47960745655E+02 -0.99581983972E+01  0.67555317821E+02  0.83549938391E+02  0.41800000000E+01 0.  1.
        -11    1    1    2    0    0  0.54835792875E+02 -0.25761233372E+02 -0.76164198031E+01  0.61062387570E+02  0.00000000000E+00 0. -1.
         11    1    1    2    0    0  0.39979239198E+02  0.67410632858E+02 -0.77382412669E+00  0.78378133385E+02  0.00000000000E+00 0.  1.
</event>
<event>
 6    1  0.4988969E-006  0.8833607E+02  0.7561462E-02  0.1306932E+00
         -1   -1    0    0    0  501 -0.00000000000E+00  0.00000000000E+00  0.14657877490E+03  0.14657877490E+03  0.00000000000E+00 0.  1.
          1   -1    0    0  501    0  0.00000000000E+00 -0.00000000000E+00 -0.10075016219E+03  0.10075016219E+03  0.00000000000E+00 0. -1.
          5    1    1    2  502    0 -0.62715163588E+02 -0.30080636386E+02 -0.16504427906E+02  0.71609391632E+02  0.41800000000E+01 0. -1.
         -5    1    1    2    0  502  0.54710979121E+02 -0.17974245392E+02  0.24921933432E+02  0.62888312903E+02  0.41800000000E+01 0. -1.
        -11    1    1    2    0    0  0.23750712298E+01  0.34396182388E+02  0.69457230072E+02  0.77543827191E+02  0.00000000000E+00 0.  1.
         11    1    1    2    0    0  0.56291132373E+01  0.13658699390E+02 -0.32046122887E+02  0.35287405359E+02  0.00000000000E+00 0. -1.
</event>
<event>
 6    1  0.4988969E-006  0.2729362E+03  0.7561462E-02  0.1099611E+00
         -2   -1    0    0    0  501 -0.00000000000E+00  0.00000000000E+00  0.31992905537E+03  0.31992905537E+03  0.00000000000E+00 0. -1.
          2   -1    0    0  501    0  0.00000000000E+00 -0.00000000000E+00 -0.85931170910E+03  0.85931170910E+03  0.00000000000E+00 0.  1.
          5    1    1    2  502    0 -0.10495022276E+03  0.68135553809E+02  0.14403400880E+03  0.19084095745E+03  0.41800000000E+01 0.  1.
         -5    1    1    2    0  502 -0.14784845372E+03 -0.34385322468E+02  0.84786027592E+02  0.17391853997E+03  0.41800000000E+01 0.  1.
        -11    1    1    2    0    0  0.44580132919E+02  0.26753690523E+02 -0.18905623708E+03  0.19607500857E+03  0.00000000000E+00 0. -1.
         11    1    1    2    0    0  0.20821854356E+03 -0.60503921864E+02 -0.57914645304E+03  0.61840625847E+03  0.00000000000E+00 0.  1.
</event>
<event>
 6    1  0.4988969E-006  0.1752788E+03  0.7561462E-02  0.1172452E+00
         -2   -1    0    0    0  501 -0.00000000000E+00  0.00000000000E+00  0.39795308982E+02  0.39795308982E+02  0.00000000000E+00 0.  1.
          2   -1    0    0  501    0  0.00000000000E+00 -0.00000000000E+00 -0.94233982307E+03  0.94233982307E+03  0.00000000000E+00 0. -1.
          5    1    1    2  502    0  0.21723126430E+02 -0.12157616343E+03 -0.32906311682E+03  0.35150059031E+03  0.41800000000E+01 0. -1.
         -5    1    1    2    0  502  0.36064078817E+02 -0.26616332816E+02 -0.22609797057E+02  0.50375810430E+02  0.41800000000E+01 0.  1.
        -11    1    1    2    0    0 -0.65961793919E+02  0.15679295734E+03 -0.52297597782E+03  0.54994441820E+03  0.00000000000E+00 0.  1.
         11    1    1    2    0    0  0.81745886714E+01 -0.86004611018E+01 -0.27895622390E+02  0.30314313115E+02  0.00000000000E+00 0. -1.
</event>
<event>
 6    1  0.4988969E-006  0.1383594E+03  0.7561462E-02  0.1215554E+00
          1   -1    0    0  501    0  0.00000000000E+00  0.00000000000E+00  0.28540863513E+03  0.28540863513E+03  0.00000000000E+00 0. -1.
         -1   -1    0    0    0  501 -0.00000000000E+00 -0.00000000000E+00 -0.98866579232E+02  0.98866579232E+02  0.00000000000E+00 0.  1.
          5    1    1    2  502    0  0.30125719117E+02  0.12372224054E+02  0.19853907305E+02  0.38370312947E+02  0.41800000000E+01 0.  1.
         -5    1    1    2    0  502 -0.47923621788E+02 -0.10951168658E+03 -0.18371223235E+02  0.12101428538E+03  0.41800000000E+01 0.  1.
        -11    1    1    2    0    0 -0.34185848907E+01 -0.12315079673E+02  0.39641577699E+02  0.41650961483E+02  0.00000000000E+00 0. -1.
         11    1    1    2    0    0  0.21216487562E+02  0.10945454220E+03  0.14541779413E+03  0.18323965456E+03  0.00000000000E+00 0.  1.
</event>
<event>
 6    1  0.4988969E-006  0.1243910E+03  0.7561462E-02  0.1236024E+00
         -1   -1    0    0    0  501 -0.00000000000E+00  0.00000000000E+00  0.17708366408E+02  0.17708366408E+02  0.00000000000E+00 0.  1.
          1   -1    0    0  501    0  0.00000000000E+00 -0.00000000000E+00 -0.91468422603E+03  0.91468422603E+03  0.00000000000E+00 0. -1.
          5    1    1    2  502    0 -0.47423140650E+02 -0.59229892058E+01 -0.13525189490E+03  0.14350813059E+03  0.41800000000E+01 0. -1.
         -5    1    1    2    0  502  0.40785687606E+02  0.76489730947E+02 -0.26040278508E+03  0.27448357716E+03  0.41800000000E+01 0.  1.
        -11    1    1    2    0    0  0.45899232604E+02 -0.55375187777E+02 -0.27849554740E+03  0.28763330978E+03  0.00000000000E+00 0.  1.
         11    1    1    2    0    0 -0.39261779560E+02 -0.15191553964E+02 -0.22282563224E+03  0.22676757491E+03  0.00000000000E+00 0. -1.
</event>
<event>
 6    1  0.4988969E-006  0.8392268E+02  0.7561462E-02  0.1318274E+00
          2   -1    0    0  501    0  0.00000000000E+00  0.00000000000E+00  0.43265568408E+03  0.43265568408E+03  0.00000000000E+00 0. -1.
         -2   -1    0    0    0  501 -0.00000000000E+00 -0.00000000000E+00 -0.30988488772E+02  0.30988488772E+02  0.00000000000E+00 0.  1.
          5    1    1    2  502    0 -0.24814954964E+02 -0.15459538595E+02  0.18907641015E+03  0.19136912133E+03  0.41800000000E+01 0.  1.
         -5    1    1    2    0  502  0.68329826374E+00  0.41828082065E+02  0.50832283970E+01  0.42348163557E+02  0.41800000000E+01 0.  1.
        -11    1    1    2    0    0 -0.48366632774E+01  0.31333223564E+02  0.44856528755E+02  0.54929704009E+02  0.00000000000E+00 0. -1.
         11    1    1    2    0    0  0.28968319977E+02 -0.57701767034E+02  0.16265102801E+03  0.17499718396E+03  0.00000000000E+00 0.  1.
</event>
<event>
 6    1  0.4988969E-006  0.1277438E+03  0.7561462E-02  0.1230842E+00
          2   -1    0    0  501    0  0.00000000000E+00  0.00000000000E+00  0.36762536096E+03  0.36762536096E+03  0.00000000000E+00 0. -1.
         -2   -1    0    0    0  501 -0.00000000000E+00 -0.00000000000E+00 -0.54795194707E+02  0.54795194707E+02  0.00000000000E+00 0.  1.
          5    1    1    2  502    0  0.39861785547E+01  0.42221779895E+02  0.14460855126E+01  0.42639557693E+02  0.41800000000E+01 0.  1.
         -5    1    1    2    0  502 -0.88386783195E+02 -0.15786055536E+02  0.13696646074E+03  0.16382523237E+03  0.41800000000E+01 0.  1.
        -11    1    1    2    0    0  0.97364509686E+02 -0.39048304757E+02  0.16510376293E+03  0.19561152928E+03  0.00000000000E+00 0. -1.
         11    1    1    2    0    0 -0.12963905045E+02  0.12612580398E+02  0.93138570627E+01  0.20344236326E+02  0.00000000000E+00 0.  1.
</event>
<event>
 6    1  0.4988969E-006  0.1083276E+03  0.7561462E-02  0.1263699E+00
         -1   -1    0    0    0  501 -0.00000000000E+00  0.00000000000E+00  0.46779526108E+02  0.46779526108E+02  0.00000000000E+00 0.  1.
          1   -1    0    0  501    0  0.00000000000E+00 -0.00000000000E+00 -0.33428645805E+03  0.33428645805E+03  0.00000000000E+00 0. -1.
          5    1    1    2  502    0  0.29233224506E+01 -0.75137399145E+02 -0.74593302103E+02  0.10599909284E+03  0.41800000000E+01 0. -1.
         -5    1    1    2    0  502  0.30447565824E+01  0.44578942124E+02 -0.41803723778E+01  0.45072170313E+02  0.41800000000E+01 0. -1.
        -11    1    1    2    0    0 -0.42648996944E+02 -0.78402785231E+01 -0.99428313799E+02  0.10847302196E+03  0.00000000000E+00 0. -1.
         11    1    1    2    0    0  0.36680917911E+02  0.38398735545E+02 -0.10930494366E+03  0.12152169904E+03  0.00000000000E+00 0.  1.
</event>
<event>
 6    1  0.4988969E-006  0.7543504E+02  0.7561462E-02  0.1342529E+00
          1   -1    0    0  501    0  0.00000000000E+00  0.00000000000E+00  0.21692294691E+03  0.21692294691E+03  0.00000000000E+00 0. -1.
         -1   -1    0    0    0  501 -0.00000000000E+00 -0.00000000000E+00 -0.59226268306E+02  0.59226268306E+02  0.00000000000E+00 0.  1.
          5    1    1    2  502    0 -0.14602712454E+02 -0.19773294360E+01  0.85805166147E+02  0.87161619881E+02  0.41800000000E+01 0.  1.
         -5    1    1    2    0  502  0.41542435731E+02  0.18876079260E+02 -0.28511042203E+02  0.53966955281E+02  0.41800000000E+01 0.  1.
        -11    1    1    2    0    0 -0.23820970870E+02  0.32466599057E+02  0.37750548862E+02  0.55196219498E+02  0.00000000000E+00 0.  1.
         11    1    1    2    0    0 -0.31187524074E+01 -0.49365348881E+02  0.62652005802E+02  0.79824420560E+02  0.00000000000E+00 0. -1.
</event>
<event>
 6    1  0.4988969E-006  0.1040036E+03  0.7561462E-02  0.1272095E+00
          2   -1    0    0  501    0  0.00000000000E+00  0.00000000000E+00  0.13379700547E+03  0.13379700547E+03  0.00000000000E+00 0. -1.
         -2   -1    0    0    0  501 -0.00000000000E+00 -0.00000000000E+00 -0.13622749573E+03  0.13622749573E+03  0.00000000000E+00 0.  1.
          5    1    1    2  502    0 -0.72310092919E+02 -0.96732418245E+01  0.20554814472E+02  0.75909775018E+02  0.41800000000E+01 0.  1.
         -5    1    1    2    0  502  0.62451576877E+01  0.24318013261E+02 -0.70294663186E+02  0.74760817518E+02  0.41800000000E+01 0.  1.
        -11    1    1    2    0    0 -0.83969261116E+01  0.24114754267E+02  0.13178094811E+02  0.28734855565E+02  0.00000000000E+00 0. -1.
         11    1    1    2    0    0  0.74461861343E+02 -0.38759525703E+02  0.34131263638E+02  0.90619053101E+02  0.00000000000E+00 0.  1.
</event>
<event>
 6    1  0.4988969E-006  0.1104996E+03  0.7561462E-02  0.1259647E+00
          1   -1    0    0  501    0  0.00000000000E+00  0.00000000000E+00  0.10278826816E+03  0.10278826816E+03  0.00000000000E+00 0. -1.
         -1   -1    0    0    0  501 -0.00000000000E+00 -0.00000000000E+00 -0.13183433273E+03  0.13183433273E+03  0.00000000000E+00 0.  1.
          5    1    1    2  502    0  0.46171439742E+02 -0.40566015819E+02  0.18585221242E+02  0.64345056810E+02  0.41800000000E+01 0.  1.
         -5    1    1    2    0  502 -0.61954813943E+02 -0.22650675225E+01 -0.30854604660E+02  0.69375849763E+02  0.41800000000E+01 0.  1.
        -11    1    1    2    0    0  0.50087973719E+02  0.12874034735E+02  0.17215343446E+01  0.51744657329E+02  0.00000000000E+00 0.  1.
         11    1    1    2    0    0 -0.34304599518E+02  0.29957048607E+02 -0.18498215489E+02  0.49157036990E+02  0.00000000000E+00 0. -1.
</event>
<event>
 6    1  0.4988969E-006  0.1024785E+03  0.7561462E-02  0.1275169E+00
          2   -1    0    0  501    0  0.00000000000E+00  0.00000000000E+00  0.32178645351E+03  0.32178645351E+03  0.00000000000E+00 0. -1.
         -2   -1    0    0    0  501 -0.00000000000E+00 -0.00000000000E+00 -0.57479686486E+02  0.57479686486E+02  0.00000000000E+00 0.  1.
          5    1    1    2  502    0 -0.81172310994E+02 -0.66793652895E+01  0.52334657142E+02  0.96901737502E+02  0.41800000000E+01 0. -1.
         -5    1    1    2    0  502  0.28047653404E+02 -0.16724607592E+02 -0.11237749565E+02  0.34787106460E+02  0.41800000000E+01 0.  1.
        -11    1    1    2    0    0  0.69335428180E+02  0.26027070626E+02  0.21817352429E+03  0.23040073070E+03  0.00000000000E+00 0.  1.
         11    1    1    2    0    0 -0.16210770590E+02 -0.26230977448E+01  0.50363351588E+01  0.17176565336E+02  0.00000000000E+00 0. -1.
</event>
<event>
 6    1  0.4988969E-006  0.1266064E+03  0.7561462E-02  0.1232580E+00
         -3   -1    0    0    0  501 -0.00000000000E+00  0.00000000000E+00  0.10210217593E+03  0.10210217593E+03  0.00000000000E+00 0.  1.
          3   -1    0    0  501    0  0.00000000000E+00 -0.00000000000E+00 -0.16164219634E+03  0.16164219634E+03  0.00000000000E+00 0. -1.
          5    1    1    2  502    0  0.18854153162E+02  0.39458143928E+02  0.22731733076E+01  0.43989361561E+02  0.41800000000E+01 0.  1.
         -5    1    1    2    0  502  0.20484922328E+02 -0.93617143430E+02 -0.30598790751E+02  0.10068545070E+03  0.41800000000E+01 0.  1.
        -11    1    1    2    0    0  0.26450858408E+02 -0.24535087078E+01  0.75333783143E+00  0.26575084824E+02  0.00000000000E+00 0.  1.
         11    1    1    2    0    0 -0.65789933899E+02  0.56612508210E+02 -0.31967740796E+02  0.92494475186E+02  0.00000000000E+00 0. -1.
</event>
<event>
 6    1  0.4988969E-006  0.7248028E+02  0.7561462E-02  0.1351856E+00
         -1   -1    0    0    0  501 -0.00000000000E+00  0.00000000000E+00  0.12277714083E+03  0.12277714083E+03  0.00000000000E+00 0.  1.
          1   -1    0    0  501    0  0.00000000000E+00 -0.00000000000E+00 -0.11708902308E+03  0.11708902308E+03  0.00000000000E+00 0. -1.
          5    1    1    2  502    0 -0.12258898219E+02  0.11064009113E+02 -0.43797080131E+02  0.46993079397E+02  0.41800000000E+01 0.  1.
         -5    1    1    2    0  502  0.30703334432E+02 -0.58585127026E+02  0.59398734029E+02  0.88997718275E+02  0.41800000000E+01 0.  1.
        -11    1    1    2    0    0 -0.20608560126E+02  0.80565090271E+01  0.36642251410E+02  0.42805077696E+02  0.00000000000E+00 0.  1.
         11    1    1    2    0    0  0.21641239133E+01  0.39464608886E+02 -0.46555787557E+02  0.61070288536E+02  0.00000000000E+00 0. -1.
</event>
<event>
 6    1  0.4988969E-006  0.3289010E+03  0.7561462E-02  0.1071624E+00
          1   -1    0    0  501    0  0.00000000000E+00  0.00000000000E+00  0.40980010154E+03  0.40980010154E+03  0.00000000000E+00 0. -1.
         -1   -1    0    0    0  501 -0.00000000000E+00 -0.00000000000E+00 -0.41017347936E+03  0.41017347936E+03  0.00000000000E+00 0.  1.
          5    1    1    2  502    0  0.17238847598E+03 -0.27156767181E+03 -0.22962165258E+03  0.39523456676E+03  0.41800000000E+01 0. -1.
         -5    1    1    2    0  502 -0.28045144015E+01  0.11359463703E+02 -0.14777799959E+02  0.19306954402E+02  0.41800000000E+01 0. -1.
        -11    1    1    2    0    0 -0.10505455068E+03  0.22912744342E+03  0.19377091917E+03  0.31793554860E+03  0.00000000000E+00 0.  1.
         11    1    1    2    0    0 -0.64529410898E+02  0.31080764690E+02  0.50255155545E+02  0.87496511150E+02  0.00000000000E+00 0. -1.
</event>
<event>
 6    1  0.4988969E-006  0.1228383E+03  0.7561462E-02  0.1238487E+00
         -2   -1    0    0    0  501 -0.00000000000E+00  0.00000000000E+00  0.57898559956E+03  0.57898559956E+03  0.00000000000E+00 0.  1.
          2   -1    0    0  501    0  0.00000000000E+00 -0.00000000000E+00 -0.53320669969E+02  0.53320669969E+02  0.00000000000E+00 0. -1.
          5    1    1    2  502    0  0.35746895861E+02 -0.50744298499E+02  0.20221987010E+03  0.21157309058E+03  0.41800000000E+01 0. -1.
         -5    1    1    2    0  502 -0.80876546456E+02 -0.28445914541E+01  0.28994590633E+03  0.30105681933E+03  0.41800000000E+01 0. -1.
        -11    1    1    2    0    0  0.43279942024E+02 -0.52190616842E+01 -0.12095837561E+02  0.45240482676E+02  0.00000000000E+00 0. -1.
         11    1    1    2    0    0  0.18497085711E+01  0.58807951638E+02  0.45594990724E+02  0.74435876946E+02  0.00000000000E+00 0.  1.
</event>
<event>
 6    1  0.4988969E-006  0.1807895E+03  0.7561462E-02  0.1167041E+00
         -2   -1    0    0    0  501 -0.00000000000E+00  0.00000000000E+00  0.63708883186E+02  0.63708883186E+02  0.00000000000E+00 0.  1.
          2   -1    0    0  501    0  0.00000000000E+00 -0.00000000000E+00 -0.59103713600E+03  0.59103713600E+03  0.00000000000E+00 0. -1.
          5    1    1    2  502    0  0.60988272960E+02  0.13754218893E+03 -0.24512048696E+03  0.28764378788E+03  0.41800000000E+01 0.  1.
         -5    1    1    2    0  502 -0.46395894749E+02  0.19957539250E+02 -0.68317245835E+02  0.85062335384E+02  0.41800000000E+01 0.  1.
        -11    1    1    2    0    0 -0.22379193836E+02 -0.11037734385E+03 -0.75368912768E+02  0.13551553182E+03  0.00000000000E+00 0.  1.
         11    1    1    2    0    0  0.77868156257E+01 -0.47122384330E+02 -0.13852160724E+03  0.14652436410E+03  0.00000000000E+00 0. -1.
</event>
<event>
 6    1  0.4988969E-006  0.1702025E+03  0.7561462E-02  0.1177637E+00
         -1   -1    0    0    0  501 -0.00000000000E+00  0.00000000000E+00  0.86360516196E+02  0.86360516196E+02  0.00000000000E+00 0.  1.
          1   -1    0    0  501    0  0.00000000000E+00 -0.00000000000E+00 -0.62344002023E+03  0.62344002023E+03  0.00000000000E+00 0. -1.
          5    1    1    2  502    0 -0.11465476452E+01 -0.58226994291E+01 -0.64288528555E+02  0.64697030101E+02  0.41800000000E+01 0. -1.
         -5    1    1    2    0  502  0.76708086538E+02 -0.14341829103E+03 -0.34277832626E+02  0.16626899577E+03  0.41800000000E+01 0. -1.
        -11    1    1    2    0    0 -0.54660145196E+01  0.41854008030E+02 -0.33151636888E+02  0.53671839276E+02  0.00000000000E+00 0.  1.
         11    1    1    2    0    0 -0.70095524373E+02  0.10738698243E+03 -0.40536150596E+03  0.42516267128E+03  0.00000000000E+00 0. -1.
</event>
<event>
 6    1  0.4988969E-006  0.8965326E+02  0.7561462E-02  0.1303694E+00
         -1   -1    0    0    0  501 -0.00000000000E+00  0.00000000000E+00  0.11060203548E+03  0.11060203548E+03  0.00000000000E+00 0.  1.
          1   -1    0    0  501    0  0.00000000000E+00 -0.00000000000E+00 -0.13199398518E+03  0.13199398518E+03  0.00000000000E+00 0. -1.
          5    1    1    2  502    0  0.44215702728E+02  0.23483701988E+02  0.62619801807E+02  0.80282156206E+02  0.41800000000E+01 0. -1.
         -5    1    1    2    0  502 -0.40151942018E+02 -0.24696584445E+02 -0.20784416041E+02  0.51687175210E+02  0.41800000000E+01 0. -1.
        -11    1    1    2    0    0 -0.21790991606E+02  0.36353522645E+02 -0.56605034731E+02  0.70714608680E+02  0.00000000000E+00 0.  1.
         11    1    1    2    0    0  0.17727230896E+02 -0.35140640189E+02 -0.66223007395E+01  0.39912080567E+02  0.00000000000E+00 0. -1.
</event>
<event>
 6    1  0.4988969E-006  0.9202147E+02  0.7561462E-02  0.1298029E+00
         -1   -1    0    0    0  501 -0.00000000000E+00  0.00000000000E+00  0.45893414183E+02  0.45893414183E+02  0.00000000000E+00 0.  1.
          1   -1    0    0  501    0  0.00000000000E+00 -0.00000000000E+00 -0.30720715157E+03  0.30720715157E+03  0.00000000000E+00 0. -1.
          5    1    1    2  502    0 -0.38340461679E+02 -0.42902312462E+02 -0.10532013375E+03  0.12008497987E+03  0.41800000000E+01 0.  1.
         -5    1    1    2    0  502 -0.32461025710E+01  0.51683603139E+02 -0.52978481810E+01  0.52223286096E+02  0.41800000000E+01 0.  1.
        -11    1    1    2    0    0 -0.12609138638E+02  0.10973778720E+02  0.26787951139E+01  0.16928973385E+02  0.00000000000E+00 0.  1.
         11    1    1    2    0    0  0.54195702889E+02 -0.19755069397E+02 -0.15337455057E+03  0.16386332641E+03  0.00000000000E+00 0. -1.
</event>
<event>
 6    1  0.4988969E-006  0.1174230E+03  0.7561462E-02  0.1247410E+00
          4   -1    0    0  501    0  0.00000000000E+00  0.00000000000E+00  0.88190632618E+02  0.88190632618E+02  0.00000000000E+00 0. -1.
         -4   -1    0    0    0  501 -0.00000000000E+00 -0.00000000000E+00 -0.19045077148E+03  0.19045077148E+03  0.00000000000E+00 0.  1.
          5    1    1    2  502    0 -0.77465380981E+02  0.53865291752E+02 -0.56350704897E+01  0.94612796838E+02  0.41800000000E+01 0.  1.
         -5    1    1    2    0  502  0.10012450351E+02 -0.34165099891E+02 -0.45007324895E+02  0.57538116991E+02  0.41800000000E+01 0.  1.
        -11    1    1    2    0    0  0.60724485906E+02  0.20272993181E+02 -0.56851329084E+02  0.85618520541E+02  0.00000000000E+00 0. -1.
         11    1    1    2    0    0  0.67284447246E+01 -0.39973185041E+02  0.52335856106E+01  0.40871969724E+02  0.00000000000E+00 0.  1.
</event>
<event>
 6    1  0.4988969E-006  0.9408062E+02  0.7561462E-02  0.1293260E+00
          2   -1    0    0  501    0  0.00000000000E+00  0.00000000000E+00  0.77597540618E+02  0.77597540618E+02  0.00000000000E+00 0.  1.
         -2   -1    0    0    0  501 -0.00000000000E+00 -0.00000000000E+00 -0.23022383370E+03  0.23022383370E+03  0.00000000000E+00 0. -1.
          5    1    1    2  502    0  0.25840380167E+02 -0.15898677462E+01  0.37105907594E+02  0.45437580316E+02  0.41800000000E+01 0. -1.
         -5    1    1    2    0  502  0.31291905873E+02 -0.13354023061E+02 -0.10151414394E+03  0.10714526180E+03  0.41800000000E+01 0. -1.
        -11    1    1    2    0    0  0.44655437818E+01  0.54350921256E+02 -0.35015343817E+02  0.64807700355E+02  0.00000000000E+00 0.  1.
         11    1    1    2    0    0 -0.61597829822E+02 -0.39407030450E+02 -0.53202712921E+02  0.90430831854E+02  0.00000000000E+00 0. -1.
</event>
<event>
 6    1  0.4988969E-006  0.1125310E+03  0.7561462E-02  0.1255953E+00
          1   -1    0    0  501    0  0.00000000000E+00  0.00000000000E+00  0.17267163800E+03  0.17267163800E+03  0.00000000000E+00 0. -1.
         -1   -1    0    0    0  501 -0.00000000000E+00 -0.00000000000E+00 -0.91733516899E+02  0.91733516899E+02  0.00000000000E+00 0.  1.
          5    1    1    2  502    0  0.18047482408E+02 -0.43919916174E+02  0.18123148387E+01  0.47701441729E+02  0.41800000000E+01 0. -1.
         -5    1    1    2    0  502 -0.30611328761E+02  0.75866516038E+02 -0.45010930105E+01  0.82039709547E+02  0.41800000000E+01 0. -1.
        -11    1    1    2    0    0 -0.19831625702E+02 -0.53171529274E+02  0.19988220421E+02  0.60166717202E+02  0.00000000000E+00 0.  1.
         11    1    1    2    0    0  0.32395472055E+02  0.21224929410E+02  0.63638678853E+02  0.74497286422E+02  0.00000000000E+00 0. -1.
</event>
<event>
 6    1  0.4988969E-006  0.9876487E+02  0.7561462E-02  0.1282915E+00
          1   -1    0    0  501    0  0.00000000000E+00  0.00000000000E+00  0.10769936721E+03  0.10769936721E+03  0.00000000000E+00 0. -1.
         -1   -1    0    0    0  501 -0.00000000000E+00 -0.00000000000E+00 -0.19485821338E+03  0.19485821338E+03  0.00000000000E+00 0.  1.
          5    1    1    2  502    0 -0.92182666753E+02 -0.24277533353E+01 -0.12475417187E+03  0.15519218355E+03  0.41800000000E+01 0.  1.
         -5    1    1    2    0  502  0.15319344677E+02 -0.55418138246E+01  0.19402729870E+02  0.25677467714E+02  0.41800000000E+01 0.  1.
        -11    1    1    2    0    0  0.26821165399E+02  0.23859141518E+02 -0.32705830132E+02  0.48562381243E+02  0.00000000000E+00 0.  1.
         11    1    1    2    0    0  0.50042156677E+02 -0.15889574358E+02  0.50898425955E+02  0.73125548086E+02  0.00000000000E+00 0. -1.
</event>
<event>
 6    1  0.4988969E-006  0.1843911E+03  0.7561462E-02  0.1163620E+00
          3   -1    0    0  501    0  0.00000000000E+00  0.00000000000E+00  0.12018469480E+03  0.12018469480E+03  0.00000000000E+00 0. -1.
         -3   -1    0    0    0  501 -0.00000000000E+00 -0.00000000000E+00 -0.38311808447E+03  0.38311808447E+03  0.00000000000E+00 0.  1.
          5    1    1    2  502    0 -0.49247294436E+02 -0.28091800654E+02 -0.36099305618E+02  0.67342984337E+02  0.41800000000E+01 0.  1.
         -5    1    1    2    0  502 -0.94816202048E+02  0.11061386689E+03 -0.19568620125E+03  0.24400020795E+03  0.41800000000E+01 0.  1.
        -11    1    1    2    0    0  0.11453016639E+03 -0.68912169413E+02  0.16071008265E+02  0.13462660737E+03  0.00000000000E+00 0. -1.
         11    1    1    2    0    0  0.29533330094E+02 -0.13609896827E+02 -0.47218891061E+02  0.57332979612E+02  0.00000000000E+00 0.  1.
</event>
<event>
 6    1  0.4988969E-006  0.1938361E+03  0.7561462E-02  0.1155046E+00
          2   -1    0    0  501    0  0.00000000000E+00  0.00000000000E+00  0.64401592394E+03  0.64401592394E+03  0.00000000000E+00 0.  1.
         -2   -1    0    0    0  501 -0.00000000000E+00 -0.00000000000E+00 -0.72001033293E+02  0.72001033293E+02  0.00000000000E+00 0. -1.
          5    1    1    2  502    0  0.30772636681E+02  0.17745799107E+03  0.16706367113E+03  0.24569500681E+03  0.41800000000E+01 0.  1.
         -5    1    1    2    0  502 -0.94395550263E+01  0.71926373834E+01  0.10932064996E+03  0.11004233794E+03  0.41800000000E+01 0.  1.
        -11    1    1    2    0    0  0.19826269810E+02 -0.81480613983E+02  0.18686503405E+03  0.20481873054E+03  0.00000000000E+00 0.  1.
         11    1    1    2    0    0 -0.41159351464E+02 -0.10317001447E+03  0.10876553550E+03  0.15546088193E+03  0.00000000000E+00 0. -1.
</event>
<event>
 6    1  0.4988969E-006  0.1090794E+03  0.7561462E-02  0.1262284E+00
          1   -1    0    0  501    0  0.00000000000E+00  0.00000000000E+00  0.28885111261E+03  0.28885111261E+03  0.00000000000E+00 0. -1.
         -1   -1    0    0    0  501 -0.00000000000E+00 -0.00000000000E+00 -0.54545574617E+02  0.54545574617E+02  0.00000000000E+00 0.  1.
          5    1    1    2  502    0  0.17004197972E+02  0.48369839082E+02  0.33709856738E+02  0.61502934261E+02  0.41800000000E+01 0. -1.
         -5    1    1    2    0  502  0.41676698895E+02 -0.77598686557E+02  0.94304037839E+02  0.12910936193E+03  0.41800000000E+01 0. -1.
        -11    1    1    2    0    0 -0.77995237154E+01  0.26452525871E+02 -0.70926215074E+01  0.28475848977E+02  0.00000000000E+00 0.  1.
         11    1    1    2    0    0 -0.50881373151E+02  0.27763216044E+01  0.11338426492E+03  0.12430854205E+03  0.00000000000E+00 0. -1.
</event>
<event>
 6    1  0.4988969E-006  0.1055724E+03  0.7561462E-02  0.1268996E+00
         -1   -1    0    0    0  501 -0.00000000000E+00  0.00000000000E+00  0.10491927675E+02  0.10491927675E+02  0.00000000000E+00 0.  1.
          1   -1    0    0  501    0  0.00000000000E+00 -0.00000000000E+00 -0.14430687304E+04  0.14430687304E+04  0.00000000000E+00 0. -1.
          5    1    1    2  502    0 -0.80235187309E+01  0.23366135457E+02 -0.55914681816E+03  0.55970795045E+03  0.41800000000E+01 0.  1.
         -5    1    1    2    0  502 -0.23258001461E+01 -0.76851904491E+02 -0.27725824693E+03  0.28775203294E+03  0.41800000000E+01 0.  1.
        -11    1    1    2    0    0  0.52707767187E+02  0.28887559199E+02 -0.31156026700E+03  0.31730490033E+03  0.00000000000E+00 0. -1.
         11    1    1    2    0    0 -0.42358448310E+02  0.24598209835E+02 -0.28461147064E+03  0.28879577437E+03  0.00000000000E+00 0.  1.
</event>
<event>
 6    1  0.4988969E-006  0.1098335E+03  0.7561462E-02  0.1260879E+00
          1   -1    0    0  501    0  0.00000000000E+00  0.00000000000E+00  0.53827344400E+03  0.53827344400E+03  0.00000000000E+00 0. -1.
         -1   -1    0    0    0  501 -0.00000000000E+00 -0.00000000000E+00 -0.30568550588E+02  0.30568550588E+02  0.00000000000E+00 0.  1.
          5    1    1    2  502    0  0.26111459156E+01 -0.59731158448E+02  0.40485207390E+02  0.72326715604E+02  0.41800000000E+01 0. -1.
         -5    1    1    2    0  502 -0.46202903947E+02  0.42019113689E+02  0.13013304952E+03  0.14440359146E+03  0.41800000000E+01 0. -1.
        -11    1    1    2    0    0  0.35803777505E+02  0.51357294799E+02  0.26333684265E+03  0.27067651341E+03  0.00000000000E+00 0. -1.
         11    1    1    2    0    0  0.77879805261E+01 -0.33645250040E+02  0.73749793845E+02  0.81435174114E+02  0.00000000000E+00 0.  1.
</event>
<event>
 6    1  0.9212475E-006  0.1758502E+03  0.7561462E-02  0.1171881E+00
          1   -1    0    0  501    0  0.00000000000E+00  0.00000000000E+00  0.25542584318E+03  0.25542584318E+03  0.00000000000E+00 0. -1.
         -1   -1    0    0    0  501 -0.00000000000E+00 -0.00000000000E+00 -0.14918247310E+03  0.14918247310E+03  0.00000000000E+00 0.  1.
          5    1    1    2  502    0 -0.10001849952E+03 -0.53247511473E+02  0.82850303943E+02  0.14043020682E+03  0.41800000000E+01 0. -1.
         -5    1    1    2    0  502 -0.22955173790E+02 -0.51419487151E+02 -0.38827828015E+02  0.68527193806E+02  0.41800000000E+01 0. -1.
        -11    1    1    2    0    0  0.87984133212E+02  0.11552342850E+03  0.64609780454E+02  0.15893801924E+03  0.00000000000E+00 0.  1.
         11    1    1    2    0    0  0.34989540095E+02 -0.10856429871E+02 -0.23888862958E+01  0.36712896417E+02  0.00000000000E+00 0. -1.
</event>
<event>
 6    1  0.4988969E-006  0.1731196E+03  0.7561462E-02  0.1174633E+00
          1   -1    0    0  501    0  0.00000000000E+00  0.00000000000E+00  0.36282782555E+03  0.36282782555E+03  0.00000000000E+00 0. -1.
         -1   -1    0    0    0  501 -0.00000000000E+00 -0.00000000000E+00 -0.99540553578E+02  0.99540553578E+02  0.00000000000E+00 0.  1.
          5    1    1    2  502    0 -0.20938732455E+02 -0.12419889723E+02  0.56414536549E+01  0.25337375099E+02  0.41800000000E+01 0. -1.
         -5    1    1    2    0  502  0.14483028222E+03  0.66929504638E+02  0.38166320506E+02  0.16410213180E+03  0.41800000000E+01 0. -1.
        -11    1    1    2    0    0 -0.12639565317E+03 -0.20755115849E+02  0.18007259692E+03  0.22098139319E+03  0.00000000000E+00 0. -1.
         11    1    1    2    0    0  0.25041034070E+01 -0.33754499066E+02  0.39406900890E+02  0.51947479042E+02  0.00000000000E+00 0.  1.
</event>
<event>
 6    1  0.4988969E-006  0.1566867E+03  0.7561462E-02  0.1192489E+00
          1   -1    0    0  501    0  0.00000000000E+00  0.00000000000E+00  0.20625384522E+03  0.20625384522E+03  0.00000000000E+00 0. -1.
         -1   -1    0    0    0  501 -0.00000000000E+00 -0.00000000000E+00 -0.14191153335E+03  0.14191153335E+03  0.00000000000E+00 0.  1.
          5    1    1    2  502    0  0.55437216952E+02  0.11782414626E+03  0.63862894311E+02  0.14509223320E+03  0.41800000000E+01 0. -1.
         -5    1    1    2    0  502 -0.29131604603E+02  0.11639207244E+02 -0.25739395597E+02  0.40793509505E+02  0.41800000000E+01 0. -1.
        -11    1    1    2    0    0 -0.32318522889E+02 -0.13015669712E+02 -0.15907145863E+02  0.38300546593E+02  0.00000000000E+00 0.  1.
         11    1    1    2    0    0  0.60129105399E+01 -0.11644768380E+03  0.42125959014E+02  0.12397908927E+03  0.00000000000E+00 0. -1.
</event>
<event>
 6    1  0.4988969E-006  0.1261128E+03  0.7561462E-02  0.1233340E+00
         -2   -1    0    0    0  501 -0.00000000000E+00  0.00000000000E+00  0.88014656067E+02  0.88014656067E+02  0.00000000000E+00 0.  1.
          2   -1    0    0  501    0  0.00000000000E+00 -0.00000000000E+00 -0.28551828196E+03  0.28551828196E+03  0.00000000000E+00 0. -1.
          5    1    1    2  502    0 -0.36199691402E+02 -0.41141750275E+02 -0.30732896700E+02  0.62968600214E+02  0.41800000000E+01 0.  1.
         -5    1    1    2    0  502 -0.36515292332E+02  0.73088970828E+02  0.24309947198E+02  0.85345241013E+02  0.41800000000E+01 0.  1.
        -11    1    1    2    0    0  0.62628206375E+02 -0.59333644681E+02 -0.11522646807E+03  0.14394413003E+03  0.00000000000E+00 0.  1.
         11    1    1    2    0    0  0.10086777359E+02  0.27386424129E+02 -0.75854208320E+02  0.81274966773E+02  0.00000000000E+00 0. -1.
</event>
<event>
 6    1  0.4988969E-006  0.8197503E+02  0.7561462E-02  0.1323538E+00
         -1   -1    0    0    0  501 -0.00000000000E+00  0.00000000000E+00  0.31061987544E+02  0.31061987544E+02  0.00000000000E+00 0.  1.
          1   -1    0    0  501    0  0.00000000000E+00 -0.00000000000E+00 -0.45791779956E+03  0.45791779956E+03  0.00000000000E+00 0. -1.
          5    1    1    2  502    0 -0.79605379474E+01 -0.62181390943E+02 -0.19314945714E+03  0.20311100595E+03  0.41800000000E+01 0. -1.
         -5    1    1    2    0  502  0.87487017330E+01  0.21395327676E+02  0.73001210893E+01  0.24598048628E+02  0.41800000000E+01 0. -1.
        -11    1    1    2    0    0  0.14440902402E+02  0.54961319464E+02 -0.23154261516E+03  0.23841407034E+03  0.00000000000E+00 0. -1.
         11    1    1    2    0    0 -0.15229066187E+02 -0.14175256197E+02 -0.94638608060E+01  0.22856662192E+02  0.00000000000E+00 0.  1.
</event>
<event>
 6    1  0.4988969E-006  0.1597720E+03  0.7561462E-02  0.1188954E+00
          1   -1    0    0  501    0  0.00000000000E+00  0.00000000000E+00  0.62848164799E+02  0.62848164799E+02  0.00000000000E+00 0. -1.
         -1   -1    0    0    0  501 -0.00000000000E+00 -0.00000000000E+00 -0.52187565324E+03  0.52187565324E+03  0.00000000000E+00 0.  1.
          5    1    1    2  502    0  0.73801984790E+02  0.51906757604E+02 -0.20167638586E+03  0.22097936885E+03  0.41800000000E+01 0.  1.
         -5    1    1    2    0  502  0.44401318337E+02 -0.69517231697E+02 -0.17180192091E+03  0.19062396230E+03  0.41800000000E+01 0.  1.
        -11    1    1    2    0    0  0.99580840544E+01  0.15529911158E+02  0.97184412169E+00  0.18473929187E+02  0.00000000000E+00 0.  1.
         11    1    1    2    0    0 -0.12816138718E+03  0.20805629352E+01 -0.86521025792E+02  0.15464655771E+03  0.00000000000E+00 0. -1.
</event>
<event>
 6    1  0.4988969E-006  0.9390308E+02  0.7561462E-02  0.1293666E+00
          2   -1    0    0  501    0  0.00000000000E+00  0.00000000000E+00  0.42180681430E+02  0.42180681430E+02  0.00000000000E+00 0.  1.
         -2   -1    0    0    0  501 -0.00000000000E+00 -0.00000000000E+00 -0.32761222545E+03  0.32761222545E+03  0.00000000000E+00 0. -1.
          5    1    1    2  502    0  0.48001581760E+02  0.33989538874E+02 -0.20650467428E+03  0.21475822104E+03  0.41800000000E+01 0.  1.
         -5    1    1    2    0  502 -0.37852416957E+02 -0.31472758629E+02 -0.47322499939E+02  0.68412216787E+02  0.41800000000E+01 0.  1.
        -11    1    1    2    0    0  0.32952359934E+02  0.10205104371E+02 -0.21213213368E+02  0.40496945587E+02  0.00000000000E+00 0. -1.
         11    1    1    2    0    0 -0.43101524737E+02 -0.12721884616E+02 -0.10391156429E+02  0.46125523463E+02  0.00000000000E+00 0.  1.
</event>
<event>
 6    1  0.4988969E-006  0.1542274E+03  0.7561462E-02  0.1195373E+00
          2   -1    0    0  501    0  0.00000000000E+00  0.00000000000E+00  0.23921518478E+02  0.23921518478E+02  0.00000000000E+00 0. -1.
         -2   -1    0    0    0  501 -0.00000000000E+00 -0.00000000000E+00 -0.12588405306E+04  0.12588405306E+04  0.00000000000E+00 0.  1.
          5    1    1    2  502    0 -0.73090561076E+02  0.59393822621E+02 -0.67769800128E+03  0.68422358161E+03  0.41800000000E+01 0.  1.
         -5    1    1    2    0  502  0.10493710545E+02  0.55726381290E+02 -0.10757783307E+03  0.12167994946E+03  0.41800000000E+01 0.  1.
        -11    1    1    2    0    0 -0.19997597531E+02 -0.68354517450E+01 -0.85739807671E+02  0.88305956351E+02  0.00000000000E+00 0.  1.
         11    1    1    2    0    0  0.82594448062E+02 -0.10828475217E+03 -0.36390337006E+03  0.38855256162E+03  0.00000000000E+00 0. -1.
</event>
<event>
 6    1  0.4988969E-006  0.1183468E+03  0.7561462E-02  0.1245849E+00
          3   -1    0    0  501    0  0.00000000000E+00  0.00000000000E+00  0.64445566484E+03  0.64445566484E+03  0.00000000000E+00 0. -1.
         -3   -1    0    0    0  501 -0.00000000000E+00 -0.00000000000E+00 -0.49803091213E+02  0.49803091213E+02  0.00000000000E+00 0.  1.
          5    1    1    2  502    0 -0.65286293855E+01  0.64285969320E+01 -0.19191894673E+02  0.21673741747E+02  0.41800000000E+01 0. -1.
         -5    1    1    2    0  502 -0.45753264398E+02 -0.10514716463E+03  0.16247559975E+03  0.19890972914E+03  0.41800000000E+01 0. -1.
        -11    1    1    2    0    0  0.16011396719E+02  0.24482281231E+02  0.22460095030E+02  0.36880927157E+02  0.00000000000E+00 0.  1.
         11    1    1    2    0    0  0.36270497064E+02  0.74236286465E+02  0.42890877352E+03  0.43679435801E+03  0.00000000000E+00 0. -1.
</event>
<event>
 6    1  0.4988969E-006  0.1213353E+03  0.7561462E-02  0.1240910E+00
          1   -1    0    0  501    0  0.00000000000E+00  0.00000000000E+00  0.35091412726E+02  0.35091412726E+02  0.00000000000E+00 0. -1.
         -1   -1    0    0    0  501 -0.00000000000E+00 -0.00000000000E+00 -0.51356180336E+03  0.51356180336E+03  0.00000000000E+00 0.  1.
          5    1    1    2  502    0 -0.91396110034E+02  0.50368827317E+00 -0.18016562802E+03  0.20206590150E+03  0.41800000000E+01 0. -1.
         -5    1    1    2    0  502  0.31906697262E+02  0.27808457717E+02 -0.17758896669E+03  0.18261068189E+03  0.41800000000E+01 0. -1.
        -11    1    1    2    0    0  0.41087313767E+02 -0.59575595290E+02 -0.63770757886E+02  0.96457910345E+02  0.00000000000E+00 0.  1.
         11    1    1    2    0    0  0.18402099006E+02  0.31263449300E+02 -0.56945038039E+02  0.67518722346E+02  0.00000000000E+00 0. -1.
</event>
<event>
 6    1  0.4988969E-006  0.1329645E+03  0.7561462E-02  0.1223122E+00
         -1   -1    0    0    0  501 -0.00000000000E+00  0.00000000000E+00  0.20993484973E+03  0.20993484973E+03  0.00000000000E+00 0.  1.
          1   -1    0    0  501    0  0.00000000000E+00 -0.00000000000E+00 -0.99875261121E+02  0.99875261121E+02  0.00000000000E+00 0. -1.
          5    1    1    2  502    0  0.32276267620E+01 -0.27957153688E+02 -0.25503292471E+01  0.28565654134E+02  0.41800000000E+01 0.  1.
         -5    1    1    2    0  502  0.13885454801E+02  0.11520570909E+03  0.99706313267E+02  0.15304895480E+03  0.41800000000E+01 0.  1.
        -11    1    1    2    0    0 -0.71925457664E+01  0.16050463533E+02  0.16834933382E+02  0.24346767264E+02  0.00000000000E+00 0.  1.
         11    1    1    2    0    0 -0.99205357968E+01 -0.10329901893E+03 -0.39313287894E+01  0.10384873465E+03  0.00000000000E+00 0. -1.
</event>
<event>
 6    1  0.4988969E-006  0.9204510E+02  0.7561462E-02  0.1297973E+00
         -1   -1    0    0    0  501 -0.00000000000E+00  0.00000000000E+00  0.79992011217E+02  0.79992011217E+02  0.00000000000E+00 0.  1.
          1   -1    0    0  501    0  0.00000000000E+00 -0.00000000000E+00 -0.15461497077E+03  0.15461497077E+03  0.00000000000E+00 0. -1.
          5    1    1    2  502    0 -0.39265027812E+02 -0.60622819278E+02 -0.63286641538E+01  0.72625016463E+02  0.41800000000E+01 0. -1.
         -5    1    1    2    0  502  0.26453692629E+02  0.41707003696E+02 -0.36495842854E+02  0.61552343226E+02  0.41800000000E+01 0. -1.
        -11    1    1    2    0    0  0.34833905066E+02  0.29178629135E+01  0.21176928518E+02  0.40870247951E+02  0.00000000000E+00 0.  1.
         11    1    1    2    0    0 -0.22022569883E+02  0.15997952669E+02 -0.52975381060E+02  0.59559374344E+02  0.00000000000E+00 0. -1.
</event>
<event>
 6    1  0.4988969E-006  0.1170975E+03  0.7561462E-02  0.1247964E+00
          2   -1    0    0  501    0  0.00000000000E+00  0.00000000000E+00  0.26715167025E+03  0.26715167025E+03  0.00000000000E+00 0.  1.
         -2   -1    0    0    0  501 -0.00000000000E+00 -0.00000000000E+00 -0.10946979402E+03  0.10946979402E+03  0.00000000000E+00 0. -1.
          5    1    1    2  502    0  0.82357225605E+01  0.24589750892E+01  0.45402361599E+02  0.46397419361E+02  0.41800000000E+01 0.  1.
         -5    1    1    2    0  502 -0.26235174912E+02  0.93261610623E+02 -0.57187097886E+02  0.11257819053E+03  0.41800000000E+01 0.  1.
        -11    1    1    2    0    0  0.50323805311E+02 -0.44934806381E+02  0.12753911412E+03  0.14428391398E+03  0.00000000000E+00 0. -1.
         11    1    1    2    0    0 -0.32324352960E+02 -0.50785779332E+02  0.41927498396E+02  0.73361940394E+02  0.00000000000E+00 0.  1.
</event>
<event>
 6    1  0.4988969E-006  0.1178183E+03  0.7561462E-02  0.1246740E+00
         -2   -1    0    0    0  501 -0.00000000000E+00  0.00000000000E+00  0.50222952809E+03  0.50222952809E+03  0.00000000000E+00 0.  1.
          2   -1    0    0  501    0  0.00000000000E+00 -0.00000000000E+00 -0.32730067493E+02  0.32730067493E+02  0.00000000000E+00 0. -1.
          5    1    1    2  502    0 -0.55643927747E+02  0.73105632002E+02  0.20705437485E+03  0.22656051437E+03  0.41800000000E+01 0.  1.
         -5    1    1    2    0  502  0.26347040244E+02 -0.30461642847E+02  0.14750220729E+03  0.15295898721E+03  0.41800000000E+01 0.  1.
        -11    1    1    2    0    0 -0.31376758364E+02 -0.24619718583E+02  0.57420294109E+02  0.69912242734E+02  0.00000000000E+00 0.  1.
         11    1    1    2    0    0  0.60673645867E+02 -0.18024270571E+02  0.57522584353E+02  0.85527851271E+02  0.00000000000E+00 0. -1.
</event>
<event>
 6    1  0.4988969E-006  0.1174348E+03  0.7561462E-02  0.1247390E+00
         -3   -1    0    0    0  501 -0.00000000000E+00  0.00000000000E+00  0.16671652919E+03  0.16671652919E+03  0.00000000000E+00 0.  1.
          3   -1    0    0  501    0  0.00000000000E+00 -0.00000000000E+00 -0.11963983571E+03  0.11963983571E+03  0.00000000000E+00 0. -1.
          5    1    1    2  502    0 -0.38155932731E+02 -0.10372488157E+02 -0.20800012065E+02  0.44872893991E+02  0.41800000000E+01 0.  1.
         -5    1    1    2    0  502  0.25624733038E+01  0.88739291292E+02  0.75191747241E+02  0.11641520237E+03  0.41800000000E+01 0.  1.
        -11    1    1    2    0    0  0.32574732547E+02 -0.51789494705E+01 -0.33752898850E+02  0.47193144618E+02  0.00000000000E+00 0. -1.
         11    1    1    2    0    0  0.30187268806E+01 -0.73187853665E+02  0.26437857156E+02  0.77875123929E+02  0.00000000000E+00 0.  1.
</event>
<event>
 6    1  0.4988969E-006  0.1142933E+03  0.7561462E-02  0.1252820E+00
         -1   -1    0    0    0  501 -0.00000000000E+00  0.00000000000E+00  0.94251789208E+02  0.94251789208E+02  0.00000000000E+00 0.  1.
          1   -1    0    0  501    0  0.00000000000E+00 -0.00000000000E+00 -0.21385748887E+03  0.21385748887E+03  0.00000000000E+00 0. -1.
          5    1    1    2  502    0 -0.55720367317E+02  0.22815803325E+02  0.17268642780E+02  0.62777373621E+02  0.41800000000E+01 0.  1.
         -5    1    1    2    0  502  0.55444627766E+01 -0.80400770990E+02 -0.22928762714E+02  0.83894133304E+02  0.41800000000E+01 0.  1.
        -11    1    1    2    0    0  0.32628758061E+02  0.61735845543E+01  0.21335839745E+01  0.33276135284E+02  0.00000000000E+00 0.  1.
         11    1    1    2    0    0  0.17547146479E+02  0.51411383110E+02 -0.11607916371E+03  0.12816163587E+03  0.00000000000E+00 0. -1.
</event>
<event>
 6    1  0.4988969E-006  0.2230138E+03  0.7561462E-02  0.1131656E+00
          2   -1    0    0  501    0  0.00000000000E+00  0.00000000000E+00  0.16841395560E+04  0.16841395560E+04  0.00000000000E+00 0.  1.
         -2   -1    0    0    0  501 -0.00000000000E+00 -0.00000000000E+00 -0.33464956999E+02  0.33464956999E+02  0.00000000000E+00 0. -1.
          5    1    1    2  502    0 -0.18557002300E+03 -0.10064212852E+03  0.65080469693E+03  0.68419974965E+03  0.41800000000E+01 0.  1.
         -5    1    1    2    0  502 -0.72152078529E+01  0.27159693587E+02  0.58848560833E+02  0.65347790263E+02  0.41800000000E+01 0.  1.
        -11    1    1    2    0    0  0.12312431158E+03  0.51037753079E+02  0.77836036810E+03  0.78968937626E+03  0.00000000000E+00 0. -1.
         11    1    1    2    0    0  0.69660919273E+02  0.22444681859E+02  0.16266097313E+03  0.17836759683E+03  0.00000000000E+00 0.  1.
</event>
<event>
 6    1  0.4988969E-006  0.1189829E+03  0.7561462E-02  0.1244784E+00
          1   -1    0    0  501    0  0.00000000000E+00  0.00000000000E+00  0.14532011674E+03  0.14532011674E+03  0.00000000000E+00 0. -1.
         -1   -1    0    0    0  501 -0.00000000000E+00 -0.00000000000E+00 -0.15582326418E+03  0.15582326418E+03  0.00000000000E+00 0.  1.
          5    1    1    2  502    0 -0.95024042599E+01  0.33707647661E+02 -0.25445140219E+02  0.43490559416E+02  0.41800000000E+01 0. -1.
         -5    1    1    2    0  502  0.78510137494E+02 -0.82455353369E+02 -0.35987184658E+02  0.11947919002E+03  0.41800000000E+01 0. -1.
        -11    1    1    2    0    0 -0.40593331316E+02  0.44159923062E+02 -0.18700088663E+02  0.62830014072E+02  0.00000000000E+00 0.  1.
         11    1    1    2    0    0 -0.28414401917E+02  0.45877826462E+01  0.69629266100E+02  0.75343617404E+02  0.00000000000E+00 0. -1.
</event>
<event>
 6    1  0.4988969E-006  0.1043331E+03  0.7561462E-02  0.1271439E+00
          1   -1    0    0  501    0  0.00000000000E+00  0.00000000000E+00  0.98632142169E+02  0.98632142169E+02  0.00000000000E+00 0. -1.
         -1   -1    0    0    0  501 -0.00000000000E+00 -0.00000000000E+00 -0.12897122080E+03  0.12897122080E+03  0.00000000000E+00 0.  1.
          5    1    1    2  502    0 -0.31851472082E+02  0.60080406122E+02  0.86223249642E+01  0.68673054114E+02  0.41800000000E+01 0.  1.
         -5    1    1    2    0  502  0.55298086762E+01 -0.48655294561E+02 -0.40200066048E+02  0.63493575920E+02  0.41800000000E+01 0.  1.
        -11    1    1    2    0    0  0.56878918399E+02  0.42676800945E+01 -0.12581007807E+02  0.58409812610E+02  0.00000000000E+00 0.  1.
         11    1    1    2    0    0 -0.30557254994E+02 -0.15692791655E+02  0.13819670259E+02  0.37026920325E+02  0.00000000000E+00 0. -1.
</event>
<event>
 6    1  0.4988969E-006  0.1072057E+03  0.7561462E-02  0.1265834E+00
          3   -1    0    0  501    0  0.00000000000E+00  0.00000000000E+00  0.13909435184E+03  0.13909435184E+03  0.00000000000E+00 0. -1.
         -3   -1    0    0    0  501 -0.00000000000E+00 -0.00000000000E+00 -0.21706389405E+03  0.21706389405E+03  0.00000000000E+00 0.  1.
          5    1    1    2  502    0 -0.30765243992E+02  0.63304968203E+02 -0.11670077970E+03  0.13634721714E+03  0.41800000000E+01 0. -1.
         -5    1    1    2    0  502  0.44449101310E+02 -0.59547689155E+02 -0.50705013483E+02  0.90056208466E+02  0.41800000000E+01 0.  1.
        -11    1    1    2    0    0  0.15307930704E+01  0.31260007293E+02  0.85885427775E+02  0.91410273424E+02  0.00000000000E+00 0. -1.
         11    1    1    2    0    0 -0.15214650389E+02 -0.35017286341E+02  0.35508231999E+01  0.38344546868E+02  0.00000000000E+00 0.  1.
</event>
<event>
 6    1  0.4988969E-006  0.8509438E+02  0.7561462E-02  0.1315186E+00
          2   -1    0    0  501    0  0.00000000000E+00  0.00000000000E+00  0.32653434756E+03  0.32653434756E+03  0.00000000000E+00 0. -1.
         -2   -1    0    0    0  501 -0.00000000000E+00 -0.00000000000E+00 -0.49374797715E+02  0.49374797715E+02  0.00000000000E+00 0.  1.
          5    1    1    2  502    0  0.41307997857E+02  0.73884156078E+02  0.26517730201E+02  0.88802486572E+02  0.41800000000E+01 0.  1.
         -5    1    1    2    0  502 -0.72320150839E+01 -0.20112227459E+02  0.93088695887E+02  0.95602204145E+02  0.41800000000E+01 0.  1.
        -11    1    1    2    0    0 -0.76885846950E+01 -0.12232927448E+02 -0.95408757592E+01  0.17314362790E+02  0.00000000000E+00 0.  1.
         11    1    1    2    0    0 -0.26387398078E+02 -0.41539001171E+02  0.16709399951E+03  0.17419009176E+03  0.00000000000E+00 0. -1.
</event>
<event>
 6    1  0.4988969E-006  0.1281603E+03  0.7561462E-02  0.1230211E+00
         -4   -1    0    0    0  501 -0.00000000000E+00  0.00000000000E+00  0.29121330465E+03  0.29121330465E+03  0.00000000000E+00 0.  1.
          4   -1    0    0  501    0  0.00000000000E+00 -0.00000000000E+00 -0.70419766408E+02  0.70419766408E+02  0.00000000000E+00 0. -1.
          5    1    1    2  502    0  0.24951093966E+02 -0.38491055707E+02  0.67220134371E+02  0.81487037770E+02  0.41800000000E+01 0. -1.
         -5    1    1    2    0  502 -0.72740147616E+02  0.79579693445E+02  0.12711016453E+03  0.16672889075E+03  0.41800000000E+01 0.  1.
        -11    1    1    2    0    0  0.70742354087E+02 -0.32584267171E+02  0.71332703969E+00  0.77889177453E+02  0.00000000000E+00 0. -1.
         11    1    1    2    0    0 -0.22953300438E+02 -0.85043705662E+01  0.25749912304E+02  0.35527965089E+02  0.00000000000E+00 0.  1.
</event>
<event>
 6    1  0.4988969E-006  0.1280711E+03  0.7561462E-02  0.1230346E+00
          2   -1    0    0  501    0  0.00000000000E+00  0.00000000000E+00  0.94982030742E+03  0.94982030742E+03  0.00000000000E+00 0. -1.
         -2   -1    0    0    0  501 -0.00000000000E+00 -0.00000000000E+00 -0.19223277082E+02  0.19223277082E+02  0.00000000000E+00 0.  1.
          5    1    1    2  502    0 -0.16214825447E+02 -0.59257093088E+02  0.25299757594E+03  0.26038350462E+03  0.41800000000E+01 0. -1.
         -5    1    1    2    0  502  0.83592171086E+02  0.75775382552E+01  0.19119481921E+03  0.20884923138E+03  0.41800000000E+01 0. -1.
        -11    1    1    2    0    0 -0.65889439177E+02  0.74929535658E+01  0.22050727474E+03  0.23026293832E+03  0.00000000000E+00 0.  1.
         11    1    1    2    0    0 -0.14879064616E+01  0.44186601267E+02  0.26589736044E+03  0.26954791019E+03  0.00000000000E+00 0. -1.
</event>
<event>
 6    1  0.4988969E-006  0.1304324E+03  0.7561462E-02  0.1226816E+00
          2   -1    0    0  501    0  0.00000000000E+00  0.00000000000E+00  0.41587781006E+02  0.41587781006E+02  0.00000000000E+00 0. -1.
         -2   -1    0    0    0  501 -0.00000000000E+00 -0.00000000000E+00 -0.61792516183E+03  0.61792516183E+03  0.00000000000E+00 0.  1.
          5    1    1    2  502    0 -0.34384001355E+02 -0.20572839369E+02 -0.21196847779E+02  0.45522302498E+02  0.41800000000E+01 0.  1.
         -5    1    1    2    0  502 -0.71167246355E+02  0.51104448489E+02 -0.35850270258E+03  0.36907736556E+03  0.41800000000E+01 0.  1.
        -11    1    1    2    0    0 -0.86713603585E+01  0.85134353263E+01 -0.65736001278E+02  0.66849778874E+02  0.00000000000E+00 0.  1.
         11    1    1    2    0    0  0.11422260807E+03 -0.39045044446E+02 -0.13090182918E+03  0.17806349590E+03  0.00000000000E+00 0. -1.
</event>
<event>
 6    1  0.4988969E-006  0.1014257E+03  0.7561462E-02  0.1277326E+00
          4   -1    0    0  501    0  0.00000000000E+00  0.00000000000E+00  0.21424546699E+02  0.21424546699E+02  0.00000000000E+00 0.  1.
         -4   -1    0    0    0  501 -0.00000000000E+00 -0.00000000000E+00 -0.73123893722E+03  0.73123893722E+03  0.00000000000E+00 0. -1.
          5    1    1    2  502    0  0.82464343314E+01  0.41134955861E+02 -0.32429994463E+03  0.32702907326E+03  0.41800000000E+01 0. -1.
         -5    1    1    2    0  502 -0.18197100859E+02 -0.73477793151E+02 -0.22820090929E+03  0.24046465014E+03  0.41800000000E+01 0. -1.
        -11    1    1    2    0    0  0.80143539042E+01  0.58299952540E+02 -0.58471993257E+02  0.82958352986E+02  0.00000000000E+00 0.  1.
         11    1    1    2    0    0  0.19363126229E+01 -0.25957115250E+02 -0.98841543350E+02  0.10221140754E+03  0.00000000000E+00 0. -1.
</event>
<event>
 6    1  0.4988969E-006  0.7693380E+02  0.7561462E-02  0.1337985E+00
          1   -1    0    0  501    0  0.00000000000E+00  0.00000000000E+00  0.22409361879E+03  0.22409361879E+03  0.00000000000E+00 0. -1.
         -1   -1    0    0    0  501 -0.00000000000E+00 -0.00000000000E+00 -0.64753557615E+02  0.64753557615E+02  0.00000000000E+00 0.  1.
          5    1    1    2  502    0  0.63928840487E+00  0.37860366793E+01 -0.32903845234E+02  0.33389791772E+02  0.41800000000E+01 0.  1.
         -5    1    1    2    0  502 -0.40025123844E+02 -0.38020841042E+02  0.10848906051E+03  0.12179878301E+03  0.41800000000E+01 0.  1.
        -11    1    1    2    0    0  0.10572672051E+02  0.55829236792E+02  0.19631343720E+02  0.60117175011E+02  0.00000000000E+00 0.  1.
         11    1    1    2    0    0  0.28813163388E+02 -0.21594432429E+02  0.64123502176E+02  0.73541426609E+02  0.00000000000E+00 0. -1.
</event>
<event>
 6    1  0.4988969E-006  0.1237573E+03  0.7561462E-02  0.1237024E+00
         -2   -1    0    0    0  501 -0.00000000000E+00  0.00000000000E+00  0.73157894283E+02  0.73157894283E+02  0.00000000000E+00 0.  1.
          2   -1    0    0  501    0  0.00000000000E+00 -0.00000000000E+00 -0.26441592407E+03  0.26441592407E+03  0.00000000000E+00 0. -1.
          5    1    1    2  502    0 -0.10808262560E+03  0.51951871351E+01 -0.42781477973E+02  0.11643268950E+03  0.41800000000E+01 0. -1.
         -5    1    1    2    0  502  0.34615544419E+02 -0.20048219258E+01 -0.28972200448E+00  0.34925800853E+02  0.41800000000E+01 0. -1.
        -11    1    1    2    0    0  0.23353404840E+02 -0.37068309816E+02 -0.28950247790E+02  0.52512455259E+02  0.00000000000E+00 0. -1.
         11    1    1    2    0    0  0.50113676344E+02  0.33877944607E+02 -0.11923658202E+03  0.13370287274E+03  0.00000000000E+00 0.  1.
</event>
<event>
 6    1  0.4988969E-006  0.6913119E+02  0.7561462E-02  0.1363073E+00
          1   -1    0    0  501    0  0.00000000000E+00  0.00000000000E+00  0.52429916418E+02  0.52429916418E+02  0.00000000000E+00 0.  1.
         -1   -1    0    0    0  501 -0.00000000000E+00 -0.00000000000E+00 -0.34411677957E+03  0.34411677957E+03  0.00000000000E+00 0. -1.
          5    1    1    2  502    0  0.16047523747E+02 -0.11476619140E+02  0.11922945477E+02  0.23427864481E+02  0.41800000000E+01 0. -1.
         -5    1    1    2    0  502  0.24662285799E+02 -0.34156160160E+02 -0.24064406178E+03  0.24433973988E+03  0.41800000000E+01 0. -1.
        -11    1    1    2    0    0 -0.11419694652E+01  0.34686420177E+02  0.17184211643E+02  0.38726592527E+02  0.00000000000E+00 0.  1.
         11    1    1    2    0    0 -0.39567840081E+02  0.10946359123E+02 -0.80149958495E+02  0.90052499096E+02  0.00000000000E+00 0. -1.
</event>
<event>
 6    1  0.8549879E-006  0.1565401E+03  0.7561462E-02  0.1192659E+00
         -1   -1    0    0    0  501 -0.00000000000E+00  0.00000000000E+00  0.18934144681E+03  0.18934144681E+03  0.00000000000E+00 0.  1.
          1   -1    0    0  501    0  0.00000000000E+00 -0.00000000000E+00 -0.16668230567E+03  0.16668230567E+03  0.00000000000E+00 0. -1.
          5    1    1    2  502    0 -0.20302307252E+02  0.13016515258E+03  0.62881623857E+02  0.14603671334E+03  0.41800000000E+01 0. -1.
         -5    1    1    2    0  502  0.44832555761E+02 -0.83643607448E+00 -0.30983872587E+01  0.45141223787E+02  0.41800000000E+01 0. -1.
        -11    1    1    2    0    0  0.90606985081E+01 -0.22540981606E+02  0.26607061819E+02  0.36029541322E+02  0.00000000000E+00 0.  1.
         11    1    1    2    0    0 -0.33590947017E+02 -0.10678773490E+03 -0.63731157283E+02  0.12881627403E+03  0.00000000000E+00 0. -1.
</event>
<event>
 6    1  0.4988969E-006  0.1266593E+03  0.7561462E-02  0.1232499E+00
          1   -1    0    0  501    0  0.00000000000E+00  0.00000000000E+00  0.57974703904E+03  0.57974703904E+03  0.00000000000E+00 0. -1.
         -1   -1    0    0    0  501 -0.00000000000E+00 -0.00000000000E+00 -0.28130159935E+02  0.28130159935E+02  0.00000000000E+00 0.  1.
          5    1    1    2  502    0 -0.13647912063E+02 -0.34943463578E+02  0.78366415952E+02  0.86983209297E+02  0.41800000000E+01 0.  1.
         -5    1    1    2    0  502  0.48908573172E+02  0.91314043320E+02  0.24914401459E+03  0.26985276623E+03  0.41800000000E+01 0.  1.
        -11    1    1    2    0    0  0.12785711104E+02  0.18770911926E+02  0.32001654983E+02  0.39241909544E+02  0.00000000000E+00 0.  1.
         11    1    1    2    0    0 -0.48046372213E+02 -0.75141491669E+02  0.19210479358E+03  0.21179931390E+03  0.00000000000E+00 0. -1.
</event>
<event>
 6    1  0.4988969E-006  0.9995836E+02  0.7561462E-02  0.1280384E+00
         -2   -1    0    0    0  501 -0.00000000000E+00  0.00000000000E+00  0.46472946846E+02  0.46472946846E+02  0.00000000000E+00 0.  1.
          2   -1    0    0  501    0  0.00000000000E+00 -0.00000000000E+00 -0.30331376393E+03  0.30331376393E+03  0.00000000000E+00 0. -1.
          5    1    1    2  502    0  0.35159495007E+02  0.14407414833E+02  0.30575154667E+01  0.38348200638E+02  0.41800000000E+01 0.  1.
         -5    1    1    2    0  502 -0.61582051475E+02  0.24273695098E+02 -0.12994025217E+03  0.14588866601E+03  0.41800000000E+01 0.  1.
        -11    1    1    2    0    0  0.54770499583E+02 -0.11241176624E+02 -0.10472939564E+03  0.11871991404E+03  0.00000000000E+00 0. -1.
         11    1    1    2    0    0 -0.28347943115E+02 -0.27439933307E+02 -0.25228684741E+02  0.46829930093E+02  0.00000000000E+00 0.  1.
</event>
<event>
 6    1  0.4988969E-006  0.1126399E+03  0.7561462E-02  0.1255758E+00
         -2   -1    0    0    0  501 -0.00000000000E+00  0.00000000000E+00  0.37245683280E+02  0.37245683280E+02  0.00000000000E+00 0.  1.
          2   -1    0    0  501    0  0.00000000000E+00 -0.00000000000E+00 -0.41238659383E+03  0.41238659383E+03  0.00000000000E+00 0. -1.
          5    1    1    2  502    0  0.14802865150E+01 -0.57770431701E+02 -0.59460142811E+02  0.83021653863E+02  0.41800000000E+01 0.  1.
         -5    1    1    2    0  502  0.47835810986E+02  0.59577659387E+02 -0.81081874922E+02  0.11148769058E+03  0.41800000000E+01 0.  1.
        -11    1    1    2    0    0  0.20174907376E+02 -0.64315207084E+01 -0.18635794882E+02  0.28207874736E+02  0.00000000000E+00 0. -1.
         11    1    1    2    0    0 -0.69491004877E+02  0.46242930218E+01 -0.21596309794E+03  0.22691505793E+03  0.00000000000E+00 0.  1.
</event>
<event>
 6    1  0.4988969E-006  0.1108362E+03  0.7561462E-02  0.1259029E+00
         -2   -1    0    0    0  501 -0.00000000000E+00  0.00000000000E+00  0.21604766188E+02  0.21604766188E+02  0.00000000000E+00 0.  1.
          2   -1    0    0  501    0  0.00000000000E+00 -0.00000000000E+00 -0.62524143052E+03  0.62524143052E+03  0.00000000000E+00 0. -1.
          5    1    1    2  502    0  0.12615317810E+02 -0.81556206840E+02 -0.26583955753E+03  0.27838589021E+03  0.41800000000E+01 0.  1.
         -5    1    1    2    0  502  0.46485516962E+01  0.44693098911E+02 -0.83713700373E+02  0.95102776790E+02  0.41800000000E+01 0.  1.
        -11    1    1    2    0    0  0.34309377626E+02  0.98636782279E+01 -0.52133244171E+02  0.63184655487E+02  0.00000000000E+00 0.  1.
         11    1    1    2    0    0 -0.51573247133E+02  0.26999429701E+02 -0.20195016226E+03  0.21017287422E+03  0.00000000000E+00 0. -1.
</event>
<event>
 6    1  0.4988969E-006  0.2369426E+03  0.7561462E-02  0.1121846E+00
          2   -1    0    0  501    0  0.00000000000E+00  0.00000000000E+00  0.21172754435E+04  0.21172754435E+04  0.00000000000E+00 0. -1.
         -2   -1    0    0    0  501 -0.00000000000E+00 -0.00000000000E+00 -0.32094305241E+02  0.32094305241E+02  0.00000000000E+00 0.  1.
          5    1    1    2  502    0  0.38975029156E+01  0.27190651011E+00 -0.26162680577E+01  0.62914005338E+01  0.41800000000E+01 0.  1.
         -5    1    1    2    0  502  0.41673340515E+02  0.22711392894E+03  0.88057625375E+03  0.91035675155E+03  0.41800000000E+01 0.  1.
        -11    1    1    2    0    0 -0.55246251517E+02 -0.21170306318E+03  0.11782113359E+04  0.11983539908E+04  0.00000000000E+00 0. -1.
         11    1    1    2    0    0  0.96754080862E+01 -0.15682772270E+02  0.29009816643E+02  0.34367605814E+02  0.00000000000E+00 0.  1.
</event>
<event>
 6    1  0.4988969E-006  0.1355729E+03  0.7561462E-02  0.1219413E+00
         -3   -1    0    0    0  501 -0.00000000000E+00  0.00000000000E+00  0.10243433228E+03  0.10243433228E+03  0.00000000000E+00 0.  1.
          3   -1    0    0  501    0  0.00000000000E+00 -0.00000000000E+00 -0.18821359241E+03  0.18821359241E+03  0.00000000000E+00 0. -1.
          5    1    1    2  502    0  0.55296292803E+02  0.53566452069E+01 -0.33625537601E+02  0.65073211267E+02  0.41800000000E+01 0.  1.
         -5    1    1    2    0  502 -0.29062892514E+02 -0.87220159314E+02 -0.83274874929E+01  0.92405775577E+02  0.41800000000E+01 0.  1.
        -11    1    1    2    0    0 -0.48133026183E+02  0.11192203973E+02 -0.30268608949E+02  0.57950343632E+02  0.00000000000E+00 0. -1.
         11    1    1    2    0    0  0.21899625894E+02  0.70671310134E+02 -0.13557626084E+02  0.75218594213E+02  0.00000000000E+00 0.  1.
</event>
<event>
 6    1  0.4988969E-006  0.1453844E+03  0.7561462E-02  0.1206262E+00
         -1   -1    0    0    0  501 -0.00000000000E+00  0.00000000000E+00  0.10769570907E+03  0.10769570907E+03  0.00000000000E+00 0.  1.
          1   -1    0    0  501    0  0.00000000000E+00 -0.00000000000E+00 -0.22298851465E+03  0.22298851465E+03  0.00000000000E+00 0. -1.
          5    1    1    2  502    0  0.57672238028E+02 -0.44328267792E+02 -0.51615197968E+02  0.89289884230E+02  0.41800000000E+01 0.  1.
         -5    1    1    2    0  502 -0.55361480775E+02 -0.65821072623E+02 -0.31560373540E+01  0.86166931747E+02  0.41800000000E+01 0.  1.
        -11    1    1    2    0    0 -0.34751825758E+02  0.32229280495E+02 -0.52055672781E+02  0.70400347893E+02  0.00000000000E+00 0. -1.
         11    1    1    2    0    0  0.32441068505E+02  0.77920059921E+02 -0.84658974774E+01  0.84827059856E+02  0.00000000000E+00 0.  1.
</event>
<event>
 6    1  0.4988969E-006  0.1615614E+03  0.7561462E-02  0.1186945E+00
         -1   -1    0    0    0  501 -0.00000000000E+00  0.00000000000E+00  0.62402586282E+02  0.62402586282E+02  0.00000000000E+00 0.  1.
          1   -1    0    0  501    0  0.00000000000E+00 -0.00000000000E+00 -0.54541188278E+03  0.54541188278E+03  0.00000000000E+00 0. -1.
          5    1    1    2  502    0  0.13461593071E+03  0.66750778547E+02 -0.10354100329E+03  0.18252486680E+03  0.41800000000E+01 0.  1.
         -5    1    1    2    0  502 -0.65268172768E+01 -0.27465482729E+01 -0.84823546215E+02  0.85221178492E+02  0.41800000000E+01 0.  1.
        -11    1    1    2    0    0 -0.95573457586E+02 -0.83295759296E+02 -0.18653972357E+03  0.22554276264E+03  0.00000000000E+00 0.  1.
         11    1    1    2    0    0 -0.32515655849E+02  0.19291529021E+02 -0.10810502343E+03  0.11452566113E+03  0.00000000000E+00 0. -1.
</event>
<event>
 6    1  0.4988969E-006  0.1936387E+03  0.7561462E-02  0.1155220E+00
          4   -1    0    0  501    0  0.00000000000E+00  0.00000000000E+00  0.20662455864E+03  0.20662455864E+03  0.00000000000E+00 0. -1.
         -4   -1    0    0    0  501 -0.00000000000E+00 -0.00000000000E+00 -0.19331633286E+03  0.19331633286E+03  0.00000000000E+00 0.  1.
          5    1    1    2  502    0  0.10464280030E+03 -0.14543200990E+03 -0.10257932600E+01  0.17921805102E+03  0.41800000000E+01 0. -1.
         -5    1    1    2    0  502 -0.28101637583E+02 -0.21389116241E+01 -0.49459876999E+01  0.28917333420E+02  0.41800000000E+01 0. -1.
        -11    1    1    2    0    0 -0.15954110394E+02 -0.39072394300E+01  0.23422009000E+02  0.28607528101E+02  0.00000000000E+00 0.  1.
         11    1    1    2    0    0 -0.60587052319E+02  0.15147816096E+03 -0.41420022583E+01  0.16319797896E+03  0.00000000000E+00 0. -1.
</event>
<event>
 6    1  0.4988969E-006  0.1095592E+03  0.7561462E-02  0.1261388E+00
         -4   -1    0    0    0  501 -0.00000000000E+00  0.00000000000E+00  0.32154069500E+03  0.32154069500E+03  0.00000000000E+00 0.  1.
          4   -1    0    0  501    0  0.00000000000E+00 -0.00000000000E+00 -0.57613535526E+02  0.57613535526E+02  0.00000000000E+00 0. -1.
          5    1    1    2  502    0  0.30850118619E+02 -0.87076643846E+02  0.14398487054E+03  0.17112330953E+03  0.41800000000E+01 0. -1.
         -5    1    1    2    0  502 -0.47364717625E+02  0.17464160390E+02  0.58124395593E+02  0.77099488565E+02  0.41800000000E+01 0. -1.
        -11    1    1    2    0    0 -0.46879967473E+01  0.35614442266E+02  0.79421450434E+02  0.87167267942E+02  0.00000000000E+00 0.  1.
         11    1    1    2    0    0  0.21202595753E+02  0.33998041190E+02 -0.17603557086E+02  0.43764164490E+02  0.00000000000E+00 0. -1.
</event>
<event>
 6    1  0.4988969E-006  0.1374676E+03  0.7561462E-02  0.1216778E+00
         -1   -1    0    0    0  501 -0.00000000000E+00  0.00000000000E+00  0.27696514637E+02  0.27696514637E+02  0.00000000000E+00 0.  1.
          1   -1    0    0  501    0  0.00000000000E+00 -0.00000000000E+00 -0.10428976166E+04  0.10428976166E+04  0.00000000000E+00 0. -1.
          5    1    1    2  502    0 -0.94033989808E+02  0.73450055296E+01 -0.44438499856E+03  0.45430368663E+03  0.41800000000E+01 0. -1.
         -5    1    1    2    0  502 -0.35490026757E+02  0.13402831452E+02 -0.17721156184E+02  0.42079563527E+02  0.41800000000E+01 0. -1.
        -11    1    1    2    0    0  0.19211937643E+01  0.10752331580E+02 -0.81184090191E+01  0.13609268345E+02  0.00000000000E+00 0.  1.
         11    1    1    2    0    0  0.12760282280E+03 -0.31500168562E+02 -0.54497653818E+03  0.56060161271E+03  0.00000000000E+00 0. -1.
</event>
<event>
 6    1  0.4988969E-006  0.1099974E+03  0.7561462E-02  0.1260575E+00
          1   -1    0    0  501    0  0.00000000000E+00  0.00000000000E+00  0.79322569607E+02  0.79322569607E+02  0.00000000000E+00 0. -1.
         -1   -1    0    0    0  501 -0.00000000000E+00 -0.00000000000E+00 -0.17529924009E+03  0.17529924009E+03  0.00000000000E+00 0.  1.
          5    1    1    2  502    0 -0.49075800318E+02  0.24078842017E+02 -0.45645418600E+02  0.71338639242E+02  0.41800000000E+01 0. -1.
         -5    1    1    2    0  502  0.21129576527E+02 -0.68443067961E+02 -0.13400930931E+02  0.72992944220E+02  0.41800000000E+01 0.  1.
        -11    1    1    2    0    0 -0.25981562449E+02  0.25176348497E+02  0.85578030332E+01  0.37176956622E+02  0.00000000000E+00 0. -1.
         11    1    1    2    0    0  0.53927786240E+02  0.19187877447E+02 -0.45488123985E+02  0.73113269612E+02  0.00000000000E+00 0.  1.
</event>
<event>
 6    1  0.4988969E-006  0.3822779E+03  0.7561462E-02  0.1050095E+00
          1   -1    0    0  501    0  0.00000000000E+00  0.00000000000E+00  0.17749005625E+04  0.17749005625E+04  0.00000000000E+00 0. -1.
         -1   -1    0    0    0  501 -0.00000000000E+00 -0.00000000000E+00 -0.91063139674E+02  0.91063139674E+02  0.00000000000E+00 0.  1.
          5    1    1    2  502    0 -0.18049347824E+03  0.14777208923E+03  0.34557711531E+03  0.41695983148E+03  0.41800000000E+01 0. -1.
         -5    1    1    2    0  502 -0.15828248550E+03  0.45174851655E+01  0.25462488971E+03  0.29987507357E+03  0.41800000000E+01 0. -1.
        -11    1    1    2    0    0  0.17380593827E+03 -0.95887611060E+02  0.70257153060E+03  0.73007512884E+03  0.00000000000E+00 0. -1.
         11    1    1    2    0    0  0.16497002547E+03 -0.56401963337E+02  0.38106388718E+03  0.41905366826E+03  0.00000000000E+00 0.  1.
</event>
<event>
 6    1  0.4988969E-006  0.1719120E+03  0.7561462E-02  0.1175869E+00
          3   -1    0    0  501    0  0.00000000000E+00  0.00000000000E+00  0.40751450104E+02  0.40751450104E+02  0.00000000000E+00 0.  1.
         -3   -1    0    0    0  501 -0.00000000000E+00 -0.00000000000E+00 -0.10576999033E+04  0.10576999033E+04  0.00000000000E+00 0. -1.
          5    1    1    2  502    0 -0.76973636579E+02  0.71400001770E+02 -0.57884866745E+03  0.58830787280E+03  0.41800000000E+01 0.  1.
         -5    1    1    2    0  502 -0.74007890583E+02 -0.19810895643E+02 -0.15382147889E+03  0.17189578011E+03  0.41800000000E+01 0.  1.
        -11    1    1    2    0    0  0.12481630695E+03 -0.30684678779E+02 -0.13966776700E+03  0.18980976036E+03  0.00000000000E+00 0.  1.
         11    1    1    2    0    0  0.26165220217E+02 -0.20904427348E+02 -0.14461053990E+03  0.14843794017E+03  0.00000000000E+00 0. -1.
</event>
<event>
 6    1  0.4988969E-006  0.1043881E+03  0.7561462E-02  0.1271330E+00
         -1   -1    0    0    0  501 -0.00000000000E+00  0.00000000000E+00  0.67427490578E+02  0.67427490578E+02  0.00000000000E+00 0.  1.
          1   -1    0    0  501    0  0.00000000000E+00 -0.00000000000E+00 -0.19100400909E+03  0.19100400909E+03  0.00000000000E+00 0. -1.
          5    1    1    2  502    0  0.27585520560E+02 -0.24612150281E+02  0.12262930544E+02  0.39173597633E+02  0.41800000000E+01 0. -1.
         -5    1    1    2    0  502 -0.24864709719E+02  0.66250751648E+02 -0.50702057407E+02  0.87152664380E+02  0.41800000000E+01 0.  1.
        -11    1    1    2    0    0  0.15280836083E+02  0.26291740725E+02 -0.20943451462E+02  0.36924080772E+02  0.00000000000E+00 0.  1.
         11    1    1    2    0    0 -0.18001646924E+02 -0.67930342092E+02 -0.64193940189E+02  0.95181156884E+02  0.00000000000E+00 0. -1.
</event>
<event>
 6    1  0.4988969E-006  0.1107258E+03  0.7561462E-02  0.1259232E+00
         -2   -1    0    0    0  501 -0.00000000000E+00  0.00000000000E+00  0.15160464910E+03  0.15160464910E+03  0.00000000000E+00 0. -1.
          2   -1    0    0  501    0  0.00000000000E+00 -0.00000000000E+00 -0.13788044432E+03  0.13788044432E+03  0.00000000000E+00 0.  1.
          5    1    1    2  502    0  0.56161341631E+02 -0.39056060726E+02 -0.31787063043E+02  0.75547084325E+02  0.41800000000E+01 0.  1.
         -5    1    1    2    0  502  0.29128019168E+02  0.16982972871E+02  0.76733192179E+02  0.83918520305E+02  0.41800000000E+01 0.  1.
        -11    1    1    2    0    0 -0.32631447681E+02  0.49716665068E+02 -0.37360264710E+02  0.70230673801E+02  0.00000000000E+00 0.  1.
         11    1    1    2    0    0 -0.52657913118E+02 -0.27643577213E+02  0.61383403473E+01  0.59788814985E+02  0.00000000000E+00 0. -1.
</event>
<event>
 6    1  0.4988969E-006  0.1016203E+03  0.7561462E-02  0.1276925E+00
          1   -1    0    0  501    0  0.00000000000E+00  0.00000000000E+00  0.37450340768E+03  0.37450340768E+03  0.00000000000E+00 0. -1.
         -1   -1    0    0    0  501 -0.00000000000E+00 -0.00000000000E+00 -0.49790596190E+02  0.49790596190E+02  0.00000000000E+00 0.  1.
          5    1    1    2  502    0  0.18148506389E+02 -0.48680392036E+02  0.68178596531E+02  0.85819241886E+02  0.41800000000E+01 0. -1.
         -5    1    1    2    0  502  0.16053160964E+02  0.54646594451E+02 -0.73450935462E+01  0.57579311052E+02  0.41800000000E+01 0. -1.
        -11    1    1    2    0    0  0.15236368459E+01  0.37621811546E+02  0.13665189733E+03  0.14174435868E+03  0.00000000000E+00 0.  1.
         11    1    1    2    0    0 -0.35725304199E+02 -0.43588013961E+02  0.12722741117E+03  0.13915109225E+03  0.00000000000E+00 0. -1.
</event>
<event>
 6    1  0.4988969E-006  0.1097315E+03  0.7561462E-02  0.1261068E+00
          2   -1    0    0  501    0  0.00000000000E+00  0.00000000000E+00  0.91167799113E+02  0.91167799113E+02  0.00000000000E+00 0. -1.
         -2   -1    0    0    0  501 -0.00000000000E+00 -0.00000000000E+00 -0.22692831413E+03  0.22692831413E+03  0.00000000000E+00 0.  1.
          5    1    1    2  502    0  0.13709866241E+02  0.37143429383E+02 -0.41404947889E+01  0.40027626407E+02  0.41800000000E+01 0.  1.
         -5    1    1    2    0  502 -0.73009263553E+02 -0.18346245119E+02 -0.15078714186E+03  0.16858579960E+03  0.41800000000E+01 0.  1.
        -11    1    1    2    0    0 -0.91950331455E+00  0.27984667491E+02 -0.70021581866E+01  0.28862039432E+02  0.00000000000E+00 0.  1.
         11    1    1    2    0    0  0.60218900626E+02 -0.46781851755E+02  0.26169279823E+02  0.80620647806E+02  0.00000000000E+00 0. -1.
</event>
<event>
 6    1  0.4988969E-006  0.7873316E+02  0.7561462E-02  0.1332685E+00
         -1   -1    0    0    0  501 -0.00000000000E+00  0.00000000000E+00  0.25104569480E+03  0.25104569480E+03  0.00000000000E+00 0.  1.
          1   -1    0    0  501    0  0.00000000000E+00 -0.00000000000E+00 -0.66919338887E+02  0.66919338887E+02  0.00000000000E+00 0. -1.
          5    1    1    2  502    0 -0.14843145626E+02  0.89759322648E+01 -0.13963377106E+02  0.22656889290E+02  0.41800000000E+01 0. -1.
         -5    1    1    2    0  502 -0.23508849728E+02 -0.43599612113E+02  0.18025193503E+03  0.18698081365E+03  0.41800000000E+01 0.  1.
        -11    1    1    2    0    0  0.31507194564E+02 -0.18375782856E+02  0.36617663863E+02  0.51683904763E+02  0.00000000000E+00 0.  1.
         11    1    1    2    0    0  0.68448007896E+01  0.52999462704E+02 -0.18779865874E+02  0.56643425982E+02  0.00000000000E+00 0. -1.
</event>
<event>
 6    1  0.4988969E-006  0.7809210E+02  0.7561462E-02  0.1334555E+00
         -1   -1    0    0    0  501 -0.00000000000E+00  0.00000000000E+00  0.42142882879E+02  0.42142882879E+02  0.00000000000E+00 0.  1.
          1   -1    0    0  501    0  0.00000000000E+00 -0.00000000000E+00 -0.39573321561E+03  0.39573321561E+03  0.00000000000E+00 0. -1.
          5    1    1    2  502    0 -0.26671661537E+02  0.42103083698E+02 -0.15121282360E+03  0.15926970084E+03  0.41800000000E+01 0. -1.
         -5    1    1    2    0  502 -0.32726065947E+02 -0.21464171713E+02  0.89137088726E+01  0.40356321259E+02  0.41800000000E+01 0. -1.
        -11    1    1    2    0    0  0.40606170025E+02 -0.24775807245E+02 -0.21363469384E+03  0.21886636123E+03  0.00000000000E+00 0. -1.
         11    1    1    2    0    0  0.18791557459E+02  0.41368952605E+01  0.23434758324E+01  0.19383715152E+02  0.00000000000E+00 0.  1.
</event>
<event>
 6    1  0.4988969E-006  0.7380415E+02  0.7561462E-02  0.1347615E+00
         -3   -1    0    0    0  501 -0.00000000000E+00  0.00000000000E+00  0.42830432959E+02  0.42830432959E+02  0.00000000000E+00 0.  1.
          3   -1    0    0  501    0  0.00000000000E+00 -0.00000000000E+00 -0.36176077292E+03  0.36176077292E+03  0.00000000000E+00 0. -1.
          5    1    1    2  502    0  0.78681635660E+01  0.21137979405E+02 -0.12319274692E+03  0.12531020495E+03  0.41800000000E+01 0. -1.
         -5    1    1    2    0  502  0.27442241345E+02 -0.84385852289E+01  0.24826735695E+02  0.38185409988E+02  0.41800000000E+01 0. -1.
        -11    1    1    2    0    0  0.25343248440E+02 -0.22892833451E+02 -0.58307604220E+02  0.67573210482E+02  0.00000000000E+00 0.  1.
         11    1    1    2    0    0 -0.60653653350E+02  0.10193439275E+02 -0.16225672451E+03  0.17352238045E+03  0.00000000000E+00 0. -1.
</event>
<event>
 6    1  0.4988969E-006  0.1124519E+03  0.7561462E-02  0.1256096E+00
          2   -1    0    0  501    0  0.00000000000E+00  0.00000000000E+00  0.32761732222E+02  0.32761732222E+02  0.00000000000E+00 0. -1.
         -2   -1    0    0    0  501 -0.00000000000E+00 -0.00000000000E+00 -0.42125290469E+03  0.42125290469E+03  0.00000000000E+00 0.  1.
          5    1    1    2  502    0 -0.76624978762E+02 -0.39957497036E+02 -0.18380271584E+03  0.20314748260E+03  0.41800000000E+01 0. -1.
         -5    1    1    2    0  502  0.42876561910E+02  0.13364068197E+02 -0.75756565788E+02  0.88167610493E+02  0.41800000000E+01 0. -1.
        -11    1    1    2    0    0  0.51840185961E+02  0.44133066449E+02 -0.11568440261E+03  0.13423119400E+03  0.00000000000E+00 0.  1.
         11    1    1    2    0    0 -0.18091769109E+02 -0.17539637610E+02 -0.13247488239E+02  0.28468349823E+02  0.00000000000E+00 0. -1.
</event>
<event>
 6    1  0.4988969E-006  0.1738652E+03  0.7561462E-02  0.1173876E+00
          3   -1    0    0  501    0  0.00000000000E+00  0.00000000000E+00  0.53057389329E+02  0.53057389329E+02  0.00000000000E+00 0. -1.
         -3   -1    0    0    0  501 -0.00000000000E+00 -0.00000000000E+00 -0.65409437902E+03  0.65409437902E+03  0.00000000000E+00 0.  1.
          5    1    1    2  502    0  0.86197972720E+02 -0.10946851873E+01 -0.11756228871E+03  0.14584119090E+03  0.41800000000E+01 0. -1.
         -5    1    1    2    0  502  0.23849803801E+02 -0.86077740153E+02 -0.28028275385E+03  0.29420075628E+03  0.41800000000E+01 0. -1.
        -11    1    1    2    0    0 -0.10255686687E+03  0.20089696267E+02 -0.13950557270E+03  0.17430809405E+03  0.00000000000E+00 0.  1.
         11    1    1    2    0    0 -0.74909096540E+01  0.67082729074E+02 -0.63686374432E+02  0.92801727116E+02  0.00000000000E+00 0. -1.
</event>
<event>
 6    1  0.4988969E-006  0.9203385E+02  0.7561462E-02  0.1298000E+00
          1   -1    0    0  501    0  0.00000000000E+00  0.00000000000E+00  0.21422761032E+03  0.21422761032E+03  0.00000000000E+00 0. -1.
         -1   -1    0    0    0  501 -0.00000000000E+00 -0.00000000000E+00 -0.10117639351E+03  0.10117639351E+03  0.00000000000E+00 0.  1.
          5    1    1    2  502    0 -0.39524227957E+02 -0.23263014418E+02  0.30876743141E+02  0.55445271236E+02  0.41800000000E+01 0.  1.
         -5    1    1    2    0  502 -0.43917285662E+00  0.57167001975E+02 -0.60560533124E+02  0.83386507061E+02  0.41800000000E+01 0.  1.
        -11    1    1    2    0    0  0.42316803645E+02  0.41935235393E+01  0.18086867491E+02  0.46210737779E+02  0.00000000000E+00 0.  1.
         11    1    1    2    0    0 -0.23534028318E+01 -0.38097511096E+02  0.12464813930E+03  0.13036148775E+03  0.00000000000E+00 0. -1.
</event>
<event>
 6    1  0.4988969E-006  0.1348067E+03  0.7561462E-02  0.1220493E+00
          4   -1    0    0  501    0  0.00000000000E+00  0.00000000000E+00  0.14118875217E+03  0.14118875217E+03  0.00000000000E+00 0. -1.
         -4   -1    0    0    0  501 -0.00000000000E+00 -0.00000000000E+00 -0.17840014587E+03  0.17840014587E+03  0.00000000000E+00 0.  1.
          5    1    1    2  502    0  0.20979378002E+02  0.18397174262E+02  0.30708533310E+02  0.41702239031E+02  0.41800000000E+01 0.  1.
         -5    1    1    2    0  502 -0.49423564077E+02  0.85877320000E+02 -0.90008351585E+02  0.13392751223E+03  0.41800000000E+01 0.  1.
        -11    1    1    2    0    0 -0.24335406898E+02 -0.80939879312E+02  0.14517737931E+02  0.85756870317E+02  0.00000000000E+00 0.  1.
         11    1    1    2    0    0  0.52779592974E+02 -0.23334614950E+02  0.75706866394E+01  0.58202276464E+02  0.00000000000E+00 0. -1.
</event>
<event>
 6    1  0.4988969E-006  0.1008135E+03  0.7561462E-02  0.1278594E+00
         -3   -1    0    0    0  501 -0.00000000000E+00  0.00000000000E+00  0.35304011683E+02  0.35304011683E+02  0.00000000000E+00 0.  1.
          3   -1    0    0  501    0  0.00000000000E+00 -0.00000000000E+00 -0.43565239692E+03  0.43565239692E+03  0.00000000000E+00 0. -1.
          5    1    1    2  502    0 -0.31950690895E+02 -0.14114809875E+02  0.35387936203E+00  0.35180564764E+02  0.41800000000E+01 0. -1.
         -5    1    1    2    0  502  0.68546518427E+02 -0.30891406674E+01 -0.11782770910E+03  0.13641484307E+03  0.41800000000E+01 0.  1.
        -11    1    1    2    0    0 -0.16673533761E+02  0.53643497201E+02 -0.17349030368E+03  0.18235821065E+03  0.00000000000E+00 0.  1.
         11    1    1    2    0    0 -0.19922293770E+02 -0.36439546658E+02 -0.10938425182E+03  0.11700279012E+03  0.00000000000E+00 0. -1.
</event>
<event>
 6    1  0.4988969E-006  0.1547637E+03  0.7561462E-02  0.1194739E+00
          2   -1    0    0  501    0  0.00000000000E+00  0.00000000000E+00  0.32831733150E+03  0.32831733150E+03  0.00000000000E+00 0. -1.
         -2   -1    0    0    0  501 -0.00000000000E+00 -0.00000000000E+00 -0.14002572179E+03  0.14002572179E+03  0.00000000000E+00 0.  1.
          5    1    1    2  502    0  0.64873150531E+02  0.33361787261E+02 -0.19036592212E+02  0.75507607247E+02  0.41800000000E+01 0. -1.
         -5    1    1    2    0  502  0.35061819933E+02 -0.82466540048E+02 -0.45386564962E+02  0.10053593449E+03  0.41800000000E+01 0.  1.
        -11    1    1    2    0    0  0.16931436020E+02 -0.54378168056E+01  0.34825494164E+02  0.39103176611E+02  0.00000000000E+00 0.  1.
         11    1    1    2    0    0 -0.11686640648E+03  0.54542569592E+02  0.21788927272E+03  0.25319633494E+03  0.00000000000E+00 0. -1.
</event>
<event>
 6    1  0.4988969E-006  0.1171023E+03  0.7561462E-02  0.1247955E+00
          2   -1    0    0  501    0  0.00000000000E+00  0.00000000000E+00  0.46392678640E+03  0.46392678640E+03  0.00000000000E+00 0. -1.
         -2   -1    0    0    0  501 -0.00000000000E+00 -0.00000000000E+00 -0.44020510255E+02  0.44020510255E+02  0.00000000000E+00 0.  1.
          5    1    1    2  502    0 -0.35101589250E+02 -0.21605327051E+02  0.19276744163E+02  0.45694386859E+02  0.41800000000E+01 0.  1.
         -5    1    1    2    0  502  0.73738901198E+02  0.56644272838E+02  0.72533948222E+02  0.11800273404E+03  0.41800000000E+01 0.  1.
        -11    1    1    2    0    0 -0.59866056977E+02 -0.46286856881E+02  0.28537477293E+03  0.29523749579E+03  0.00000000000E+00 0. -1.
         11    1    1    2    0    0  0.21228745028E+02  0.11247911095E+02  0.42720810834E+02  0.49012679969E+02  0.00000000000E+00 0.  1.
</event>
<event>
 6    1  0.4988969E-006  0.8287575E+02  0.7561462E-02  0.1321083E+00
         -3   -1    0    0    0  501 -0.00000000000E+00  0.00000000000E+00  0.66520863539E+02  0.66520863539E+02  0.00000000000E+00 0.  1.
          3   -1    0    0  501    0  0.00000000000E+00 -0.00000000000E+00 -0.19661012783E+03  0.19661012783E+03  0.00000000000E+00 0. -1.
          5    1    1    2  502    0 -0.49288153086E+02  0.11036554434E+01 -0.69424268671E+02  0.85251050260E+02  0.41800000000E+01 0.  1.
         -5    1    1    2    0  502  0.43338104829E+02 -0.39168085387E+02  0.84008890296E+01  0.59163988874E+02  0.41800000000E+01 0.  1.
        -11    1    1    2    0    0 -0.16216923278E+02  0.30034584834E+02  0.10515133355E+02  0.35716003643E+02  0.00000000000E+00 0.  1.
         11    1    1    2    0    0  0.22166971536E+02  0.80298451098E+01 -0.79581018010E+02  0.82999948597E+02  0.00000000000E+00 0. -1.
</event>
<event>
 6    1  0.4988969E-006  0.1514256E+03  0.7561462E-02  0.1198732E+00
         -1   -1    0    0    0  501 -0.00000000000E+00  0.00000000000E+00  0.46848256334E+03  0.46848256334E+03  0.00000000000E+00 0.  1.
          1   -1    0    0  501    0  0.00000000000E+00 -0.00000000000E+00 -0.66514484217E+02  0.66514484217E+02  0.00000000000E+00 0. -1.
          5    1    1    2  502    0 -0.11569932973E+03 -0.30607324674E+02  0.18619738752E+03  0.22138220963E+03  0.41800000000E+01 0.  1.
         -5    1    1    2    0  502 -0.77363516991E+01  0.56108687679E+02  0.11543011419E+03  0.12864532496E+03  0.41800000000E+01 0.  1.
        -11    1    1    2    0    0  0.29441824766E+02 -0.96591792708E+01  0.82323913041E+02  0.87962193288E+02  0.00000000000E+00 0.  1.
         11    1    1    2    0    0  0.93993856662E+02 -0.15842183735E+02  0.18016664368E+02  0.97007319676E+02  0.00000000000E+00 0. -1.
</event>
<event>
 6    1  0.4988969E-006  0.2096744E+03  0.7561462E-02  0.1141824E+00
          2   -1    0    0  501    0  0.00000000000E+00  0.00000000000E+00  0.22283616628E+03  0.22283616628E+03  0.00000000000E+00 0. -1.
         -2   -1    0    0    0  501 -0.00000000000E+00 -0.00000000000E+00 -0.22006557419E+03  0.22006557419E+03  0.00000000000E+00 0.  1.
          5    1    1    2  502    0  0.54462169411E+02 -0.11973448945E+02 -0.17218505056E+02  0.58510175978E+02  0.41800000000E+01 0. -1.
         -5    1    1    2    0  502  0.69796359207E+02  0.15530481615E+03 -0.14647242813E+02  0.17094774581E+03  0.41800000000E+01 0. -1.
        -11    1    1    2    0    0 -0.10288285970E+03 -0.94048321569E+02  0.62690953815E+02  0.15284019530E+03  0.00000000000E+00 0. -1.
         11    1    1    2    0    0 -0.21375668920E+02 -0.49283045633E+02 -0.28054613851E+02  0.60603623382E+02  0.00000000000E+00 0.  1.
</event>
<event>
 6    1  0.4988969E-006  0.1067005E+03  0.7561462E-02  0.1266805E+00
         -1   -1    0    0    0  501 -0.00000000000E+00  0.00000000000E+00  0.53686381317E+03  0.53686381317E+03  0.00000000000E+00 0.  1.
          1   -1    0    0  501    0  0.00000000000E+00 -0.00000000000E+00 -0.33829053078E+02  0.33829053078E+02  0.00000000000E+00 0. -1.
          5    1    1    2  502    0  0.65159978087E+02  0.19248219358E+02  0.17334855477E+03  0.18623509480E+03  0.41800000000E+01 0.  1.
         -5    1    1    2    0  502 -0.33502101532E+02 -0.52720571850E+02  0.24253937365E+03  0.25048886138E+03  0.41800000000E+01 0.  1.
        -11    1    1    2    0    0  0.12518201953E+02  0.36359678996E+02  0.80485732934E+02  0.89200251360E+02  0.00000000000E+00 0.  1.
         11    1    1    2    0    0 -0.44176078509E+02 -0.28873265046E+01  0.66610987384E+01  0.44768658716E+02  0.00000000000E+00 0. -1.
</event>
<event>
 6    1  0.4988969E-006  0.8859021E+02  0.7561462E-02  0.1306302E+00
         -1   -1    0    0    0  501 -0.00000000000E+00  0.00000000000E+00  0.37209333745E+03  0.37209333745E+03  0.00000000000E+00 0.  1.
          1   -1    0    0  501    0  0.00000000000E+00 -0.00000000000E+00 -0.51361757550E+02  0.51361757550E+02  0.00000000000E+00 0. -1.
          5    1    1    2  502    0  0.27834309479E+02  0.15910265928E+02  0.12948714750E+02  0.34828536572E+02  0.41800000000E+01 0. -1.
         -5    1    1    2    0  502 -0.47756162879E+02  0.50370225217E+02  0.24588541425E+03  0.25552870684E+03  0.41800000000E+01 0.  1.
        -11    1    1    2    0    0  0.15468520800E+02 -0.90758415256E+01  0.72555018577E+02  0.74738723269E+02  0.00000000000E+00 0.  1.
         11    1    1    2    0    0  0.44533326000E+01 -0.57204649619E+02 -0.10657567673E+02  0.58359128318E+02  0.00000000000E+00 0. -1.
</event>
<event>
 6    1  0.4988969E-006  0.9650342E+02  0.7561462E-02  0.1287825E+00
         -2   -1    0    0    0  501 -0.00000000000E+00  0.00000000000E+00  0.76293321448E+02  0.76293321448E+02  0.00000000000E+00 0.  1.
          2   -1    0    0  501    0  0.00000000000E+00 -0.00000000000E+00 -0.25258723170E+03  0.25258723170E+03  0.00000000000E+00 0. -1.
          5    1    1    2  502    0  0.54834972981E+02  0.42831795351E+02  0.15577773846E+02  0.71425320390E+02  0.41800000000E+01 0. -1.
         -5    1    1    2    0  502 -0.30851127354E+02 -0.44051307298E+02 -0.14851851817E+02  0.55949616943E+02  0.41800000000E+01 0. -1.
        -11    1    1    2    0    0 -0.46404174867E+02 -0.31710210599E+01 -0.17191513866E+03  0.17809609125E+03  0.00000000000E+00 0. -1.
         11    1    1    2    0    0  0.22420329239E+02  0.43905330070E+01 -0.51046936212E+01  0.23409524562E+02  0.00000000000E+00 0.  1.
</event>
<event>
 6    1  0.4988969E-006  0.1074186E+03  0.7561462E-02  0.1265426E+00
         -1   -1    0    0    0  501 -0.00000000000E+00  0.00000000000E+00  0.29982930937E+02  0.29982930937E+02  0.00000000000E+00 0.  1.
          1   -1    0    0  501    0  0.00000000000E+00 -0.00000000000E+00 -0.44042179352E+03  0.44042179352E+03  0.00000000000E+00 0. -1.
          5    1    1    2  502    0  0.28541116497E+02  0.58497575221E+02 -0.10835034706E+03  0.12646672189E+03  0.41800000000E+01 0.  1.
         -5    1    1    2    0  502 -0.51597468291E+01 -0.61012538590E+02 -0.79205513111E+02  0.10020049181E+03  0.41800000000E+01 0.  1.
        -11    1    1    2    0    0 -0.52098210062E+02 -0.15483479484E+02 -0.18541058146E+03  0.19321243580E+03  0.00000000000E+00 0. -1.
         11    1    1    2    0    0  0.28716840394E+02  0.17998442853E+02 -0.37472420945E+02  0.50525074951E+02  0.00000000000E+00 0.  1.
</event>
<event>
 6    1  0.4988969E-006  0.9393901E+02  0.7561462E-02  0.1293584E+00
         -1   -1    0    0    0  501 -0.00000000000E+00  0.00000000000E+00  0.28033318483E+03  0.28033318483E+03  0.00000000000E+00 0.  1.
          1   -1    0    0  501    0  0.00000000000E+00 -0.00000000000E+00 -0.78965720142E+02  0.78965720142E+02  0.00000000000E+00 0. -1.
          5    1    1    2  502    0  0.74565758083E+02  0.19452490574E+02  0.20619528255E+03  0.22016452624E+03  0.41800000000E+01 0. -1.
         -5    1    1    2    0  502 -0.26014613047E+02  0.13099321462E+02  0.17875383502E+01  0.29479145309E+02  0.41800000000E+01 0. -1.
        -11    1    1    2    0    0 -0.70709956110E+01 -0.38703970766E+02  0.33461897272E+02  0.51649732827E+02  0.00000000000E+00 0. -1.
         11    1    1    2    0    0 -0.41480149425E+02  0.61521587301E+01 -0.40077253482E+02  0.58005500601E+02  0.00000000000E+00 0.  1.
</event>
<event>
 6    1  0.4988969E-006  0.9230225E+02  0.7561462E-02  0.1297370E+00
         -1   -1    0    0    0  501 -0.00000000000E+00  0.00000000000E+00  0.22267271310E+02  0.22267271310E+02  0.00000000000E+00 0.  1.
          1   -1    0    0  501    0  0.00000000000E+00 -0.00000000000E+00 -0.62142238274E+03  0.62142238274E+03  0.00000000000E+00 0. -1.
          5    1    1    2  502    0  0.41659716191E+02  0.26351480652E+02 -0.25827749600E+03  0.26297275491E+03  0.41800000000E+01 0.  1.
         -5    1    1    2    0  502 -0.34661797814E+02  0.10744769874E+02 -0.14156221264E+02  0.39176029761E+02  0.41800000000E+01 0.  1.
        -11    1    1    2    0    0 -0.36933255455E+02  0.13907194093E+02 -0.10876054306E+03  0.11569931345E+03  0.00000000000E+00 0. -1.
         11    1    1    2    0    0  0.29935337078E+02 -0.51003444619E+02 -0.21796085111E+03  0.22584155594E+03  0.00000000000E+00 0.  1.
</event>
<event>
 6    1  0.4988969E-006  0.1231100E+03  0.7561462E-02  0.1238053E+00
         -2   -1    0    0    0  501 -0.00000000000E+00  0.00000000000E+00  0.36003301143E+03  0.36003301143E+03  0.00000000000E+00 0.  1.
          2   -1    0    0  501    0  0.00000000000E+00 -0.00000000000E+00 -0.10217203655E+03  0.10217203655E+03  0.00000000000E+00 0. -1.
          5    1    1    2  502    0  0.67186144820E+02  0.55991778043E+01  0.12557290176E+03  0.14258806018E+03  0.41800000000E+01 0. -1.
         -5    1    1    2    0  502 -0.46985371751E+02  0.50618777176E+02  0.18510433116E+03  0.19761318675E+03  0.41800000000E+01 0. -1.
        -11    1    1    2    0    0 -0.19554050953E+01 -0.79710993440E+02 -0.43522771261E+02  0.90839956531E+02  0.00000000000E+00 0.  1.
         11    1    1    2    0    0 -0.18245367974E+02  0.23493038459E+02 -0.92934867890E+01  0.31163844520E+02  0.00000000000E+00 0. -1.
</event>
<event>
 6    1  0.4988969E-006  0.9508937E+02  0.7561462E-02  0.1290975E+00
          2   -1    0    0  501    0  0.00000000000E+00  0.00000000000E+00  0.91800222037E+02  0.91800222037E+02  0.00000000000E+00 0. -1.
         -2   -1    0    0    0  501 -0.00000000000E+00 -0.00000000000E+00 -0.14654910181E+03  0.14654910181E+03  0.00000000000E+00 0.  1.
          5    1    1    2  502    0  0.55522585260E+02 -0.17489184978E+01 -0.11861148775E+02  0.56955907860E+02  0.41800000000E+01 0.  1.
         -5    1    1    2    0  502 -0.63007108907E+02  0.22337851702E+02 -0.54399961083E+02  0.86288490295E+02  0.41800000000E+01 0.  1.
        -11    1    1    2    0    0  0.59026482661E+01  0.23065239654E+02  0.37394202035E+02  0.44330270501E+02  0.00000000000E+00 0. -1.
         11    1    1    2    0    0  0.15818753806E+01 -0.43654172859E+02 -0.25881971947E+02  0.50774655189E+02  0.00000000000E+00 0.  1.
</event>
<event>
 6    1  0.4988969E-006  0.1324764E+03  0.7561462E-02  0.1223827E+00
         -2   -1    0    0    0  501 -0.00000000000E+00  0.00000000000E+00  0.57282620838E+02  0.57282620838E+02  0.00000000000E+00 0.  1.
          2   -1    0    0  501    0  0.00000000000E+00 -0.00000000000E+00 -0.41478134313E+03  0.41478134313E+03  0.00000000000E+00 0. -1.
          5    1    1    2  502    0  0.50080323711E+02  0.43907332836E+02 -0.15060331498E+02  0.68411831467E+02  0.41800000000E+01 0. -1.
         -5    1    1    2    0  502  0.37244132549E+02 -0.24125174195E+02 -0.15328887400E+03  0.15963740392E+03  0.41800000000E+01 0. -1.
        -11    1    1    2    0    0 -0.63950616134E+02  0.49281239467E+02 -0.10929585398E+03  0.13588195452E+03  0.00000000000E+00 0.  1.
         11    1    1    2    0    0 -0.23373840125E+02 -0.69063398108E+02 -0.79853662816E+02  0.10813277406E+03  0.00000000000E+00 0. -1.
</event>
<event>
 6    1  0.4988969E-006  0.1133503E+03  0.7561462E-02  0.1254488E+00
          1   -1    0    0  501    0  0.00000000000E+00  0.00000000000E+00  0.33078895043E+03  0.33078895043E+03  0.00000000000E+00 0. -1.
         -1   -1    0    0    0  501 -0.00000000000E+00 -0.00000000000E+00 -0.53400019016E+02  0.53400019016E+02  0.00000000000E+00 0.  1.
          5    1    1    2  502    0 -0.50856034509E+02  0.64482241434E+01  0.79324232005E+02  0.94539526251E+02  0.41800000000E+01 0. -1.
         -5    1    1    2    0  502  0.33554786863E+02 -0.78278651120E+02  0.43619160735E+02  0.95778779100E+02  0.41800000000E+01 0. -1.
        -11    1    1    2    0    0  0.31441356921E+02  0.22453384596E+02  0.13249811210E+03  0.13801616975E+03  0.00000000000E+00 0. -1.
         11    1    1    2    0    0 -0.14140109275E+02  0.49377042380E+02  0.21947426576E+02  0.55854494339E+02  0.00000000000E+00 0.  1.
</event>
<event>
 6    1  0.4988969E-006  0.6946475E+02  0.7561462E-02  0.1361923E+00
          2   -1    0    0  501    0  0.00000000000E+00  0.00000000000E+00  0.28335392100E+02  0.28335392100E+02  0.00000000000E+00 0. -1.
         -2   -1    0    0    0  501 -0.00000000000E+00 -0.00000000000E+00 -0.58807828659E+03  0.58807828659E+03  0.00000000000E+00 0.  1.
          5    1    1    2  502    0  0.10245456437E+02  0.78272276999E+00 -0.39173081250E+03  0.39188784607E+03  0.41800000000E+01 0. -1.
         -5    1    1    2    0  502  0.41470787476E+02 -0.20493103637E+01 -0.30992702714E+02  0.51981207261E+02  0.41800000000E+01 0. -1.
        -11    1    1    2    0    0 -0.19996577033E+02 -0.33517995482E+02 -0.15093732932E+02  0.41846623376E+02  0.00000000000E+00 0. -1.
         11    1    1    2    0    0 -0.31719666879E+02  0.34784583076E+02 -0.12192564634E+03  0.13069800198E+03  0.00000000000E+00 0.  1.
</event>
<event>
 6    1  0.4988969E-006  0.1667147E+03  0.7561462E-02  0.1181318E+00
         -2   -1    0    0    0  501 -0.00000000000E+00  0.00000000000E+00  0.44891344017E+03  0.44891344017E+03  0.00000000000E+00 0.  1.
          2   -1    0    0  501    0  0.00000000000E+00 -0.00000000000E+00 -0.92035304849E+02  0.92035304849E+02  0.00000000000E+00 0. -1.
          5    1    1    2  502    0 -0.52497650897E+02 -0.34860376152E+01  0.31050122176E+02  0.61235106721E+02  0.41800000000E+01 0.  1.
         -5    1    1    2    0  502 -0.47784808645E+02  0.11566362214E+03  0.26937149024E+03  0.29705207216E+03  0.41800000000E+01 0.  1.
        -11    1    1    2    0    0  0.63692831828E+02 -0.42008283667E+02  0.68594927264E+02  0.10259988679E+03  0.00000000000E+00 0.  1.
         11    1    1    2    0    0  0.36589627714E+02 -0.70169300859E+02 -0.12138404355E+02  0.80061679345E+02  0.00000000000E+00 0. -1.
</event>
<event>
 6    1  0.4988969E-006  0.9131728E+02  0.7561462E-02  0.1299693E+00
          1   -1    0    0  501    0  0.00000000000E+00  0.00000000000E+00  0.98885958349E+02  0.98885958349E+02  0.00000000000E+00 0. -1.
         -1   -1    0    0    0  501 -0.00000000000E+00 -0.00000000000E+00 -0.14836068534E+03  0.14836068534E+03  0.00000000000E+00 0.  1.
          5    1    1    2  502    0 -0.36381860807E+02  0.34352804958E+02 -0.37476672748E+02  0.62655633462E+02  0.41800000000E+01 0.  1.
         -5    1    1    2    0  502  0.45529095152E+02 -0.62571895037E+02 -0.36421092971E+02  0.85627734801E+02  0.41800000000E+01 0.  1.
        -11    1    1    2    0    0  0.19753443053E+01 -0.12531179775E+02  0.48643920483E+02  0.50270900645E+02  0.00000000000E+00 0. -1.
         11    1    1    2    0    0 -0.11122578650E+02  0.40750269853E+02 -0.24220881759E+02  0.48692374784E+02  0.00000000000E+00 0.  1.
</event>
<event>
 6    1  0.4988969E-006  0.8712203E+02  0.7561462E-02  0.1309975E+00
         -1   -1    0    0    0  501 -0.00000000000E+00  0.00000000000E+00  0.35277919067E+03  0.35277919067E+03  0.00000000000E+00 0.  1.
          1   -1    0    0  501    0  0.00000000000E+00 -0.00000000000E+00 -0.48283156027E+02  0.48283156027E+02  0.00000000000E+00 0. -1.
          5    1    1    2  502    0 -0.41828283944E+01  0.44777638943E+01 -0.19691452508E+02  0.21042151144E+02  0.41800000000E+01 0.  1.
         -5    1    1    2    0  502 -0.82295608379E+01  0.69119108371E+02  0.19377707435E+03  0.20594223403E+03  0.41800000000E+01 0.  1.
        -11    1    1    2    0    0  0.36751173395E+02 -0.31205550180E+02  0.17935794875E+02  0.51440527269E+02  0.00000000000E+00 0. -1.
         11    1    1    2    0    0 -0.24338784163E+02 -0.42391322086E+02  0.11247461793E+03  0.12263743426E+03  0.00000000000E+00 0.  1.
</event>
<event>
 6    1  0.4988969E-006  0.1228194E+03  0.7561462E-02  0.1238517E+00
          2   -1    0    0  501    0  0.00000000000E+00  0.00000000000E+00  0.19678708733E+03  0.19678708733E+03  0.00000000000E+00 0. -1.
         -2   -1    0    0    0  501 -0.00000000000E+00 -0.00000000000E+00 -0.82017080806E+02  0.82017080806E+02  0.00000000000E+00 0.  1.
          5    1    1    2  502    0  0.65234662718E+02 -0.48805936963E+02  0.14501753794E+02  0.82857431567E+02  0.41800000000E+01 0.  1.
         -5    1    1    2    0  502 -0.55442314004E+02 -0.86531231780E+01  0.15414640761E+02  0.58342182618E+02  0.41800000000E+01 0.  1.
        -11    1    1    2    0    0  0.19114216717E+02 -0.18449095910E+02  0.27028709759E+02  0.37898200114E+02  0.00000000000E+00 0.  1.
         11    1    1    2    0    0 -0.28906565432E+02  0.75908156051E+02  0.57824902212E+02  0.99706353839E+02  0.00000000000E+00 0. -1.
</event>
<event>
 6    1  0.4988969E-006  0.2802991E+03  0.7561462E-02  0.1095526E+00
          1   -1    0    0  501    0  0.00000000000E+00  0.00000000000E+00  0.46312527110E+03  0.46312527110E+03  0.00000000000E+00 0. -1.
         -1   -1    0    0    0  501 -0.00000000000E+00 -0.00000000000E+00 -0.22638262580E+03  0.22638262580E+03  0.00000000000E+00 0.  1.
          5    1    1    2  502    0  0.16602224349E+03  0.43652286356E+02 -0.46589791237E+02  0.17792410878E+03  0.41800000000E+01 0.  1.
         -5    1    1    2    0  502  0.52842463957E+02  0.10456727618E+03  0.55874563377E+01  0.11736836589E+03  0.41800000000E+01 0.  1.
        -11    1    1    2    0    0 -0.89100782646E+02 -0.24622056615E+02  0.52258900542E+02  0.10618939601E+03  0.00000000000E+00 0.  1.
         11    1    1    2    0    0 -0.12976392480E+03 -0.12359750592E+03  0.22548607966E+03  0.28802602620E+03  0.00000000000E+00 0. -1.
</event>
<event>
 6    1  0.4988969E-006  0.1187908E+03  0.7561462E-02  0.1245105E+00
         -2   -1    0    0    0  501 -0.00000000000E+00  0.00000000000E+00  0.16897839828E+03  0.16897839828E+03  0.00000000000E+00 0.  1.
          2   -1    0    0  501    0  0.00000000000E+00 -0.00000000000E+00 -0.10153679382E+03  0.10153679382E+03  0.00000000000E+00 0. -1.
          5    1    1    2  502    0 -0.38745129358E+02 -0.25105613665E+02  0.10356521800E+02  0.47499545579E+02  0.41800000000E+01 0. -1.
         -5    1    1    2    0  502  0.94961686613E+02 -0.19639977687E+02  0.45471603332E+02  0.10718483921E+03  0.41800000000E+01 0. -1.
        -11    1    1    2    0    0  0.10160375134E+02  0.21593933110E+02 -0.26666131238E+02  0.35785663683E+02  0.00000000000E+00 0.  1.
         11    1    1    2    0    0 -0.66376932389E+02  0.23151658242E+02  0.38279610562E+02  0.80045143622E+02  0.00000000000E+00 0. -1.
</event>
<event>
 6    1  0.4988969E-006  0.9285032E+02  0.7561462E-02  0.1296092E+00
         -3   -1    0    0    0  501 -0.00000000000E+00  0.00000000000E+00  0.30019363564E+03  0.30019363564E+03  0.00000000000E+00 0.  1.
          3   -1    0    0  501    0  0.00000000000E+00 -0.00000000000E+00 -0.47526528223E+02  0.47526528223E+02  0.00000000000E+00 0. -1.
          5    1    1    2  502    0 -0.44647793846E+02 -0.34048404461E+02  0.67296587713E+02  0.87744073643E+02  0.41800000000E+01 0.  1.
         -5    1    1    2    0  502  0.52086371111E+02  0.41220034832E+02  0.13102693569E+03  0.14696125885E+03  0.41800000000E+01 0.  1.
        -11    1    1    2    0    0 -0.26959784514E+02 -0.24730866056E+02  0.72420843561E+02  0.81137071053E+02  0.00000000000E+00 0.  1.
         11    1    1    2    0    0  0.19521207250E+02  0.17559235685E+02 -0.18077259544E+02  0.31877760319E+02  0.00000000000E+00 0. -1.
</event>
<event>
 6    1  0.5107000E-006  0.2403074E+03  0.7561462E-02  0.1119588E+00
          1   -1    0    0  501    0  0.00000000000E+00  0.00000000000E+00  0.34579483028E+03  0.34579483028E+03  0.00000000000E+00 0. -1.
         -1   -1    0    0    0  501 -0.00000000000E+00 -0.00000000000E+00 -0.18329550433E+03  0.18329550433E+03  0.00000000000E+00 0.  1.
          5    1    1    2  502    0 -0.27504453052E+01  0.22822516139E+02  0.18074188209E+02  0.29539479882E+02  0.41800000000E+01 0.  1.
         -5    1    1    2    0  502  0.22728221253E+03 -0.44545734651E+02  0.44434199825E+02  0.23586732949E+03  0.41800000000E+01 0.  1.
        -11    1    1    2    0    0 -0.70771791668E+02  0.84457118055E+01 -0.12948902468E+02  0.72440669647E+02  0.00000000000E+00 0.  1.
         11    1    1    2    0    0 -0.15375997556E+03  0.13277506707E+02  0.11293984038E+03  0.19124285559E+03  0.00000000000E+00 0. -1.
</event>
<event>
 6    1  0.4988969E-006  0.2217367E+03  0.7561462E-02  0.1132595E+00
         -2   -1    0    0    0  501 -0.00000000000E+00  0.00000000000E+00  0.38388207970E+02  0.38388207970E+02  0.00000000000E+00 0.  1.
          2   -1    0    0  501    0  0.00000000000E+00 -0.00000000000E+00 -0.14564249186E+04  0.14564249186E+04  0.00000000000E+00 0. -1.
          5    1    1    2  502    0 -0.69731995624E+02  0.12072085795E+03 -0.30822037768E+03  0.33830954816E+03  0.41800000000E+01 0. -1.
         -5    1    1    2    0  502 -0.94124256320E+02  0.89085096990E+01 -0.38419413980E+03  0.39567833733E+03  0.41800000000E+01 0. -1.
        -11    1    1    2    0    0  0.42151380035E+02 -0.26099519344E+02 -0.68516691713E+02  0.84572222343E+02  0.00000000000E+00 0.  1.
         11    1    1    2    0    0  0.12170487191E+03 -0.10352984831E+03 -0.65710550145E+03  0.67625301875E+03  0.00000000000E+00 0. -1.
</event>
<event>
 6    1  0.4988969E-006  0.9870180E+02  0.7561462E-02  0.1283050E+00
          1   -1    0    0  501    0  0.00000000000E+00  0.00000000000E+00  0.33002008086E+03  0.33002008086E+03  0.00000000000E+00 0. -1.
         -1   -1    0    0    0  501 -0.00000000000E+00 -0.00000000000E+00 -0.65461929795E+02  0.65461929795E+02  0.00000000000E+00 0.  1.
          5    1    1    2  502    0  0.27369242393E+02 -0.70433427269E+02 -0.15732772849E+02  0.77297707906E+02  0.41800000000E+01 0.  1.
         -5    1    1    2    0  502 -0.12151533821E+02  0.40166302935E+02  0.32783259649E+02  0.53415411437E+02  0.41800000000E+01 0.  1.
        -11    1    1    2    0    0 -0.30861618518E+02 -0.13041932713E+02  0.39831140955E+02  0.52048547494E+02  0.00000000000E+00 0.  1.
         11    1    1    2    0    0  0.15643909946E+02  0.43309057047E+02  0.20767652331E+03  0.21272034382E+03  0.00000000000E+00 0. -1.
</event>
<event>
 6    1  0.4988969E-006  0.9793135E+02  0.7561462E-02  0.1284707E+00
          2   -1    0    0  501    0  0.00000000000E+00  0.00000000000E+00  0.43730102342E+02  0.43730102342E+02  0.00000000000E+00 0.  1.
         -2   -1    0    0    0  501 -0.00000000000E+00 -0.00000000000E+00 -0.33482504315E+03  0.33482504315E+03  0.00000000000E+00 0. -1.
          5    1    1    2  502    0 -0.30164158638E+02 -0.69992617855E+02 -0.57010001528E+02  0.95270434525E+02  0.41800000000E+01 0.  1.
         -5    1    1    2    0  502  0.23570314778E+01  0.29229967368E+02 -0.14136548711E+03  0.14443552173E+03  0.41800000000E+01 0.  1.
        -11    1    1    2    0    0  0.52986649667E+02  0.17979168420E+02 -0.21488548287E+02  0.59938245282E+02  0.00000000000E+00 0.  1.
         11    1    1    2    0    0 -0.25179522507E+02  0.22783482066E+02 -0.71230903877E+02  0.78910943955E+02  0.00000000000E+00 0. -1.
</event>
<event>
 6    1  0.4988969E-006  0.1383683E+03  0.7561462E-02  0.1215542E+00
         -2   -1    0    0    0  501 -0.00000000000E+00  0.00000000000E+00  0.31510496929E+02  0.31510496929E+02  0.00000000000E+00 0.  1.
          2   -1    0    0  501    0  0.00000000000E+00 -0.00000000000E+00 -0.71170069054E+03  0.71170069054E+03  0.00000000000E+00 0. -1.
          5    1    1    2  502    0 -0.10884942975E+03 -0.37857189835E+02 -0.27816494777E+03  0.30112219405E+03  0.41800000000E+01 0. -1.
         -5    1    1    2    0  502  0.26974686147E+02 -0.14034454784E+02 -0.20591506086E+02  0.36960548382E+02  0.41800000000E+01 0. -1.
        -11    1    1    2    0    0  0.70394295544E+02 -0.69824720469E+01 -0.26332073070E+03  0.27265714547E+03  0.00000000000E+00 0. -1.
         11    1    1    2    0    0  0.11480448063E+02  0.58874116666E+02 -0.11811300906E+03  0.13247129957E+03  0.00000000000E+00 0.  1.
</event>
<event>
 6    1  0.4988969E-006  0.1648541E+03  0.7561462E-02  0.1183323E+00
         -2   -1    0    0    0  501 -0.00000000000E+00  0.00000000000E+00  0.13632615646E+03  0.13632615646E+03  0.00000000000E+00 0. -1.
          2   -1    0    0  501    0  0.00000000000E+00 -0.00000000000E+00 -0.20990189437E+03  0.20990189437E+03  0.00000000000E+00 0.  1.
          5    1    1    2  502    0  0.12383017885E+03  0.30031961063E+02 -0.28446642834E+02  0.13062356514E+03  0.41800000000E+01 0.  1.
         -5    1    1    2    0  502 -0.20803082995E+02  0.45510465563E+02  0.12553062665E+01  0.50229661871E+02  0.41800000000E+01 0.  1.
        -11    1    1    2    0    0 -0.89005624672E+01 -0.54932986745E+02 -0.40523328380E+02  0.68840345640E+02  0.00000000000E+00 0.  1.
         11    1    1    2    0    0 -0.94126533392E+02 -0.20609439881E+02 -0.58610729617E+01  0.96534478177E+02  0.00000000000E+00 0. -1.
</event>
<event>
 6    1  0.4988969E-006  0.1772718E+03  0.7561462E-02  0.1170470E+00
          2   -1    0    0  501    0  0.00000000000E+00  0.00000000000E+00  0.70971147366E+03  0.70971147366E+03  0.00000000000E+00 0. -1.
         -2   -1    0    0    0  501 -0.00000000000E+00 -0.00000000000E+00 -0.56004838016E+02  0.56004838016E+02  0.00000000000E+00 0.  1.
          5    1    1    2  502    0 -0.19716133337E+02 -0.97704296496E+01  0.78739647102E+02  0.81863249600E+02  0.41800000000E+01 0.  1.
         -5    1    1    2    0  502  0.12797814492E+03 -0.10411629933E+03  0.15626164982E+03  0.22727469056E+03  0.41800000000E+01 0.  1.
        -11    1    1    2    0    0 -0.37683766221E+02  0.80816230870E+02  0.31164795273E+03  0.32415393851E+03  0.00000000000E+00 0. -1.
         11    1    1    2    0    0 -0.70578245361E+02  0.33070498110E+02  0.10705738599E+03  0.13242443301E+03  0.00000000000E+00 0.  1.
</event>
<event>
 6    1  0.4988969E-006  0.8481577E+02  0.7561462E-02  0.1315915E+00
          1   -1    0    0  501    0  0.00000000000E+00  0.00000000000E+00  0.10465705302E+03  0.10465705302E+03  0.00000000000E+00 0. -1.
         -1   -1    0    0    0  501 -0.00000000000E+00 -0.00000000000E+00 -0.14925271271E+03  0.14925271271E+03  0.00000000000E+00 0.  1.
          5    1    1    2  502    0  0.24329317779E+02 -0.51685695766E+02  0.35960764990E+01  0.57391036030E+02  0.41800000000E+01 0. -1.
         -5    1    1    2    0  502  0.11456067342E+01  0.40338621398E+02 -0.85684706136E+02  0.94804314547E+02  0.41800000000E+01 0. -1.
        -11    1    1    2    0    0 -0.26548521344E+02  0.37313249467E+02  0.54095014402E+02  0.70875758582E+02  0.00000000000E+00 0. -1.
         11    1    1    2    0    0  0.10735968311E+01 -0.25966175098E+02 -0.16602044449E+02  0.30838656574E+02  0.00000000000E+00 0.  1.
</event>
<event>
 6    1  0.4988969E-006  0.6723472E+02  0.7561462E-02  0.1369757E+00
          1   -1    0    0  501    0  0.00000000000E+00  0.00000000000E+00  0.41974112688E+02  0.41974112688E+02  0.00000000000E+00 0. -1.
         -1   -1    0    0    0  501 -0.00000000000E+00 -0.00000000000E+00 -0.39257879447E+03  0.39257879447E+03  0.00000000000E+00 0.  1.
          5    1    1    2  502    0  0.51058595085E+02 -0.27681378197E+02 -0.56978051645E+02  0.81469071433E+02  0.41800000000E+01 0. -1.
         -5    1    1    2    0  502 -0.64497038718E+01  0.42276397119E+01 -0.23537064862E+03  0.23553404478E+03  0.41800000000E+01 0.  1.
        -11    1    1    2    0    0 -0.27096625491E+02  0.36622369767E+02  0.93286154421E+01  0.46502130558E+02  0.00000000000E+00 0. -1.
         11    1    1    2    0    0 -0.17512265722E+02 -0.13168631282E+02 -0.67584596956E+02  0.71047660385E+02  0.00000000000E+00 0.  1.
</event>
<event>
 6    1  0.4988969E-006  0.1065372E+03  0.7561462E-02  0.1267120E+00
          1   -1    0    0  501    0  0.00000000000E+00  0.00000000000E+00  0.59547538937E+03  0.59547538937E+03  0.00000000000E+00 0. -1.
         -1   -1    0    0    0  501 -0.00000000000E+00 -0.00000000000E+00 -0.32141612299E+02  0.32141612299E+02  0.00000000000E+00 0.  1.
          5    1    1    2  502    0  0.51977324005E+02 -0.10477654504E+02  0.39854210575E+02  0.66462425138E+02  0.41800000000E+01 0.  1.
         -5    1    1    2    0  502 -0.18423451793E+02  0.80140926349E+02  0.18033054356E+03  0.19823866675E+03  0.41800000000E+01 0.  1.
        -11    1    1    2    0    0 -0.23904658276E+02 -0.55306043750E+02  0.34004448867E+03  0.34534105669E+03  0.00000000000E+00 0. -1.
         11    1    1    2    0    0 -0.96492139357E+01 -0.14357228095E+02  0.31045342603E+01  0.17574853089E+02  0.00000000000E+00 0.  1.
</event>
<event>
 6    1  0.4988969E-006  0.8181319E+02  0.7561462E-02  0.1323983E+00
          2   -1    0    0  501    0  0.00000000000E+00  0.00000000000E+00  0.27362608396E+03  0.27362608396E+03  0.00000000000E+00 0. -1.
         -2   -1    0    0    0  501 -0.00000000000E+00 -0.00000000000E+00 -0.53762126740E+02  0.53762126740E+02  0.00000000000E+00 0.  1.
          5    1    1    2  502    0  0.31062236920E+02 -0.16278221992E+02  0.11107012037E+03  0.11654993399E+03  0.41800000000E+01 0.  1.
         -5    1    1    2    0  502  0.77546120617E+01  0.49826713568E+02 -0.10843697430E+02  0.51748367773E+02  0.41800000000E+01 0.  1.
        -11    1    1    2    0    0  0.33584426882E+01 -0.35337105239E+02  0.11028008545E+03  0.11585200642E+03  0.00000000000E+00 0. -1.
         11    1    1    2    0    0 -0.42175291670E+02  0.17886136619E+01  0.93574488353E+01  0.43237902527E+02  0.00000000000E+00 0.  1.
</event>
<event>
 6    1  0.4988969E-006  0.1095993E+03  0.7561462E-02  0.1261314E+00
          2   -1    0    0  501    0  0.00000000000E+00  0.00000000000E+00  0.18572154487E+03  0.18572154487E+03  0.00000000000E+00 0.  1.
         -2   -1    0    0    0  501 -0.00000000000E+00 -0.00000000000E+00 -0.10460858545E+03  0.10460858545E+03  0.00000000000E+00 0. -1.
          5    1    1    2  502    0 -0.74127845152E+02 -0.62634503323E+02 -0.16341780260E+02  0.98501495498E+02  0.41800000000E+01 0.  1.
         -5    1    1    2    0  502  0.32926514896E+02  0.22964672217E+02 -0.90292207749E+01  0.41358563576E+02  0.41800000000E+01 0.  1.
        -11    1    1    2    0    0  0.53954329232E+02  0.42446227682E+02  0.11567150686E+03  0.13450891936E+03  0.00000000000E+00 0.  1.
         11    1    1    2    0    0 -0.12752998977E+02 -0.27763965758E+01 -0.91875464056E+01  0.15961151895E+02  0.00000000000E+00 0. -1.
</event>
<event>
 6    1  0.4988969E-006  0.1417420E+03  0.7561462E-02  0.1211004E+00
          2   -1    0    0  501    0  0.00000000000E+00  0.00000000000E+00  0.99182049956E+03  0.99182049956E+03  0.00000000000E+00 0. -1.
         -2   -1    0    0    0  501 -0.00000000000E+00 -0.00000000000E+00 -0.38116016841E+02  0.38116016841E+02  0.00000000000E+00 0.  1.
          5    1    1    2  502    0  0.11087675355E+03  0.46961517780E+02  0.52770536078E+03  0.54128500702E+03  0.41800000000E+01 0. -1.
         -5    1    1    2    0  502 -0.38546610387E+02 -0.28940552980E+01 -0.58490407850E+01  0.39317940008E+02  0.41800000000E+01 0.  1.
        -11    1    1    2    0    0  0.49319729401E+01 -0.46556282965E+02  0.16555840930E+03  0.17205057028E+03  0.00000000000E+00 0. -1.
         11    1    1    2    0    0 -0.77262116102E+02  0.24888204830E+01  0.26628975342E+03  0.27728299910E+03  0.00000000000E+00 0.  1.
</event>
<event>
 6    1  0.4988969E-006  0.1356583E+03  0.7561462E-02  0.1219293E+00
         -3   -1    0    0    0  501 -0.00000000000E+00  0.00000000000E+00  0.15068720610E+04  0.15068720610E+04  0.00000000000E+00 0.  1.
          3   -1    0    0  501    0  0.00000000000E+00 -0.00000000000E+00 -0.19463269364E+02  0.19463269364E+02  0.00000000000E+00 0. -1.
          5    1    1    2  502    0  0.74575733478E+02 -0.76709447397E+02  0.61874397965E+03  0.62793906081E+03  0.41800000000E+01 0. -1.
         -5    1    1    2    0  502 -0.37567680761E+02 -0.12639093775E+02  0.55152165373E+03  0.55295993007E+03  0.41800000000E+01 0. -1.
        -11    1    1    2    0    0  0.15609357042E+00 -0.14290855349E+02  0.62050676457E+01  0.15580621820E+02  0.00000000000E+00 0. -1.
         11    1    1    2    0    0 -0.37164146287E+02  0.10363939652E+03  0.31093809062E+03  0.32985571767E+03  0.00000000000E+00 0.  1.
</event>
<event>
 6    1  0.4988969E-006  0.1189954E+03  0.7561462E-02  0.1244764E+00
          2   -1    0    0  501    0  0.00000000000E+00  0.00000000000E+00  0.33707753642E+03  0.33707753642E+03  0.00000000000E+00 0. -1.
         -2   -1    0    0    0  501 -0.00000000000E+00 -0.00000000000E+00 -0.74159327176E+02  0.74159327176E+02  0.00000000000E+00 0.  1.
          5    1    1    2  502    0 -0.35361831744E+02 -0.26316239958E+02  0.79774729879E+02  0.91238607821E+02  0.41800000000E+01 0. -1.
         -5    1    1    2    0  502  0.26464248273E+02 -0.69087755802E+02 -0.20867151379E+02  0.76983016602E+02  0.41800000000E+01 0. -1.
        -11    1    1    2    0    0 -0.21003579390E+02  0.14933899327E+01  0.60994316203E+01  0.21922217652E+02  0.00000000000E+00 0.  1.
         11    1    1    2    0    0  0.29901162862E+02  0.93910605827E+02  0.19791119912E+03  0.22109302152E+03  0.00000000000E+00 0. -1.
</event>
<event>
 6    1  0.4988969E-006  0.1123265E+03  0.7561462E-02  0.1256321E+00
          2   -1    0    0  501    0  0.00000000000E+00  0.00000000000E+00  0.49545730111E+03  0.49545730111E+03  0.00000000000E+00 0. -1.
         -2   -1    0    0    0  501 -0.00000000000E+00 -0.00000000000E+00 -0.72684567426E+02  0.72684567426E+02  0.00000000000E+00 0.  1.
          5    1    1    2  502    0  0.16291645179E+01 -0.15468989426E+02  0.16726093367E+03  0.16803462781E+03  0.41800000000E+01 0. -1.
         -5    1    1    2    0  502 -0.16968971460E+02 -0.76637548666E+02 -0.31636199687E+02  0.84732410497E+02  0.41800000000E+01 0.  1.
        -11    1    1    2    0    0 -0.19862742615E+02  0.92629620136E+02  0.19696929711E+03  0.21856733305E+03  0.00000000000E+00 0. -1.
         11    1    1    2    0    0  0.35202549557E+02 -0.52308204527E+00  0.90178702593E+02  0.96807497187E+02  0.00000000000E+00 0.  1.
</event>
<event>
 6    1  0.4988969E-006  0.3043030E+03  0.7561462E-02  0.1083109E+00
          2   -1    0    0  501    0  0.00000000000E+00  0.00000000000E+00  0.38629793623E+03  0.38629793623E+03  0.00000000000E+00 0. -1.
         -2   -1    0    0    0  501 -0.00000000000E+00 -0.00000000000E+00 -0.25429335031E+03  0.25429335031E+03  0.00000000000E+00 0.  1.
          5    1    1    2  502    0 -0.30570238539E+02 -0.40973849192E+02  0.16905961825E+02  0.54006293589E+02  0.41800000000E+01 0. -1.
         -5    1    1    2    0  502 -0.26149620362E+03  0.42414748198E+02  0.16137465302E+02  0.26543768678E+03  0.41800000000E+01 0. -1.
        -11    1    1    2    0    0  0.18872613562E+03 -0.72336254810E+01  0.10746082372E+03  0.21729636039E+03  0.00000000000E+00 0.  1.
         11    1    1    2    0    0  0.10334030655E+03  0.57927264752E+01 -0.84996649264E+01  0.10385094579E+03  0.00000000000E+00 0. -1.
</event>
<event>
 6    1  0.4988969E-006  0.7012029E+02  0.7561462E-02  0.1359684E+00
          2   -1    0    0  501    0  0.00000000000E+00  0.00000000000E+00  0.72276431309E+02  0.72276431309E+02  0.00000000000E+00 0. -1.
         -2   -1    0    0    0  501 -0.00000000000E+00 -0.00000000000E+00 -0.28388878039E+03  0.28388878039E+03  0.00000000000E+00 0.  1.
          5    1    1    2  502    0 -0.65419026616E+02  0.12848173725E+02 -0.76110703751E+02  0.10126715280E+03  0.41800000000E+01 0. -1.
         -5    1    1    2    0  502  0.25407959727E+02 -0.90560008055E+01 -0.18451840040E+03  0.18652637361E+03  0.41800000000E+01 0.  1.
        -11    1    1    2    0    0  0.12729598551E+02  0.94170490773E+01  0.91409293055E+01  0.18283327956E+02  0.00000000000E+00 0.  1.
         11    1    1    2    0    0  0.27281468339E+02 -0.13209221997E+02  0.39875825756E+02  0.50088357332E+02  0.00000000000E+00 0. -1.
</event>
<event>
 6    1  0.4988969E-006  0.1178874E+03  0.7561462E-02  0.1246623E+00
         -1   -1    0    0    0  501 -0.00000000000E+00  0.00000000000E+00  0.22829265026E+02  0.22829265026E+02  0.00000000000E+00 0.  1.
          1   -1    0    0  501    0  0.00000000000E+00 -0.00000000000E+00 -0.66754548703E+03  0.66754548703E+03  0.00000000000E+00 0. -1.
          5    1    1    2  502    0 -0.29758411971E+02 -0.80008358671E+02 -0.19859990391E+03  0.21620891464E+03  0.41800000000E+01 0. -1.
         -5    1    1    2    0  502  0.26113819739E+02  0.36234188341E+02 -0.66841563698E+02  0.80499161633E+02  0.41800000000E+01 0. -1.
        -11    1    1    2    0    0 -0.18881575349E+02 -0.25998442299E+02 -0.11917964962E+03  0.12343509133E+03  0.00000000000E+00 0. -1.
         11    1    1    2    0    0  0.22526167582E+02  0.69772612629E+02 -0.26009510479E+03  0.27023158445E+03  0.00000000000E+00 0.  1.
</event>
<event>
 6    1  0.4988969E-006  0.8706729E+02  0.7561462E-02  0.1310113E+00
         -2   -1    0    0    0  501 -0.00000000000E+00  0.00000000000E+00  0.15166858762E+03  0.15166858762E+03  0.00000000000E+00 0.  1.
          2   -1    0    0  501    0  0.00000000000E+00 -0.00000000000E+00 -0.10067466119E+03  0.10067466119E+03  0.00000000000E+00 0. -1.
          5    1    1    2  502    0 -0.23817168544E+02 -0.44921002164E+02 -0.15527593088E+02  0.53326658436E+02  0.41800000000E+01 0.  1.
         -5    1    1    2    0  502 -0.20237688250E+01  0.25863491697E+02  0.94420978784E+02  0.98009231594E+02  0.41800000000E+01 0.  1.
        -11    1    1    2    0    0 -0.13955307028E+02 -0.30347133819E+02 -0.62948997280E+01  0.33990070431E+02  0.00000000000E+00 0.  1.
         11    1    1    2    0    0  0.39796244397E+02  0.49404644286E+02 -0.21604559545E+02  0.67017288353E+02  0.00000000000E+00 0. -1.
</event>
<event>
 6    1  0.4988969E-006  0.8865935E+02  0.7561462E-02  0.1306131E+00
          2   -1    0    0  501    0  0.00000000000E+00  0.00000000000E+00  0.40761462514E+03  0.40761462514E+03  0.00000000000E+00 0.  1.
         -2   -1    0    0    0  501 -0.00000000000E+00 -0.00000000000E+00 -0.34455074742E+02  0.34455074742E+02  0.00000000000E+00 0. -1.
          5    1    1    2  502    0 -0.33615567041E+01  0.16603373095E+02 -0.92165631316E+01  0.19732954608E+02  0.41800000000E+01 0.  1.
         -5    1    1    2    0  502 -0.13256226013E+02 -0.58198456626E+02  0.23263723386E+03  0.24020895666E+03  0.41800000000E+01 0.  1.
        -11    1    1    2    0    0  0.31028882270E+02  0.65297840169E+02  0.12751538802E+03  0.14658367456E+03  0.00000000000E+00 0.  1.
         11    1    1    2    0    0 -0.14411099552E+02 -0.23702756637E+02  0.22223491643E+02  0.35544114046E+02  0.00000000000E+00 0. -1.
</event>
<event>
 6    1  0.4988969E-006  0.1087030E+03  0.7561462E-02  0.1262991E+00
         -1   -1    0    0    0  501 -0.00000000000E+00  0.00000000000E+00  0.13806897202E+02  0.13806897202E+02  0.00000000000E+00 0.  1.
          1   -1    0    0  501    0  0.00000000000E+00 -0.00000000000E+00 -0.10935664161E+04  0.10935664161E+04  0.00000000000E+00 0. -1.
          5    1    1    2  502    0  0.36364651167E+02  0.22751272410E+02 -0.46453306611E+03  0.46652808078E+03  0.41800000000E+01 0.  1.
         -5    1    1    2    0  502 -0.59723330227E+02  0.27121612702E+02 -0.16372531839E+03  0.17642536760E+03  0.41800000000E+01 0.  1.
        -11    1    1    2    0    0 -0.33680310244E+02 -0.37142137662E+02 -0.19464878620E+03  0.20100261604E+03  0.00000000000E+00 0.  1.
         11    1    1    2    0    0  0.57038989304E+02 -0.12730747450E+02 -0.25685234820E+03  0.26341724888E+03  0.00000000000E+00 0. -1.
</event>
<event>
 6    1  0.4988969E-006  0.1146012E+03  0.7561462E-02  0.1252279E+00
         -1   -1    0    0    0  501 -0.00000000000E+00  0.00000000000E+00  0.25365474162E+03  0.25365474162E+03  0.00000000000E+00 0.  1.
          1   -1    0    0  501    0  0.00000000000E+00 -0.00000000000E+00 -0.53468532524E+02  0.53468532524E+02  0.00000000000E+00 0. -1.
          5    1    1    2  502    0 -0.69131032027E+02  0.15436956030E+02  0.72676143960E+02  0.10157112533E+03  0.41800000000E+01 0.  1.
         -5    1    1    2    0  502  0.54999412275E+02  0.29768972378E+02  0.56736627482E+02  0.84543742317E+02  0.41800000000E+01 0.  1.
        -11    1    1    2    0    0  0.34404824860E+02 -0.60888300795E+02  0.63251831806E+02  0.94296719848E+02  0.00000000000E+00 0.  1.
         11    1    1    2    0    0 -0.20273205108E+02  0.15682372387E+02  0.75216058519E+01  0.26711686649E+02  0.00000000000E+00 0. -1.
</event>
<event>
 6    1  0.4988969E-006  0.1242893E+03  0.7561462E-02  0.1236184E+00
          1   -1    0    0  501    0  0.00000000000E+00  0.00000000000E+00  0.28002803641E+03  0.28002803641E+03  0.00000000000E+00 0. -1.
         -1   -1    0    0    0  501 -0.00000000000E+00 -0.00000000000E+00 -0.83145570550E+02  0.83145570550E+02  0.00000000000E+00 0.  1.
          5    1    1    2  502    0 -0.19417789019E+02  0.44135573603E+01  0.62034420172E+02  0.65286075889E+02  0.41800000000E+01 0. -1.
         -5    1    1    2    0  502  0.32537089439E+02 -0.10631601420E+03  0.94218106189E+01  0.11166019873E+03  0.41800000000E+01 0. -1.
        -11    1    1    2    0    0  0.21074053612E+02  0.55213934681E+02  0.11227784809E+03  0.12688187219E+03  0.00000000000E+00 0. -1.
         11    1    1    2    0    0 -0.34193354032E+02  0.46688522157E+02  0.13148386981E+02  0.59345460158E+02  0.00000000000E+00 0.  1.
</event>
<event>
 6    1  0.4988969E-006  0.9167899E+02  0.7561462E-02  0.1298836E+00
          2   -1    0    0  501    0  0.00000000000E+00  0.00000000000E+00  0.53230632892E+02  0.53230632892E+02  0.00000000000E+00 0. -1.
         -2   -1    0    0    0  501 -0.00000000000E+00 -0.00000000000E+00 -0.24336762396E+03  0.24336762396E+03  0.00000000000E+00 0.  1.
          5    1    1    2  502    0  0.21578109846E+01  0.49855467309E+02 -0.28465900818E+02  0.57602115223E+02  0.41800000000E+01 0.  1.
         -5    1    1    2    0  502  0.24963531086E+02 -0.70881002235E+02 -0.97890712827E+02  0.12348019444E+03  0.41800000000E+01 0.  1.
        -11    1    1    2    0    0  0.50327997472E+01 -0.11332140691E+02  0.18009385221E+02  0.21865142167E+02  0.00000000000E+00 0. -1.
         11    1    1    2    0    0 -0.32154141818E+02  0.32357675617E+02 -0.81789762642E+02  0.93650805017E+02  0.00000000000E+00 0.  1.
</event>
<event>
 6    1  0.4988969E-006  0.1346766E+03  0.7561462E-02  0.1220677E+00
          1   -1    0    0  501    0  0.00000000000E+00  0.00000000000E+00  0.96054593390E+03  0.96054593390E+03  0.00000000000E+00 0. -1.
         -1   -1    0    0    0  501 -0.00000000000E+00 -0.00000000000E+00 -0.20855849539E+02  0.20855849539E+02  0.00000000000E+00 0.  1.
          5    1    1    2  502    0  0.17624411509E+01 -0.29860882073E+02  0.14234814349E+03  0.14551716336E+03  0.41800000000E+01 0.  1.
         -5    1    1    2    0  502 -0.18996282226E+02  0.11539034148E+03  0.27698691630E+03  0.30069089419E+03  0.41800000000E+01 0.  1.
        -11    1    1    2    0    0 -0.31717749901E+02 -0.12239966325E+02  0.20303303875E+03  0.20585977572E+03  0.00000000000E+00 0. -1.
         11    1    1    2    0    0  0.48951590976E+02 -0.73289493078E+02  0.31732198582E+03  0.32933395018E+03  0.00000000000E+00 0.  1.
</event>
<event>
 6    1  0.4988969E-006  0.1041487E+03  0.7561462E-02  0.1271806E+00
         -1   -1    0    0    0  501 -0.00000000000E+00  0.00000000000E+00  0.20692870473E+02  0.20692870473E+02  0.00000000000E+00 0.  1.
          1   -1    0    0  501    0  0.00000000000E+00 -0.00000000000E+00 -0.59674529581E+03  0.59674529581E+03  0.00000000000E+00 0. -1.
          5    1    1    2  502    0  0.30663811219E+02 -0.62888504066E+02 -0.26870075689E+03  0.27769191996E+03  0.41800000000E+01 0. -1.
         -5    1    1    2    0  502 -0.21670771339E+02  0.37998832324E+02 -0.55273937633E+02  0.70613130293E+02  0.41800000000E+01 0. -1.
        -11    1    1    2    0    0  0.22092010707E+02  0.49766585771E+02 -0.14836210162E+03  0.15803823333E+03  0.00000000000E+00 0.  1.
         11    1    1    2    0    0 -0.31085050588E+02 -0.24876914029E+02 -0.10371562920E+03  0.11109488270E+03  0.00000000000E+00 0. -1.
</event>
<event>
 6    1  0.4988969E-006  0.1143449E+03  0.7561462E-02  0.1252729E+00
          3   -1    0    0  501    0  0.00000000000E+00  0.00000000000E+00  0.34371470482E+02  0.34371470482E+02  0.00000000000E+00 0. -1.
         -3   -1    0    0    0  501 -0.00000000000E+00 -0.00000000000E+00 -0.45502242803E+03  0.45502242803E+03  0.00000000000E+00 0.  1.
          5    1    1    2  502    0 -0.36921883267E+02  0.50850624022E+01 -0.70143340860E+02  0.79540203612E+02  0.41800000000E+01 0. -1.
         -5    1    1    2    0  502  0.94406116626E+02 -0.28488217696E+01 -0.22947334493E+03  0.24818565445E+03  0.41800000000E+01 0.  1.
        -11    1    1    2    0    0  0.19430339300E+02  0.24648182131E+01 -0.17573310321E+01  0.19664730521E+02  0.00000000000E+00 0.  1.
         11    1    1    2    0    0 -0.76914572658E+02 -0.47010588458E+01 -0.11927694073E+03  0.14200330993E+03  0.00000000000E+00 0. -1.
</event>
<event>
 6    1  0.4988969E-006  0.1304180E+03  0.7561462E-02  0.1226837E+00
          1   -1    0    0  501    0  0.00000000000E+00  0.00000000000E+00  0.26798857356E+03  0.26798857356E+03  0.00000000000E+00 0. -1.
         -1   -1    0    0    0  501 -0.00000000000E+00 -0.00000000000E+00 -0.16324506569E+03  0.16324506569E+03  0.00000000000E+00 0.  1.
          5    1    1    2  502    0 -0.38582691098E+01 -0.78721820795E+02 -0.15786928571E+02  0.80490439330E+02  0.41800000000E+01 0. -1.
         -5    1    1    2    0  502 -0.52371219431E+02  0.44952098117E+01 -0.89273768129E+02  0.10368331405E+03  0.41800000000E+01 0.  1.
        -11    1    1    2    0    0  0.65159087947E+02  0.11925510942E+02  0.12481863374E+03  0.14130681471E+03  0.00000000000E+00 0.  1.
         11    1    1    2    0    0 -0.89295994062E+01  0.62301100041E+02  0.84985570830E+02  0.10575307117E+03  0.00000000000E+00 0. -1.
</event>
<event>
 6    1  0.4988969E-006  0.1195630E+03  0.7561462E-02  0.1243820E+00
          2   -1    0    0  501    0  0.00000000000E+00  0.00000000000E+00  0.24980084845E+03  0.24980084845E+03  0.00000000000E+00 0.  1.
         -2   -1    0    0    0  501 -0.00000000000E+00 -0.00000000000E+00 -0.70835728574E+02  0.70835728574E+02  0.00000000000E+00 0. -1.
          5    1    1    2  502    0 -0.12977699178E+02  0.49979970660E+02  0.33763392109E+00  0.51807379203E+02  0.41800000000E+01 0. -1.
         -5    1    1    2    0  502 -0.63733768004E+02 -0.39488230910E+02  0.10520100613E+03  0.12925183811E+03  0.41800000000E+01 0. -1.
        -11    1    1    2    0    0  0.13627801134E+00 -0.32541034134E+02  0.43792002324E+02  0.54558930907E+02  0.00000000000E+00 0.  1.
         11    1    1    2    0    0  0.76575189171E+02  0.22049294383E+02  0.29634477502E+02  0.85018428803E+02  0.00000000000E+00 0. -1.
</event>
<event>
 6    1  0.4988969E-006  0.1137386E+03  0.7561462E-02  0.1253799E+00
         -2   -1    0    0    0  501 -0.00000000000E+00  0.00000000000E+00  0.32206439546E+03  0.32206439546E+03  0.00000000000E+00 0.  1.
          2   -1    0    0  501    0  0.00000000000E+00 -0.00000000000E+00 -0.48677026890E+02  0.48677026890E+02  0.00000000000E+00 0. -1.
          5    1    1    2  502    0  0.30201080630E+02  0.39852941101E+02  0.11079959119E+03  0.12163216677E+03  0.41800000000E+01 0.  1.
         -5    1    1    2    0  502 -0.76940623611E+02 -0.23766776116E+02  0.10049075236E+03  0.12884324941E+03  0.41800000000E+01 0.  1.
        -11    1    1    2    0    0  0.47575781886E+02 -0.46330197014E+02  0.60714498431E+02  0.89978844720E+02  0.00000000000E+00 0.  1.
         11    1    1    2    0    0 -0.83623890539E+00  0.30244032030E+02  0.13825265914E+01  0.30287161450E+02  0.00000000000E+00 0. -1.
</event>
<event>
 6    1  0.4988969E-006  0.1186064E+03  0.7561462E-02  0.1245414E+00
          1   -1    0    0  501    0  0.00000000000E+00  0.00000000000E+00  0.37842058968E+03  0.37842058968E+03  0.00000000000E+00 0. -1.
         -1   -1    0    0    0  501 -0.00000000000E+00 -0.00000000000E+00 -0.55224742355E+02  0.55224742355E+02  0.00000000000E+00 0.  1.
          5    1    1    2  502    0  0.13388637797E+02 -0.22866271611E+02 -0.12060463608E+02  0.29411718445E+02  0.41800000000E+01 0. -1.
         -5    1    1    2    0  502 -0.19839971000E+02  0.97238248584E+02  0.98957116049E+02  0.14021014462E+03  0.41800000000E+01 0. -1.
        -11    1    1    2    0    0 -0.29356303631E+02 -0.95240618222E+00  0.29289027306E+02  0.41479473971E+02  0.00000000000E+00 0.  1.
         11    1    1    2    0    0  0.35807636834E+02 -0.73419570791E+02  0.20701016758E+03  0.22254399500E+03  0.00000000000E+00 0. -1.
</event>
<event>
 6    1  0.4988969E-006  0.1176558E+03  0.7561462E-02  0.1247015E+00
         -1   -1    0    0    0  501 -0.00000000000E+00  0.00000000000E+00  0.15980068180E+03  0.15980068180E+03  0.00000000000E+00 0.  1.
          1   -1    0    0  501    0  0.00000000000E+00 -0.00000000000E+00 -0.93234713944E+02  0.93234713944E+02  0.00000000000E+00 0. -1.
          5    1    1    2  502    0 -0.20837558422E+02  0.36742821837E+02  0.32896163823E+02  0.53701664702E+02  0.41800000000E+01 0.  1.
         -5    1    1    2    0  502  0.68806436958E+02 -0.54828647217E+02  0.12848031567E+02  0.89011519690E+02  0.41800000000E+01 0.  1.
        -11    1    1    2    0    0  0.87065999854E+01  0.42276331358E+02 -0.51120869456E+01  0.43465233340E+02  0.00000000000E+00 0. -1.
         11    1    1    2    0    0 -0.56675478522E+02 -0.24190505978E+02  0.25933859414E+02  0.66856978014E+02  0.00000000000E+00 0.  1.
</event>
<event>
 6    1  0.4988969E-006  0.8728159E+02  0.7561462E-02  0.1309572E+00
         -1   -1    0    0    0  501 -0.00000000000E+00  0.00000000000E+00  0.83998890919E+02  0.83998890919E+02  0.00000000000E+00 0.  1.
          1   -1    0    0  501    0  0.00000000000E+00 -0.00000000000E+00 -0.17371846363E+03  0.17371846363E+03  0.00000000000E+00 0. -1.
          5    1    1    2  502    0 -0.12124218730E+02  0.22804829522E+02 -0.50823562296E+02  0.57162608529E+02  0.41800000000E+01 0.  1.
         -5    1    1    2    0  502  0.19623483510E+02 -0.59618801693E+02  0.38950840331E+02  0.73987316365E+02  0.41800000000E+01 0.  1.
        -11    1    1    2    0    0  0.52119767199E+01  0.59373151738E+02 -0.19462600617E+02  0.62698713475E+02  0.00000000000E+00 0.  1.
         11    1    1    2    0    0 -0.12711241500E+02 -0.22559179568E+02 -0.58384250127E+02  0.63868716177E+02  0.00000000000E+00 0. -1.
</event>
<event>
 6    1  0.4988969E-006  0.1052948E+03  0.7561462E-02  0.1269540E+00
         -1   -1    0    0    0  501 -0.00000000000E+00  0.00000000000E+00  0.38127300132E+03  0.38127300132E+03  0.00000000000E+00 0.  1.
          1   -1    0    0  501    0  0.00000000000E+00 -0.00000000000E+00 -0.57511258465E+02  0.57511258465E+02  0.00000000000E+00 0. -1.
          5    1    1    2  502    0  0.41360391156E+02 -0.55458692447E+02  0.27282001822E+03  0.28148638203E+03  0.41800000000E+01 0.  1.
         -5    1    1    2    0  502  0.25059946017E+02  0.17678388809E+02  0.33005911614E+01  0.31127040131E+02  0.41800000000E+01 0.  1.
        -11    1    1    2    0    0 -0.66146640059E+01 -0.23671630917E+02  0.29722888605E+02  0.38568769714E+02  0.00000000000E+00 0. -1.
         11    1    1    2    0    0 -0.59805673167E+02  0.61451934555E+02  0.17918244867E+02  0.87602067913E+02  0.00000000000E+00 0.  1.
</event>
<event>
 6    1  0.4988969E-006  0.1330181E+03  0.7561462E-02  0.1223045E+00
          3   -1    0    0  501    0  0.00000000000E+00  0.00000000000E+00  0.71025167470E+03  0.71025167470E+03  0.00000000000E+00 0. -1.
         -3   -1    0    0    0  501 -0.00000000000E+00 -0.00000000000E+00 -0.51119402244E+02  0.51119402244E+02  0.00000000000E+00 0.  1.
          5    1    1    2  502    0 -0.16115139531E+02  0.12861138017E+02  0.10585141527E+03  0.10792173603E+03  0.41800000000E+01 0.  1.
         -5    1    1    2    0  502 -0.95513406155E+02 -0.63225059662E+02  0.44901582593E+02  0.12310094818E+03  0.41800000000E+01 0.  1.
        -11    1    1    2    0    0  0.92315165942E+02  0.20100902884E+02  0.46271309223E+03  0.47226003630E+03  0.00000000000E+00 0. -1.
         11    1    1    2    0    0  0.19313379744E+02  0.30263018761E+02  0.45666182362E+02  0.58088356433E+02  0.00000000000E+00 0.  1.
</event>
<event>
 6    1  0.4988969E-006  0.1311901E+03  0.7561462E-02  0.1225700E+00
          3   -1    0    0  501    0  0.00000000000E+00  0.00000000000E+00  0.13285433664E+02  0.13285433664E+02  0.00000000000E+00 0. -1.
         -3   -1    0    0    0  501 -0.00000000000E+00 -0.00000000000E+00 -0.14945096913E+04  0.14945096913E+04  0.00000000000E+00 0.  1.
          5    1    1    2  502    0 -0.51031095551E+02 -0.23448433148E+02 -0.19556321977E+03  0.20351031191E+03  0.41800000000E+01 0. -1.
         -5    1    1    2    0  502 -0.14188815413E+02  0.78530894364E+02 -0.73001826691E+03  0.73437903447E+03  0.41800000000E+01 0. -1.
        -11    1    1    2    0    0 -0.24090201353E+02 -0.13799874976E+02 -0.10159934564E+03  0.10532426779E+03  0.00000000000E+00 0.  1.
         11    1    1    2    0    0  0.89310112317E+02 -0.41282586239E+02 -0.45404342530E+03  0.46458151077E+03  0.00000000000E+00 0. -1.
</event>
<event>
 6    1  0.4988969E-006  0.9667083E+02  0.7561462E-02  0.1287457E+00
         -4   -1    0    0    0  501 -0.00000000000E+00  0.00000000000E+00  0.21045589293E+03  0.21045589293E+03  0.00000000000E+00 0.  1.
          4   -1    0    0  501    0  0.00000000000E+00 -0.00000000000E+00 -0.83083133549E+02  0.83083133549E+02  0.00000000000E+00 0. -1.
          5    1    1    2  502    0  0.24609304666E+01 -0.83099700535E+02  0.12599700346E+03  0.15101103830E+03  0.41800000000E+01 0. -1.
         -5    1    1    2    0  502 -0.36582666780E+02  0.37027208191E+02  0.45247076321E+02  0.69094688441E+02  0.41800000000E+01 0.  1.
        -11    1    1    2    0    0  0.27770292181E+02  0.31547371321E+02 -0.37572219568E+02  0.56374617057E+02  0.00000000000E+00 0. -1.
         11    1    1    2    0    0  0.63514441330E+01  0.14525121022E+02 -0.62991008366E+01  0.17058682676E+02  0.00000000000E+00 0.  1.
</event>
<event>
 6    1  0.4988969E-006  0.8011514E+02  0.7561462E-02  0.1328725E+00
          2   -1    0    0  501    0  0.00000000000E+00  0.00000000000E+00  0.60513387973E+03  0.60513387973E+03  0.00000000000E+00 0.  1.
         -2   -1    0    0    0  501 -0.00000000000E+00 -0.00000000000E+00 -0.23404328481E+02  0.23404328481E+02  0.00000000000E+00 0. -1.
          5    1    1    2  502    0 -0.14097146187E+02 -0.43579394094E+02  0.24295027771E+02  0.52015515902E+02  0.41800000000E+01 0. -1.
         -5    1    1    2    0  502  0.41384500432E+02  0.10421915115E+02  0.23695149297E+03  0.24080028158E+03  0.41800000000E+01 0. -1.
        -11    1    1    2    0    0 -0.41876134498E+02  0.37418222381E+02  0.31436063790E+03  0.31933735245E+03  0.00000000000E+00 0.  1.
         11    1    1    2    0    0  0.14588780252E+02 -0.42607434026E+01  0.61223926114E+01  0.16385058281E+02  0.00000000000E+00 0. -1.
</event>
<event>
 6    1  0.4988969E-006  0.2662444E+03  0.7561462E-02  0.1103448E+00
         -1   -1    0    0    0  501 -0.00000000000E+00  0.00000000000E+00  0.28454092218E+03  0.28454092218E+03  0.00000000000E+00 0.  1.
          1   -1    0    0  501    0  0.00000000000E+00 -0.00000000000E+00 -0.25953002155E+03  0.25953002155E+03  0.00000000000E+00 0. -1.
          5    1    1    2  502    0  0.56016439748E+01 -0.12944526621E+02 -0.84677123526E+01  0.16973913431E+02  0.41800000000E+01 0. -1.
         -5    1    1    2    0  502  0.27366892944E+02  0.26001596030E+03  0.17171640866E+02  0.26204882005E+03  0.41800000000E+01 0. -1.
        -11    1    1    2    0    0  0.15336688442E+02 -0.10771234807E+03  0.39490058881E+02  0.11574380627E+03  0.00000000000E+00 0.  1.
         11    1    1    2    0    0 -0.48305225361E+02 -0.13935908560E+03 -0.23183086763E+02  0.14930440398E+03  0.00000000000E+00 0. -1.
</event>
<event>
 6    1  0.4988969E-006  0.9647176E+02  0.7561462E-02  0.1287895E+00
         -1   -1    0    0    0  501 -0.00000000000E+00  0.00000000000E+00  0.53698954150E+02  0.53698954150E+02  0.00000000000E+00 0.  1.
          1   -1    0    0  501    0  0.00000000000E+00 -0.00000000000E+00 -0.32796056262E+03  0.32796056262E+03  0.00000000000E+00 0. -1.
          5    1    1    2  502    0  0.61488073482E+02  0.20901850901E+02 -0.29036759871E+02  0.71262026182E+02  0.41800000000E+01 0.  1.
         -5    1    1    2    0  502 -0.57046346697E+02 -0.16593567564E+02 -0.14108269335E+02  0.61205782566E+02  0.41800000000E+01 0.  1.
        -11    1    1    2    0    0  0.14226768807E+02 -0.31937562280E+02 -0.32303597417E+02  0.47601798718E+02  0.00000000000E+00 0.  1.
         11    1    1    2    0    0 -0.18668495592E+02  0.27629278943E+02 -0.19881298184E+03  0.20158990930E+03  0.00000000000E+00 0. -1.
</event>
<event>
 6    1  0.4988969E-006  0.1621251E+03  0.7561462E-02  0.1186318E+00
          2   -1    0    0  501    0  0.00000000000E+00  0.00000000000E+00  0.14722007821E+03  0.14722007821E+03  0.00000000000E+00 0. -1.
         -2   -1    0    0    0  501 -0.00000000000E+00 -0.00000000000E+00 -0.31253526623E+03  0.31253526623E+03  0.00000000000E+00 0.  1.
          5    1    1    2  502    0 -0.51600719269E+02 -0.22928680883E+02 -0.11812768813E+03  0.13099611345E+03  0.41800000000E+01 0.  1.
         -5    1    1    2    0  502  0.45900699475E+02 -0.10543036493E+03 -0.11011376262E+03  0.15926377234E+03  0.41800000000E+01 0.  1.
        -11    1    1    2    0    0 -0.29957227102E+02  0.14554890824E+02 -0.26229796579E+01  0.33408985691E+02  0.00000000000E+00 0. -1.
         11    1    1    2    0    0  0.35657246896E+02  0.11380415499E+03  0.65549242381E+02  0.13608647297E+03  0.00000000000E+00 0.  1.
</event>
<event>
 6    1  0.4988969E-006  0.1124936E+03  0.7561462E-02  0.1256021E+00
          1   -1    0    0  501    0  0.00000000000E+00  0.00000000000E+00  0.64495106436E+02  0.64495106436E+02  0.00000000000E+00 0. -1.
         -1   -1    0    0    0  501 -0.00000000000E+00 -0.00000000000E+00 -0.29716195404E+03  0.29716195404E+03  0.00000000000E+00 0.  1.
          5    1    1    2  502    0  0.31122861329E+00 -0.11447444854E+02 -0.89790663558E+02  0.90614438801E+02  0.41800000000E+01 0.  1.
         -5    1    1    2    0  502 -0.68058191629E+02  0.60992796744E+02 -0.14583807248E+02  0.92640156176E+02  0.41800000000E+01 0.  1.
        -11    1    1    2    0    0 -0.85107407747E+01  0.17699826495E+02 -0.36385851814E+02  0.41347875141E+02  0.00000000000E+00 0.  1.
         11    1    1    2    0    0  0.76257703790E+02 -0.67245178385E+02 -0.91906524984E+02  0.13705459036E+03  0.00000000000E+00 0. -1.
</event>
<event>
 6    1  0.4988969E-006  0.1145990E+03  0.7561462E-02  0.1252283E+00
         -1   -1    0    0    0  501 -0.00000000000E+00  0.00000000000E+00  0.56139318235E+03  0.56139318235E+03  0.00000000000E+00 0.  1.
          1   -1    0    0  501    0  0.00000000000E+00 -0.00000000000E+00 -0.40395943631E+02  0.40395943631E+02  0.00000000000E+00 0. -1.
          5    1    1    2  502    0 -0.40659782128E+02  0.83638887625E+01  0.20823936647E+03  0.21237767930E+03  0.41800000000E+01 0. -1.
         -5    1    1    2    0  502 -0.36247768133E+02  0.59697017644E+02  0.31141296848E+02  0.76582552710E+02  0.41800000000E+01 0. -1.
        -11    1    1    2    0    0  0.11593739550E+02 -0.47713700545E+02  0.20189052931E+03  0.20777583555E+03  0.00000000000E+00 0.  1.
         11    1    1    2    0    0  0.65313810711E+02 -0.20347205861E+02  0.79726046088E+02  0.10505305841E+03  0.00000000000E+00 0. -1.
</event>
<event>
 6    1  0.4988969E-006  0.1276427E+03  0.7561462E-02  0.1230996E+00
         -1   -1    0    0    0  501 -0.00000000000E+00  0.00000000000E+00  0.30019536137E+03  0.30019536137E+03  0.00000000000E+00 0.  1.
          1   -1    0    0  501    0  0.00000000000E+00 -0.00000000000E+00 -0.71713996873E+02  0.71713996873E+02  0.00000000000E+00 0. -1.
          5    1    1    2  502    0  0.64187638731E+02  0.68853210332E+02  0.10953608225E+03  0.14448682727E+03  0.41800000000E+01 0. -1.
         -5    1    1    2    0  502 -0.56289621895E+02  0.24018829324E+02  0.57834843291E+02  0.84307574948E+02  0.41800000000E+01 0. -1.
        -11    1    1    2    0    0  0.77026559305E+01 -0.77275405654E+02  0.81855990569E+02  0.11283271875E+03  0.00000000000E+00 0.  1.
         11    1    1    2    0    0 -0.15600672766E+02 -0.15596634002E+02 -0.20745551616E+02  0.30282237282E+02  0.00000000000E+00 0. -1.
</event>
<event>
 6    1  0.4988969E-006  0.1913552E+03  0.7561462E-02  0.1157245E+00
          4   -1    0    0  501    0  0.00000000000E+00  0.00000000000E+00  0.13612203406E+03  0.13612203406E+03  0.00000000000E+00 0. -1.
         -4   -1    0    0    0  501 -0.00000000000E+00 -0.00000000000E+00 -0.37581097785E+03  0.37581097785E+03  0.00000000000E+00 0.  1.
          5    1    1    2  502    0  0.19299071134E+02 -0.51271363618E+01 -0.23136689490E+01  0.20532100183E+02  0.41800000000E+01 0.  1.
         -5    1    1    2    0  502 -0.72328552882E+02  0.16507178673E+03 -0.23690266623E+03  0.29769188770E+03  0.41800000000E+01 0.  1.
        -11    1    1    2    0    0 -0.16180903132E+02 -0.45522050883E+02 -0.29855852149E+02  0.56793051074E+02  0.00000000000E+00 0.  1.
         11    1    1    2    0    0  0.69210384879E+02 -0.11442259948E+03  0.29383243535E+02  0.13691597295E+03  0.00000000000E+00 0. -1.
</event>
<event>
 6    1  0.4988969E-006  0.1578697E+03  0.7561462E-02  0.1191123E+00
         -2   -1    0    0    0  501 -0.00000000000E+00  0.00000000000E+00  0.19228360854E+03  0.19228360854E+03  0.00000000000E+00 0.  1.
          2   -1    0    0  501    0  0.00000000000E+00 -0.00000000000E+00 -0.14537370569E+03  0.14537370569E+03  0.00000000000E+00 0. -1.
          5    1    1    2  502    0  0.12361239486E+03  0.82029694398E+02  0.55764424676E+02  0.15854349052E+03  0.41800000000E+01 0.  1.
         -5    1    1    2    0  502 -0.19221620660E+02 -0.15803530468E+02 -0.22863465551E+01  0.25336180782E+02  0.41800000000E+01 0.  1.
        -11    1    1    2    0    0 -0.38754285759E+02 -0.65906863288E+02 -0.32665768625E+02  0.83142418373E+02  0.00000000000E+00 0.  1.
         11    1    1    2    0    0 -0.65636488442E+02 -0.31930064215E+00  0.26097593354E+02  0.70635224547E+02  0.00000000000E+00 0. -1.
</event>
<event>
 6    1  0.4988969E-006  0.2610029E+03  0.7561462E-02  0.1106542E+00
          2   -1    0    0  501    0  0.00000000000E+00  0.00000000000E+00  0.54159514602E+03  0.54159514602E+03  0.00000000000E+00 0. -1.
         -2   -1    0    0    0  501 -0.00000000000E+00 -0.00000000000E+00 -0.13905306245E+03  0.13905306245E+03  0.00000000000E+00 0.  1.
          5    1    1    2  502    0 -0.71037366662E+02  0.86603968685E+02  0.74774380348E+02  0.13474136414E+03  0.41800000000E+01 0. -1.
         -5    1    1    2    0  502 -0.16124337090E+03 -0.96480399859E+01  0.73411033764E+02  0.17748003159E+03  0.41800000000E+01 0. -1.
        -11    1    1    2    0    0  0.47377880852E+01 -0.10121047469E+02  0.62195506536E+02  0.63191481001E+02  0.00000000000E+00 0. -1.
         11    1    1    2    0    0  0.22754294947E+03 -0.66834881231E+02  0.19216116292E+03  0.30523533173E+03  0.00000000000E+00 0.  1.
</event>
<event>
 6    1  0.4988969E-006  0.1172904E+03  0.7561462E-02  0.1247635E+00
          2   -1    0    0  501    0  0.00000000000E+00  0.00000000000E+00  0.60508648572E+03  0.60508648572E+03  0.00000000000E+00 0. -1.
         -2   -1    0    0    0  501 -0.00000000000E+00 -0.00000000000E+00 -0.34235333556E+02  0.34235333556E+02  0.00000000000E+00 0.  1.
          5    1    1    2  502    0  0.58076228152E+01 -0.25236044484E+02 -0.49200878174E+00  0.26235489258E+02  0.41800000000E+01 0. -1.
         -5    1    1    2    0  502 -0.90179831335E+02 -0.13912250494E+02  0.27089560309E+03  0.28588083683E+03  0.41800000000E+01 0. -1.
        -11    1    1    2    0    0  0.15484214623E+02 -0.20633126277E+02  0.21046133749E+02  0.33293040538E+02  0.00000000000E+00 0.  1.
         11    1    1    2    0    0  0.68887993896E+02  0.59781421254E+02  0.27940142412E+03  0.29391245266E+03  0.00000000000E+00 0. -1.
</event>
<event>
 6    1  0.4988969E-006  0.8938041E+02  0.7561462E-02  0.1304359E+00
          1   -1    0    0  501    0  0.00000000000E+00  0.00000000000E+00  0.20759250923E+03  0.20759250923E+03  0.00000000000E+00 0. -1.
         -1   -1    0    0    0  501 -0.00000000000E+00 -0.00000000000E+00 -0.58828329992E+02  0.58828329992E+02  0.00000000000E+00 0.  1.
          5    1    1    2  502    0  0.16709277840E+02 -0.30076521086E+02 -0.17608915032E+02  0.38875999989E+02  0.41800000000E+01 0. -1.
         -5    1    1    2    0  502 -0.27581436517E+02  0.40393287613E+02  0.10072706102E+03  0.11205251691E+03  0.41800000000E+01 0. -1.
        -11    1    1    2    0    0  0.30026415809E+02  0.34820162952E+02  0.30933211338E+02  0.55415638208E+02  0.00000000000E+00 0.  1.
         11    1    1    2    0    0 -0.19154257132E+02 -0.45136929480E+02  0.34712821918E+02  0.60076684118E+02  0.00000000000E+00 0. -1.
</event>
<event>
 6    1  0.4988969E-006  0.2109418E+03  0.7561462E-02  0.1140822E+00
         -2   -1    0    0    0  501 -0.00000000000E+00  0.00000000000E+00  0.50068677750E+02  0.50068677750E+02  0.00000000000E+00 0.  1.
          2   -1    0    0  501    0  0.00000000000E+00 -0.00000000000E+00 -0.10103607248E+04  0.10103607248E+04  0.00000000000E+00 0. -1.
          5    1    1    2  502    0 -0.15996743186E+03  0.88528585726E+01 -0.30858527899E+03  0.34772158284E+03  0.41800000000E+01 0. -1.
         -5    1    1    2    0  502  0.16550632880E+03 -0.50593766099E+02 -0.29568989036E+03  0.34263983671E+03  0.41800000000E+01 0.  1.
        -11    1    1    2    0    0  0.23026202499E+02  0.53007744319E+02 -0.30575022164E+03  0.31116430546E+03  0.00000000000E+00 0. -1.
         11    1    1    2    0    0 -0.28565099435E+02 -0.11266836792E+02 -0.50266656078E+02  0.58903677562E+02  0.00000000000E+00 0.  1.
</event>
<event>
 6    1  0.4988969E-006  0.1160936E+03  0.7561462E-02  0.1249684E+00
         -2   -1    0    0    0  501 -0.00000000000E+00  0.00000000000E+00  0.81851132937E+02  0.81851132937E+02  0.00000000000E+00 0.  1.
          2   -1    0    0  501    0  0.00000000000E+00 -0.00000000000E+00 -0.29413322032E+03  0.29413322032E+03  0.00000000000E+00 0. -1.
          5    1    1    2  502    0 -0.79588748777E+01 -0.79361974529E+01 -0.95237263153E+02  0.95989247378E+02  0.41800000000E+01 0.  1.
         -5    1    1    2    0  502 -0.81611959360E+02 -0.51779496648E+02 -0.45079824844E+01  0.96847418602E+02  0.41800000000E+01 0.  1.
        -11    1    1    2    0    0  0.22401686083E+01  0.31641832703E+02 -0.79589795117E+02  0.85678231885E+02  0.00000000000E+00 0. -1.
         11    1    1    2    0    0  0.87330665630E+02  0.28073861399E+02 -0.32947046631E+02  0.97469455394E+02  0.00000000000E+00 0.  1.
</event>
<event>
 6    1  0.4988969E-006  0.1552227E+03  0.7561462E-02  0.1194198E+00
          2   -1    0    0  501    0  0.00000000000E+00  0.00000000000E+00  0.38973760648E+03  0.38973760648E+03  0.00000000000E+00 0. -1.
         -2   -1    0    0    0  501 -0.00000000000E+00 -0.00000000000E+00 -0.11018406714E+03  0.11018406714E+03  0.00000000000E+00 0.  1.
          5    1    1    2  502    0  0.11075997706E+02  0.27253489294E+02  0.11849265298E+02  0.31989183984E+02  0.41800000000E+01 0.  1.
         -5    1    1    2    0  502  0.64336237482E+02 -0.13439593839E+03 -0.69427958894E+01  0.14922162888E+03  0.41800000000E+01 0.  1.
        -11    1    1    2    0    0 -0.24545483585E+02  0.45978626486E+02  0.27200154989E+02  0.58790843584E+02  0.00000000000E+00 0.  1.
         11    1    1    2    0    0 -0.50866751604E+02  0.61163822613E+02  0.24744691494E+03  0.25992001718E+03  0.00000000000E+00 0. -1.
</event>
<event>
 6    1  0.4988969E-006  0.1118753E+03  0.7561462E-02  0.1257136E+00
          1   -1    0    0  501    0  0.00000000000E+00  0.00000000000E+00  0.18071334355E+03  0.18071334355E+03  0.00000000000E+00 0. -1.
         -1   -1    0    0    0  501 -0.00000000000E+00 -0.00000000000E+00 -0.15165492361E+03  0.15165492361E+03  0.00000000000E+00 0.  1.
          5    1    1    2  502    0  0.13512738403E+02 -0.16807411671E+02  0.37068823023E+02  0.43088899110E+02  0.41800000000E+01 0.  1.
         -5    1    1    2    0  502  0.43546027657E+02 -0.55680452591E+02 -0.10475469077E+03  0.12644203005E+03  0.41800000000E+01 0.  1.
        -11    1    1    2    0    0 -0.83065879394E+02  0.56032715067E+02  0.73177326510E+02  0.12407468151E+03  0.00000000000E+00 0. -1.
         11    1    1    2    0    0  0.26007113334E+02  0.16455149194E+02  0.23566961169E+02  0.38762656485E+02  0.00000000000E+00 0.  1.
</event>
<event>
 6    1  0.4988969E-006  0.1567582E+03  0.7561462E-02  0.1192406E+00
          1   -1    0    0  501    0  0.00000000000E+00  0.00000000000E+00  0.44376367745E+02  0.44376367745E+02  0.00000000000E+00 0. -1.
         -1   -1    0    0    0  501 -0.00000000000E+00 -0.00000000000E+00 -0.69841278824E+03  0.69841278824E+03  0.00000000000E+00 0.  1.
          5    1    1    2  502    0  0.18575685561E+02 -0.93860476146E+02 -0.34047153131E+03  0.35368514403E+03  0.41800000000E+01 0. -1.
         -5    1    1    2    0  502  0.72763581574E+02  0.30786831500E+00 -0.11198466690E+03  0.13361389003E+03  0.41800000000E+01 0. -1.
        -11    1    1    2    0    0 -0.19198519911E+02 -0.75743951259E+01 -0.24402110415E+01  0.20782426669E+02  0.00000000000E+00 0. -1.
         11    1    1    2    0    0 -0.72140747224E+02  0.10112700296E+03 -0.19914001124E+03  0.23470769526E+03  0.00000000000E+00 0.  1.
</event>
<event>
 6    1  0.4988969E-006  0.3787962E+03  0.7561462E-02  0.1051380E+00
          1   -1    0    0  501    0  0.00000000000E+00  0.00000000000E+00  0.96508382300E+03  0.96508382300E+03  0.00000000000E+00 0. -1.
         -1   -1    0    0    0  501 -0.00000000000E+00 -0.00000000000E+00 -0.15123031798E+03  0.15123031798E+03  0.00000000000E+00 0.  1.
          5    1    1    2  502    0  0.21642653269E+03  0.20728106143E+03  0.28142180352E+03  0.41112234965E+03  0.41800000000E+01 0.  1.
         -5    1    1    2    0  502  0.53332409127E+00  0.84583836811E+02  0.70943850222E+02  0.11047720203E+03  0.41800000000E+01 0.  1.
        -11    1    1    2    0    0 -0.18056250904E+03 -0.17756574562E+03  0.28421970409E+03  0.38067473502E+03  0.00000000000E+00 0.  1.
         11    1    1    2    0    0 -0.36397347744E+02 -0.11429915262E+03  0.17726814719E+03  0.21403985428E+03  0.00000000000E+00 0. -1.
</event>
<event>
 6    1  0.4988969E-006  0.1211921E+03  0.7561462E-02  0.1241143E+00
         -2   -1    0    0    0  501 -0.00000000000E+00  0.00000000000E+00  0.50487430014E+02  0.50487430014E+02  0.00000000000E+00 0.  1.
          2   -1    0    0  501    0  0.00000000000E+00 -0.00000000000E+00 -0.44131614323E+03  0.44131614323E+03  0.00000000000E+00 0. -1.
          5    1    1    2  502    0 -0.91548790537E+02  0.30542629744E+02 -0.73371156567E+02  0.12130470847E+03  0.41800000000E+01 0. -1.
         -5    1    1    2    0  502  0.39463826255E+02  0.37385400725E+02 -0.52256465423E+02  0.75520012901E+02  0.41800000000E+01 0. -1.
        -11    1    1    2    0    0  0.96787517866E+00 -0.23551535900E+02 -0.25082085552E+01  0.23704487672E+02  0.00000000000E+00 0.  1.
         11    1    1    2    0    0  0.51117089103E+02 -0.44376494569E+02 -0.26269288267E+03  0.27127436420E+03  0.00000000000E+00 0. -1.
</event>
<event>
 6    1  0.4988969E-006  0.1092460E+03  0.7561462E-02  0.1261973E+00
         -1   -1    0    0    0  501 -0.00000000000E+00  0.00000000000E+00  0.48967085043E+03  0.48967085043E+03  0.00000000000E+00 0.  1.
          1   -1    0    0  501    0  0.00000000000E+00 -0.00000000000E+00 -0.30681053619E+02  0.30681053619E+02  0.00000000000E+00 0. -1.
          5    1    1    2  502    0 -0.43874494119E+02  0.42215606042E+02  0.15539895539E+03  0.16695339579E+03  0.41800000000E+01 0.  1.
         -5    1    1    2    0  502  0.56975907610E+02 -0.30080219205E+02  0.20768348740E+03  0.21748787776E+03  0.41800000000E+01 0.  1.
        -11    1    1    2    0    0  0.35168305928E+02 -0.24753711663E+02  0.62499842064E+02  0.75866898191E+02  0.00000000000E+00 0.  1.
         11    1    1    2    0    0 -0.48269719420E+02  0.12618324826E+02  0.33407511950E+02  0.60043732304E+02  0.00000000000E+00 0. -1.
</event>
<event>
 6    1  0.4988969E-006  0.1395928E+03  0.7561462E-02  0.1213878E+00
          2   -1    0    0  501    0  0.00000000000E+00  0.00000000000E+00  0.26486024226E+03  0.26486024226E+03  0.00000000000E+00 0. -1.
         -2   -1    0    0    0  501 -0.00000000000E+00 -0.00000000000E+00 -0.82449350896E+02  0.82449350896E+02  0.00000000000E+00 0.  1.
          5    1    1    2  502    0  0.15535294134E+02  0.92829802674E+02  0.49829083584E+02  0.10657920810E+03  0.41800000000E+01 0.  1.
         -5    1    1    2    0  502 -0.63541697673E+02 -0.56487207785E+01  0.57329152870E+02  0.85869433202E+02  0.41800000000E+01 0.  1.
        -11    1    1    2    0    0  0.16154950051E+02 -0.87711783088E+02  0.83263887958E+02  0.12201317282E+03  0.00000000000E+00 0. -1.
         11    1    1    2    0    0  0.31851453488E+02  0.53070119258E+00 -0.80112330423E+01  0.32847779041E+02  0.00000000000E+00 0.  1.
</event>
<event>
 6    1  0.4988969E-006  0.1096394E+03  0.7561462E-02  0.1261239E+00
          1   -1    0    0  501    0  0.00000000000E+00  0.00000000000E+00  0.13013110642E+03  0.13013110642E+03  0.00000000000E+00 0. -1.
         -1   -1    0    0    0  501 -0.00000000000E+00 -0.00000000000E+00 -0.96405831202E+02  0.96405831202E+02  0.00000000000E+00 0.  1.
          5    1    1    2  502    0  0.23213990004E+02  0.50899341154E+02  0.80360812448E+01  0.56671714846E+02  0.41800000000E+01 0. -1.
         -5    1    1    2    0  502 -0.23362699805E+02 -0.64394650681E+02 -0.84428544713E+01  0.69146518135E+02  0.41800000000E+01 0. -1.
        -11    1    1    2    0    0 -0.35483533102E+02  0.37468914447E+02  0.21945376810E+02  0.56076735235E+02  0.00000000000E+00 0. -1.
         11    1    1    2    0    0  0.35632242904E+02 -0.23973604920E+02  0.12186671637E+02  0.44641969410E+02  0.00000000000E+00 0.  1.
</event>
<event>
 6    1  0.4988969E-006  0.1022840E+03  0.7561462E-02  0.1275565E+00
         -1   -1    0    0    0  501 -0.00000000000E+00  0.00000000000E+00  0.12556869926E+03  0.12556869926E+03  0.00000000000E+00 0. -1.
          1   -1    0    0  501    0  0.00000000000E+00 -0.00000000000E+00 -0.11094916964E+03  0.11094916964E+03  0.00000000000E+00 0.  1.
          5    1    1    2  502    0 -0.55999231967E+02  0.22603042655E+02 -0.20560717552E+01  0.60568237131E+02  0.41800000000E+01 0. -1.
         -5    1    1    2    0  502  0.35976813465E+02 -0.52260770877E+02  0.39352924331E+02  0.74777298247E+02  0.41800000000E+01 0. -1.
        -11    1    1    2    0    0 -0.18677767903E+02  0.36639220251E+02 -0.40748383853E+02  0.57894060672E+02  0.00000000000E+00 0.  1.
         11    1    1    2    0    0  0.38700186405E+02 -0.69814920287E+01  0.18071060905E+02  0.43278272850E+02  0.00000000000E+00 0. -1.
</event>
<event>
 6    1  0.4988969E-006  0.1307910E+03  0.7561462E-02  0.1226287E+00
         -1   -1    0    0    0  501 -0.00000000000E+00  0.00000000000E+00  0.65025821671E+02  0.65025821671E+02  0.00000000000E+00 0.  1.
          1   -1    0    0  501    0  0.00000000000E+00 -0.00000000000E+00 -0.28572665558E+03  0.28572665558E+03  0.00000000000E+00 0. -1.
          5    1    1    2  502    0 -0.29286028015E+02  0.37593396683E+01 -0.62914560974E+02  0.69624122646E+02  0.41800000000E+01 0.  1.
         -5    1    1    2    0  502  0.10564695790E+03 -0.33600396635E+02 -0.75789375676E+02  0.13435686894E+03  0.41800000000E+01 0.  1.
        -11    1    1    2    0    0 -0.42017917537E+02 -0.30135789852E+02 -0.44043377292E+02  0.67922678889E+02  0.00000000000E+00 0.  1.
         11    1    1    2    0    0 -0.34343012346E+02  0.59976846819E+02 -0.37953519963E+02  0.78848806769E+02  0.00000000000E+00 0. -1.
</event>
<event>
 6    1  0.4988969E-006  0.1457054E+03  0.7561462E-02  0.1205852E+00
          1   -1    0    0  501    0  0.00000000000E+00  0.00000000000E+00  0.38257001949E+02  0.38257001949E+02  0.00000000000E+00 0. -1.
         -1   -1    0    0    0  501 -0.00000000000E+00 -0.00000000000E+00 -0.81023778972E+03  0.81023778972E+03  0.00000000000E+00 0.  1.
          5    1    1    2  502    0  0.12158059028E+03  0.26600868380E+02 -0.50765897044E+03  0.52270885663E+03  0.41800000000E+01 0. -1.
         -5    1    1    2    0  502 -0.31101992744E+02  0.17450969745E+02 -0.13333444792E+03  0.13808482067E+03  0.41800000000E+01 0. -1.
        -11    1    1    2    0    0  0.10113884188E+02  0.12102145204E+02 -0.32546092919E+02  0.36166292818E+02  0.00000000000E+00 0.  1.
         11    1    1    2    0    0 -0.10059248173E+03 -0.56153983329E+02 -0.98441276487E+02  0.15153482154E+03  0.00000000000E+00 0. -1.
</event>
<event>
 6    1  0.4988969E-006  0.1062859E+03  0.7561462E-02  0.1267607E+00
         -1   -1    0    0    0  501 -0.00000000000E+00  0.00000000000E+00  0.20963288931E+03  0.20963288931E+03  0.00000000000E+00 0.  1.
          1   -1    0    0  501    0  0.00000000000E+00 -0.00000000000E+00 -0.11786750661E+03  0.11786750661E+03  0.00000000000E+00 0. -1.
          5    1    1    2  502    0  0.63378778726E+02 -0.27492833657E+02  0.94738932145E+02  0.11732716292E+03  0.41800000000E+01 0. -1.
         -5    1    1    2    0  502 -0.47400147979E+02  0.55330758553E+02  0.60709062308E+02  0.94928022822E+02  0.41800000000E+01 0.  1.
        -11    1    1    2    0    0 -0.35760527352E+02  0.57094510111E+00  0.70887881285E+01  0.36460831202E+02  0.00000000000E+00 0.  1.
         11    1    1    2    0    0  0.19781896605E+02 -0.28408869997E+02 -0.70771399883E+02  0.78784378967E+02  0.00000000000E+00 0. -1.
</event>
<event>
 6    1  0.4988969E-006  0.1195847E+03  0.7561462E-02  0.1243784E+00
         -2   -1    0    0    0  501 -0.00000000000E+00  0.00000000000E+00  0.37946334376E+02  0.37946334376E+02  0.00000000000E+00 0.  1.
          2   -1    0    0  501    0  0.00000000000E+00 -0.00000000000E+00 -0.53900528183E+03  0.53900528183E+03  0.00000000000E+00 0. -1.
          5    1    1    2  502    0  0.67623834412E+02 -0.46155515103E+02 -0.56525145464E+02  0.99578506841E+02  0.41800000000E+01 0. -1.
         -5    1    1    2    0  502 -0.29397518596E+02 -0.37882556552E+02 -0.15929857156E+03  0.16641156658E+03  0.41800000000E+01 0. -1.
        -11    1    1    2    0    0  0.15034437457E+02  0.27768389165E+02 -0.27635742747E+02  0.41962507357E+02  0.00000000000E+00 0.  1.
         11    1    1    2    0    0 -0.53260753273E+02  0.56269682489E+02 -0.25759948768E+03  0.26899903543E+03  0.00000000000E+00 0. -1.
</event>
<event>
 6    1  0.4988969E-006  0.1186531E+03  0.7561462E-02  0.1245336E+00
          2   -1    0    0  501    0  0.00000000000E+00  0.00000000000E+00  0.10268367167E+04  0.10268367167E+04  0.00000000000E+00 0. -1.
         -2   -1    0    0    0  501 -0.00000000000E+00 -0.00000000000E+00 -0.14372155738E+02  0.14372155738E+02  0.00000000000E+00 0.  1.
          5    1    1    2  502    0 -0.46054771231E+02 -0.39622153238E+02  0.27236044574E+03  0.27908536648E+03  0.41800000000E+01 0.  1.
         -5    1    1    2    0  502  0.90715829164E+01  0.73094917898E+02  0.32533610689E+03  0.33359588649E+03  0.41800000000E+01 0.  1.
        -11    1    1    2    0    0 -0.12573450131E+02 -0.49090976897E+02  0.27007283549E+03  0.27478601153E+03  0.00000000000E+00 0. -1.
         11    1    1    2    0    0  0.49556638446E+02  0.15618212237E+02  0.14469517287E+03  0.15374160797E+03  0.00000000000E+00 0.  1.
</event>
<event>
 6    1  0.4988969E-006  0.3885021E+03  0.7561462E-02  0.1047835E+00
         -2   -1    0    0    0  501 -0.00000000000E+00  0.00000000000E+00  0.90881763748E+02  0.90881763748E+02  0.00000000000E+00 0.  1.
          2   -1    0    0  501    0  0.00000000000E+00 -0.00000000000E+00 -0.18464515651E+04  0.18464515651E+04  0.00000000000E+00 0. -1.
          5    1    1    2  502    0 -0.41028232258E+02 -0.44526681525E+01 -0.14499916208E+03  0.15081568718E+03  0.41800000000E+01 0.  1.
         -5    1    1    2    0  502 -0.29648702313E+03  0.18602138874E+03 -0.51974287564E+03  0.62662480092E+03  0.41800000000E+01 0.  1.
        -11    1    1    2    0    0  0.10702138362E+03 -0.79945790006E+02 -0.26928490412E+03  0.30059817943E+03  0.00000000000E+00 0.  1.
         11    1    1    2    0    0  0.23049387177E+03 -0.10162293059E+03 -0.82154285952E+03  0.85929466131E+03  0.00000000000E+00 0. -1.
</event>
<event>
 6    1  0.4988969E-006  0.1373132E+03  0.7561462E-02  0.1216991E+00
         -4   -1    0    0    0  501 -0.00000000000E+00  0.00000000000E+00  0.15971139451E+03  0.15971139451E+03  0.00000000000E+00 0.  1.
          4   -1    0    0  501    0  0.00000000000E+00 -0.00000000000E+00 -0.13068297686E+03  0.13068297686E+03  0.00000000000E+00 0. -1.
          5    1    1    2  502    0  0.98141936047E+02 -0.53924708536E+02  0.51387650243E+02  0.12327966904E+03  0.41800000000E+01 0.  1.
         -5    1    1    2    0  502 -0.78808200278E+01  0.30661187996E+02 -0.17416499216E+02  0.36373377882E+02  0.41800000000E+01 0.  1.
        -11    1    1    2    0    0  0.11543284030E+02  0.26367169034E+02 -0.18514084587E+01  0.28842723907E+02  0.00000000000E+00 0. -1.
         11    1    1    2    0    0 -0.10180440005E+03 -0.31036484937E+01 -0.30913249175E+01  0.10189860054E+03  0.00000000000E+00 0.  1.
</event>
<event>
 6    1  0.4988969E-006  0.1120783E+03  0.7561462E-02  0.1256769E+00
          1   -1    0    0  501    0  0.00000000000E+00  0.00000000000E+00  0.40482776101E+03  0.40482776101E+03  0.00000000000E+00 0. -1.
         -1   -1    0    0    0  501 -0.00000000000E+00 -0.00000000000E+00 -0.38962224286E+02  0.38962224286E+02  0.00000000000E+00 0.  1.
          5    1    1    2  502    0 -0.46100677829E+02  0.27740254468E+02  0.24327887949E+02  0.59195546677E+02  0.41800000000E+01 0.  1.
         -5    1    1    2    0  502 -0.16478955012E+00 -0.67135271072E+02  0.14558223468E+03  0.16037091766E+03  0.41800000000E+01 0.  1.
        -11    1    1    2    0    0 -0.18956511727E+02  0.32123344642E+02  0.10952164906E+03  0.11569896378E+03  0.00000000000E+00 0. -1.
         11    1    1    2    0    0  0.65221979106E+02  0.72716719630E+01  0.86433765038E+02  0.10852455718E+03  0.00000000000E+00 0.  1.
</event>
<event>
 6    1  0.4988969E-006  0.1372585E+03  0.7561462E-02  0.1217066E+00
         -1   -1    0    0    0  501 -0.00000000000E+00  0.00000000000E+00  0.71546892122E+02  0.71546892122E+02  0.00000000000E+00 0.  1.
          1   -1    0    0  501    0  0.00000000000E+00 -0.00000000000E+00 -0.36995859862E+03  0.36995859862E+03  0.00000000000E+00 0. -1.
          5    1    1    2  502    0 -0.23830414769E+02  0.10468268409E+02  0.84739848240E+01  0.27690325573E+02  0.41800000000E+01 0.  1.
         -5    1    1    2    0  502  0.86742899811E+02 -0.91782309981E+02 -0.78255768310E+02  0.14862624522E+03  0.41800000000E+01 0.  1.
        -11    1    1    2    0    0 -0.20746496984E+02  0.76612673270E+02 -0.88981390778E+02  0.11923760626E+03  0.00000000000E+00 0.  1.
         11    1    1    2    0    0 -0.42165988058E+02  0.47013683023E+01 -0.13964853223E+03  0.14595131369E+03  0.00000000000E+00 0. -1.
</event>
<event>
 6    1  0.4988969E-006  0.9371946E+02  0.7561462E-02  0.1294087E+00
          2   -1    0    0  501    0  0.00000000000E+00  0.00000000000E+00  0.12446551334E+03  0.12446551334E+03  0.00000000000E+00 0. -1.
         -2   -1    0    0    0  501 -0.00000000000E+00 -0.00000000000E+00 -0.10171298356E+03  0.10171298356E+03  0.00000000000E+00 0.  1.
          5    1    1    2  502    0 -0.74442192820E+01  0.44146720852E+02  0.41510775823E+02  0.61196129552E+02  0.41800000000E+01 0.  1.
         -5    1    1    2    0  502  0.23223446227E+01 -0.74587267506E+02  0.18925119971E+01  0.74764348189E+02  0.41800000000E+01 0.  1.
        -11    1    1    2    0    0  0.13336023719E+02 -0.15853493633E+02  0.19454690568E+02  0.28419496373E+02  0.00000000000E+00 0. -1.
         11    1    1    2    0    0 -0.82141490602E+01  0.46294040287E+02 -0.40105448604E+02  0.61798522787E+02  0.00000000000E+00 0.  1.
</event>
<event>
 6    1  0.4988969E-006  0.7561067E+02  0.7561462E-02  0.1341990E+00
          1   -1    0    0  501    0  0.00000000000E+00  0.00000000000E+00  0.29586434942E+03  0.29586434942E+03  0.00000000000E+00 0. -1.
         -1   -1    0    0    0  501 -0.00000000000E+00 -0.00000000000E+00 -0.61195099548E+02  0.61195099548E+02  0.00000000000E+00 0.  1.
          5    1    1    2  502    0  0.18628670388E+02  0.16088158198E+02  0.77970188468E+02  0.81869889974E+02  0.41800000000E+01 0. -1.
         -5    1    1    2    0  502 -0.59673410287E+02 -0.32384311154E+02 -0.14714562373E+02  0.69596337907E+02  0.41800000000E+01 0.  1.
        -11    1    1    2    0    0  0.96862876392E+01 -0.12393323174E+02 -0.10413798842E+02  0.18864406533E+02  0.00000000000E+00 0.  1.
         11    1    1    2    0    0  0.31358452260E+02  0.28689476130E+02  0.18182742261E+03  0.18672881455E+03  0.00000000000E+00 0. -1.
</event>
<event>
 6    1  0.4988969E-006  0.5072663E+02  0.7561462E-02  0.1441461E+00
          1   -1    0    0  501    0  0.00000000000E+00  0.00000000000E+00  0.29698511231E+02  0.29698511231E+02  0.00000000000E+00 0.  1.
         -1   -1    0    0    0  501 -0.00000000000E+00 -0.00000000000E+00 -0.43631514524E+03  0.43631514524E+03  0.00000000000E+00 0. -1.
          5    1    1    2  502    0 -0.11817700534E+02  0.31124799203E+01  0.95389388800E+01  0.16056442076E+02  0.41800000000E+01 0. -1.
         -5    1    1    2    0  502  0.55881831933E+01  0.10734725127E+02 -0.30354681696E+03  0.30381672864E+03  0.41800000000E+01 0. -1.
        -11    1    1    2    0    0 -0.33758793196E+02 -0.11512963540E+01 -0.99097618831E+01  0.35202059342E+02  0.00000000000E+00 0.  1.
         11    1    1    2    0    0  0.39988310537E+02 -0.12695908694E+02 -0.10269899404E+03  0.11093842641E+03  0.00000000000E+00 0. -1.
</event>
<event>
 6    1  0.4988969E-006  0.8955164E+02  0.7561462E-02  0.1303941E+00
          1   -1    0    0  501    0  0.00000000000E+00  0.00000000000E+00  0.12667240275E+03  0.12667240275E+03  0.00000000000E+00 0. -1.
         -1   -1    0    0    0  501 -0.00000000000E+00 -0.00000000000E+00 -0.14416007750E+03  0.14416007750E+03  0.00000000000E+00 0.  1.
          5    1    1    2  502    0  0.54848273691E+02 -0.27482197003E+01  0.23676740092E+02  0.59949530939E+02  0.41800000000E+01 0.  1.
         -5    1    1    2    0  502 -0.64952340958E+01 -0.37430519309E+02 -0.84388292816E+02  0.92639560697E+02  0.41800000000E+01 0.  1.
        -11    1    1    2    0    0 -0.53334163037E+02  0.88226964529E+01 -0.11226879296E+02  0.55212459991E+02  0.00000000000E+00 0.  1.
         11    1    1    2    0    0  0.49811234412E+01  0.31356042556E+02  0.54450757273E+02  0.63030928623E+02  0.00000000000E+00 0. -1.
</event>
<event>
 6    1  0.4988969E-006  0.1525707E+03  0.7561462E-02  0.1197349E+00
          1   -1    0    0  501    0  0.00000000000E+00  0.00000000000E+00  0.51923380362E+02  0.51923380362E+02  0.00000000000E+00 0. -1.
         -1   -1    0    0    0  501 -0.00000000000E+00 -0.00000000000E+00 -0.69239961513E+03  0.69239961513E+03  0.00000000000E+00 0.  1.
          5    1    1    2  502    0 -0.38444481517E+02  0.50040066064E+02 -0.33575447866E+03  0.34165849720E+03  0.41800000000E+01 0.  1.
         -5    1    1    2    0  502 -0.18904835247E+02  0.86335747172E+02 -0.90540294279E+02  0.12659491034E+03  0.41800000000E+01 0.  1.
        -11    1    1    2    0    0  0.34317313586E+02 -0.33356549140E+02 -0.14171484176E+02  0.49911605324E+02  0.00000000000E+00 0.  1.
         11    1    1    2    0    0  0.23032003179E+02 -0.10301926410E+03 -0.20000997765E+03  0.22615798263E+03  0.00000000000E+00 0. -1.
</event>
<event>
 6    1  0.4988969E-006  0.2155492E+03  0.7561462E-02  0.1137245E+00
         -2   -1    0    0    0  501 -0.00000000000E+00  0.00000000000E+00  0.43119440968E+03  0.43119440968E+03  0.00000000000E+00 0.  1.
          2   -1    0    0  501    0  0.00000000000E+00 -0.00000000000E+00 -0.13822231182E+03  0.13822231182E+03  0.00000000000E+00 0. -1.
          5    1    1    2  502    0 -0.11814407657E+02  0.20593165972E+03  0.18219956435E+03  0.27524821952E+03  0.41800000000E+01 0.  1.
         -5    1    1    2    0  502 -0.13557474018E+01 -0.52001082378E+01  0.71606007850E+02  0.71928936714E+02  0.41800000000E+01 0.  1.
        -11    1    1    2    0    0 -0.35173693895E+02 -0.10494597461E+03  0.29280802969E+02  0.11449109900E+03  0.00000000000E+00 0. -1.
         11    1    1    2    0    0  0.48343848954E+02 -0.95785576875E+02  0.98857226968E+01  0.10774846626E+03  0.00000000000E+00 0.  1.
</event>
<event>
 6    1  0.4988969E-006  0.8128089E+02  0.7561462E-02  0.1325455E+00
         -2   -1    0    0    0  501 -0.00000000000E+00  0.00000000000E+00  0.42636415756E+02  0.42636415756E+02  0.00000000000E+00 0.  1.
          2   -1    0    0  501    0  0.00000000000E+00 -0.00000000000E+00 -0.37885951493E+03  0.37885951493E+03  0.00000000000E+00 0. -1.
          5    1    1    2  502    0 -0.21292249624E+01 -0.18305586357E+02  0.20045909006E+02  0.27548846776E+02  0.41800000000E+01 0.  1.
         -5    1    1    2    0  502 -0.39472527054E+02 -0.30436445967E+02 -0.17340760855E+03  0.18047750203E+03  0.41800000000E+01 0.  1.
        -11    1    1    2    0    0 -0.18708006973E+02  0.57189002328E+01 -0.41310592318E+01  0.19994023986E+02  0.00000000000E+00 0.  1.
         11    1    1    2    0    0  0.60309758989E+02  0.43023132092E+02 -0.17873034040E+03  0.19347555790E+03  0.00000000000E+00 0. -1.
</event>
<event>
 6    1  0.4988969E-006  0.9256002E+02  0.7561462E-02  0.1296768E+00
         -3   -1    0    0    0  501 -0.00000000000E+00  0.00000000000E+00  0.90339081245E+02  0.90339081245E+02  0.00000000000E+00 0.  1.
          3   -1    0    0  501    0  0.00000000000E+00 -0.00000000000E+00 -0.28413362799E+03  0.28413362799E+03  0.00000000000E+00 0. -1.
          5    1    1    2  502    0  0.45788954894E+02 -0.48907568302E+02 -0.42784466880E+02  0.79602522785E+02  0.41800000000E+01 0. -1.
         -5    1    1    2    0  502 -0.22038131982E+02 -0.80563435133E+01  0.55573033053E+02  0.60468325053E+02  0.41800000000E+01 0. -1.
        -11    1    1    2    0    0 -0.43877575205E+02  0.12929501370E+02 -0.16287072000E+03  0.16917235308E+03  0.00000000000E+00 0. -1.
         11    1    1    2    0    0  0.20126752293E+02  0.44034410446E+02 -0.43712392917E+02  0.65229508320E+02  0.00000000000E+00 0.  1.
</event>
<event>
 6    1  0.4988969E-006  0.1085448E+03  0.7561462E-02  0.1263289E+00
          2   -1    0    0  501    0  0.00000000000E+00  0.00000000000E+00  0.17906789350E+03  0.17906789350E+03  0.00000000000E+00 0. -1.
         -2   -1    0    0    0  501 -0.00000000000E+00 -0.00000000000E+00 -0.88414556745E+02  0.88414556745E+02  0.00000000000E+00 0.  1.
          5    1    1    2  502    0 -0.17361136488E+02 -0.37360620379E+02  0.11713245084E+02  0.43033678970E+02  0.41800000000E+01 0.  1.
         -5    1    1    2    0  502  0.93354605035E+01  0.96717574821E+02  0.23234405266E+02  0.99993750255E+02  0.41800000000E+01 0.  1.
        -11    1    1    2    0    0 -0.20099086575E+02 -0.38425865791E+02  0.73347449415E+02  0.85207797640E+02  0.00000000000E+00 0.  1.
         11    1    1    2    0    0  0.28124762559E+02 -0.20931088650E+02 -0.17641763009E+02  0.39247223382E+02  0.00000000000E+00 0. -1.
</event>
<event>
 6    1  0.4988969E-006  0.9653377E+02  0.7561462E-02  0.1287759E+00
          4   -1    0    0  501    0  0.00000000000E+00  0.00000000000E+00  0.23114522300E+02  0.23114522300E+02  0.00000000000E+00 0. -1.
         -4   -1    0    0    0  501 -0.00000000000E+00 -0.00000000000E+00 -0.77542909084E+03  0.77542909084E+03  0.00000000000E+00 0.  1.
          5    1    1    2  502    0 -0.44016664743E+02 -0.74391813295E+01 -0.26768881360E+03  0.27141772514E+03  0.41800000000E+01 0.  1.
         -5    1    1    2    0  502  0.80346892824E+02 -0.33857775343E+02 -0.29623855350E+03  0.30883122432E+03  0.41800000000E+01 0.  1.
        -11    1    1    2    0    0 -0.32989006083E+02  0.18342288097E+02 -0.19123454585E+03  0.19492399950E+03  0.00000000000E+00 0.  1.
         11    1    1    2    0    0 -0.33412219986E+01  0.22954668575E+02  0.28473444082E+01  0.23370664176E+02  0.00000000000E+00 0. -1.
</event>
<event>
 6    1  0.4988969E-006  0.1650118E+03  0.7561462E-02  0.1183152E+00
         -1   -1    0    0    0  501 -0.00000000000E+00  0.00000000000E+00  0.66630603942E+02  0.66630603942E+02  0.00000000000E+00 0.  1.
          1   -1    0    0  501    0  0.00000000000E+00 -0.00000000000E+00 -0.78713613617E+03  0.78713613617E+03  0.00000000000E+00 0. -1.
          5    1    1    2  502    0  0.13790034772E+03 -0.10603206490E+02 -0.91066746801E+02  0.16564890179E+03  0.41800000000E+01 0.  1.
         -5    1    1    2    0  502 -0.10376229259E+02 -0.44439314549E+02 -0.10215791837E+02  0.46950544342E+02  0.41800000000E+01 0.  1.
        -11    1    1    2    0    0 -0.31352272448E+02  0.36088975034E+02 -0.80707321250E+02  0.93803255860E+02  0.00000000000E+00 0. -1.
         11    1    1    2    0    0 -0.96171846018E+02  0.18953546005E+02 -0.53851567234E+03  0.54736403812E+03  0.00000000000E+00 0.  1.
</event>
<event>
 6    1  0.4988969E-006  0.1339273E+03  0.7561462E-02  0.1221742E+00
         -1   -1    0    0    0  501 -0.00000000000E+00  0.00000000000E+00  0.58749268524E+02  0.58749268524E+02  0.00000000000E+00 0.  1.
          1   -1    0    0  501    0  0.00000000000E+00 -0.00000000000E+00 -0.43525778333E+03  0.43525778333E+03  0.00000000000E+00 0. -1.
          5    1    1    2  502    0  0.34412802909E+02  0.63736318878E+02 -0.31680368750E+02  0.79168664964E+02  0.41800000000E+01 0. -1.
         -5    1    1    2    0  502  0.74684666108E+02 -0.33896636086E+02 -0.13451380390E+03  0.15760145027E+03  0.41800000000E+01 0. -1.
        -11    1    1    2    0    0 -0.54152267571E+02 -0.16917799837E+02 -0.18828410617E+03  0.19664583563E+03  0.00000000000E+00 0. -1.
         11    1    1    2    0    0 -0.54945201445E+02 -0.12921882955E+02 -0.22030235991E+02  0.60591100987E+02  0.00000000000E+00 0.  1.
</event>
<event>
 6    1  0.4988969E-006  0.1211539E+03  0.7561462E-02  0.1241206E+00
          3   -1    0    0  501    0  0.00000000000E+00  0.00000000000E+00  0.16139936983E+02  0.16139936983E+02  0.00000000000E+00 0. -1.
         -3   -1    0    0    0  501 -0.00000000000E+00 -0.00000000000E+00 -0.10160164612E+04  0.10160164612E+04  0.00000000000E+00 0.  1.
          5    1    1    2  502    0 -0.70144570671E+02 -0.26429092089E+02 -0.38422677033E+03  0.39149258121E+03  0.41800000000E+01 0. -1.
         -5    1    1    2    0  502  0.17740236695E+02  0.62156417167E+02 -0.28374488043E+03  0.29104426770E+03  0.41800000000E+01 0. -1.
        -11    1    1    2    0    0  0.69568663743E+02 -0.82425720071E+01 -0.27829739705E+03  0.28697940723E+03  0.00000000000E+00 0.  1.
         11    1    1    2    0    0 -0.17164329767E+02 -0.27484753071E+02 -0.53607476371E+02  0.62640142007E+02  0.00000000000E+00 0. -1.
</event>
<event>
 6    1  0.4988969E-006  0.1654287E+03  0.7561462E-02  0.1182701E+00
         -1   -1    0    0    0  501 -0.00000000000E+00  0.00000000000E+00  0.38055519590E+03  0.38055519590E+03  0.00000000000E+00 0.  1.
          1   -1    0    0  501    0  0.00000000000E+00 -0.00000000000E+00 -0.74687266298E+02  0.74687266298E+02  0.00000000000E+00 0. -1.
          5    1    1    2  502    0  0.69756555560E+02  0.39540507985E+01  0.34703784800E+02  0.78124494499E+02  0.41800000000E+01 0.  1.
         -5    1    1    2    0  502 -0.12187764799E+02  0.99435360782E+02  0.86859406156E+02  0.13265730821E+03  0.41800000000E+01 0.  1.
        -11    1    1    2    0    0 -0.89715595677E+02 -0.84867295609E+02  0.14100294621E+03  0.18743846140E+03  0.00000000000E+00 0. -1.
         11    1    1    2    0    0  0.32146804916E+02 -0.18522115972E+02  0.43301792434E+02  0.57022198085E+02  0.00000000000E+00 0.  1.
</event>
<event>
 6    1  0.4988969E-006  0.2542891E+03  0.7561462E-02  0.1110624E+00
          2   -1    0    0  501    0  0.00000000000E+00  0.00000000000E+00  0.57334285346E+03  0.57334285346E+03  0.00000000000E+00 0. -1.
         -2   -1    0    0    0  501 -0.00000000000E+00 -0.00000000000E+00 -0.13218048686E+03  0.13218048686E+03  0.00000000000E+00 0.  1.
          5    1    1    2  502    0 -0.24998068698E+03 -0.35046806061E+02  0.24258754480E+03  0.35012113871E+03  0.41800000000E+01 0. -1.
         -5    1    1    2    0  502  0.67481767025E+01 -0.32840258832E+01  0.55841162518E+02  0.56498057897E+02  0.41800000000E+01 0. -1.
        -11    1    1    2    0    0  0.10151004687E+03  0.34143899937E+01  0.10921667233E+03  0.14914499384E+03  0.00000000000E+00 0. -1.
         11    1    1    2    0    0  0.14172246342E+03  0.34916441951E+02  0.33516986954E+02  0.14975914987E+03  0.00000000000E+00 0.  1.
</event>
<event>
 6    1  0.4988969E-006  0.1108545E+03  0.7561462E-02  0.1258996E+00
         -1   -1    0    0    0  501 -0.00000000000E+00  0.00000000000E+00  0.12589651416E+02  0.12589651416E+02  0.00000000000E+00 0.  1.
          1   -1    0    0  501    0  0.00000000000E+00 -0.00000000000E+00 -0.10254444525E+04  0.10254444525E+04  0.00000000000E+00 0. -1.
          5    1    1    2  502    0 -0.64581628612E+02 -0.63507219856E+01 -0.21745105463E+03  0.22696597098E+03  0.41800000000E+01 0. -1.
         -5    1    1    2    0  502  0.53833378220E+02  0.31413903609E+02 -0.33760482204E+03  0.34333562911E+03  0.41800000000E+01 0.  1.
        -11    1    1    2    0    0 -0.38542031821E+02  0.79761299678E+00 -0.14597856981E+03  0.15098300317E+03  0.00000000000E+00 0. -1.
         11    1    1    2    0    0  0.49290282213E+02 -0.25860794620E+02 -0.31182035463E+03  0.31674950068E+03  0.00000000000E+00 0.  1.
</event>
<event>
 6    1  0.4988969E-006  0.9548880E+02  0.7561462E-02  0.1290079E+00
          1   -1    0    0  501    0  0.00000000000E+00  0.00000000000E+00  0.42119413016E+03  0.42119413016E+03  0.00000000000E+00 0. -1.
         -1   -1    0    0    0  501 -0.00000000000E+00 -0.00000000000E+00 -0.31451906364E+02  0.31451906364E+02  0.00000000000E+00 0.  1.
          5    1    1    2  502    0  0.37639483845E+02 -0.27388082681E+02  0.22706375079E+02  0.51960462721E+02  0.41800000000E+01 0.  1.
         -5    1    1    2    0  502 -0.55073912259E+02 -0.91608067407E+01  0.19023092511E+03  0.19829859672E+03  0.41800000000E+01 0.  1.
        -11    1    1    2    0    0 -0.26465539655E+02  0.35579757034E+02  0.43828195700E+02  0.62347851913E+02  0.00000000000E+00 0.  1.
         11    1    1    2    0    0  0.43899968070E+02  0.96913238697E+00  0.13297672791E+03  0.14003912517E+03  0.00000000000E+00 0. -1.
</event>
<event>
 6    1  0.6062115E-006  0.4958318E+03  0.7561462E-02  0.1014873E+00
         -2   -1    0    0    0  501 -0.00000000000E+00  0.00000000000E+00  0.18719872239E+03  0.18719872239E+03  0.00000000000E+00 0. -1.
          2   -1    0    0  501    0  0.00000000000E+00 -0.00000000000E+00 -0.13775984807E+04  0.13775984807E+04  0.00000000000E+00 0.  1.
          5    1    1    2  502    0  0.40429300121E+03  0.26733857117E+03 -0.50083131644E+03  0.69697361671E+03  0.41800000000E+01 0. -1.
         -5    1    1    2    0  502  0.12472960659E+02 -0.58686572398E+01  0.22406317532E+01  0.14577678692E+02  0.41800000000E+01 0. -1.
        -11    1    1    2    0    0 -0.40778262564E+03 -0.25136149544E+03 -0.68943209448E+03  0.83951526732E+03  0.00000000000E+00 0.  1.
         11    1    1    2    0    0 -0.89833362305E+01 -0.10108418497E+02 -0.23769791066E+01  0.13730640336E+02  0.00000000000E+00 0. -1.
</event>
<event>
 6    1  0.4988969E-006  0.9235239E+02  0.7561462E-02  0.1297253E+00
          2   -1    0    0  501    0  0.00000000000E+00  0.00000000000E+00  0.10609618835E+03  0.10609618835E+03  0.00000000000E+00 0.  1.
         -2   -1    0    0    0  501 -0.00000000000E+00 -0.00000000000E+00 -0.11801714772E+03  0.11801714772E+03  0.00000000000E+00 0. -1.
          5    1    1    2  502    0 -0.55274167042E+00  0.55779543922E+02 -0.54023753490E+02  0.77766968468E+02  0.41800000000E+01 0.  1.
         -5    1    1    2    0  502  0.12176258530E+02 -0.42034018901E+02  0.26833752888E+02  0.51503812585E+02  0.41800000000E+01 0.  1.
        -11    1    1    2    0    0  0.33760989927E+02  0.76701627283E+01  0.26279363212E+02  0.43465397363E+02  0.00000000000E+00 0.  1.
         11    1    1    2    0    0 -0.45384506786E+02 -0.21415687750E+02 -0.11010321977E+02  0.51377157649E+02  0.00000000000E+00 0. -1.
</event>
<event>
 6    1  0.4988969E-006  0.1313956E+03  0.7561462E-02  0.1225399E+00
          2   -1    0    0  501    0  0.00000000000E+00  0.00000000000E+00  0.56824416093E+02  0.56824416093E+02  0.00000000000E+00 0.  1.
         -2   -1    0    0    0  501 -0.00000000000E+00 -0.00000000000E+00 -0.46082010660E+03  0.46082010660E+03  0.00000000000E+00 0. -1.
          5    1    1    2  502    0  0.36729125937E+02  0.10281260135E+03 -0.17848477173E+03  0.20926955303E+03  0.41800000000E+01 0.  1.
         -5    1    1    2    0  502  0.14596707669E+02  0.38418703418E+00  0.18708585501E+02  0.24097614942E+02  0.41800000000E+01 0.  1.
        -11    1    1    2    0    0  0.19457836768E+02 -0.35058772051E+02 -0.35352140457E+02  0.53455577298E+02  0.00000000000E+00 0.  1.
         11    1    1    2    0    0 -0.70783670374E+02 -0.68138016329E+02 -0.20886736382E+03  0.23082177742E+03  0.00000000000E+00 0. -1.
</event>
<event>
 6    1  0.4988969E-006  0.1265155E+03  0.7561462E-02  0.1232720E+00
         -1   -1    0    0    0  501 -0.00000000000E+00  0.00000000000E+00  0.96181012070E+02  0.96181012070E+02  0.00000000000E+00 0.  1.
          1   -1    0    0  501    0  0.00000000000E+00 -0.00000000000E+00 -0.24350686901E+03  0.24350686901E+03  0.00000000000E+00 0. -1.
          5    1    1    2  502    0  0.29585849266E+02 -0.90975060987E+01  0.28240081237E+02  0.42107738984E+02  0.41800000000E+01 0.  1.
         -5    1    1    2    0  502 -0.97238661135E+02 -0.36601258875E+02 -0.26389684974E+02  0.10727952854E+03  0.41800000000E+01 0.  1.
        -11    1    1    2    0    0  0.77828258337E+02  0.73916614803E+01 -0.92013122641E+02  0.12074058636E+03  0.00000000000E+00 0.  1.
         11    1    1    2    0    0 -0.10175446468E+02  0.38307103493E+02 -0.57163130564E+02  0.69560027205E+02  0.00000000000E+00 0. -1.
</event>
<event>
 6    1  0.4988969E-006  0.8544077E+02  0.7561462E-02  0.1314284E+00
         -1   -1    0    0    0  501 -0.00000000000E+00  0.00000000000E+00  0.21831135085E+02  0.21831135085E+02  0.00000000000E+00 0.  1.
          1   -1    0    0  501    0  0.00000000000E+00 -0.00000000000E+00 -0.66118537240E+03  0.66118537240E+03  0.00000000000E+00 0. -1.
          5    1    1    2  502    0  0.21164285004E+02 -0.48673216870E+02 -0.40283182150E+02  0.66762385849E+02  0.41800000000E+01 0.  1.
         -5    1    1    2    0  502  0.14690693599E+02  0.10278478656E+02 -0.28615452643E+03  0.28674614034E+03  0.41800000000E+01 0.  1.
        -11    1    1    2    0    0 -0.99187143303E+01 -0.27062606987E+02 -0.54266476534E+02  0.61446041909E+02  0.00000000000E+00 0.  1.
         11    1    1    2    0    0 -0.25936264272E+02  0.65457345201E+02 -0.25865005219E+03  0.26806193938E+03  0.00000000000E+00 0. -1.
</event>
<event>
 6    1  0.4988969E-006  0.2251265E+03  0.7561462E-02  0.1130118E+00
          2   -1    0    0  501    0  0.00000000000E+00  0.00000000000E+00  0.14363097752E+03  0.14363097752E+03  0.00000000000E+00 0. -1.
         -2   -1    0    0    0  501 -0.00000000000E+00 -0.00000000000E+00 -0.39487991248E+03  0.39487991248E+03  0.00000000000E+00 0.  1.
          5    1    1    2  502    0  0.98871352107E+02  0.72687696651E+02 -0.98812523415E+02  0.15760847914E+03  0.41800000000E+01 0. -1.
         -5    1    1    2    0  502  0.10953852281E+03 -0.38085289442E+02 -0.30991662292E+02  0.12011300006E+03  0.41800000000E+01 0. -1.
        -11    1    1    2    0    0 -0.12153017990E+03 -0.16091247155E+02 -0.17137284270E+02  0.12378287189E+03  0.00000000000E+00 0. -1.
         11    1    1    2    0    0 -0.86879695024E+02 -0.18511160054E+02 -0.10430746498E+03  0.13700653891E+03  0.00000000000E+00 0.  1.
</event>
<event>
 6    1  0.4988969E-006  0.1560089E+03  0.7561462E-02  0.1193278E+00
          1   -1    0    0  501    0  0.00000000000E+00  0.00000000000E+00  0.44756041472E+02  0.44756041472E+02  0.00000000000E+00 0. -1.
         -1   -1    0    0    0  501 -0.00000000000E+00 -0.00000000000E+00 -0.65129776755E+03  0.65129776755E+03  0.00000000000E+00 0.  1.
          5    1    1    2  502    0 -0.30283306477E+02  0.56770824853E+02 -0.15145259953E+03  0.16460670555E+03  0.41800000000E+01 0. -1.
         -5    1    1    2    0  502 -0.84496408445E+02 -0.61551418786E+02 -0.30199778074E+03  0.31960655839E+03  0.41800000000E+01 0. -1.
        -11    1    1    2    0    0  0.75134403442E+02 -0.38332029331E+02 -0.11237432917E+03  0.14050805283E+03  0.00000000000E+00 0.  1.
         11    1    1    2    0    0  0.39645311480E+02  0.43112623264E+02 -0.40717016624E+02  0.71332492245E+02  0.00000000000E+00 0. -1.
</event>
<event>
 6    1  0.4988969E-006  0.9703706E+02  0.7561462E-02  0.1286653E+00
          2   -1    0    0  501    0  0.00000000000E+00  0.00000000000E+00  0.19373709342E+03  0.19373709342E+03  0.00000000000E+00 0. -1.
         -2   -1    0    0    0  501 -0.00000000000E+00 -0.00000000000E+00 -0.12451304526E+03  0.12451304526E+03  0.00000000000E+00 0.  1.
          5    1    1    2  502    0 -0.56255096891E+02  0.28775208009E+02  0.56010860005E+02  0.84541926644E+02  0.41800000000E+01 0. -1.
         -5    1    1    2    0  502  0.27373986174E+02 -0.30932388761E+02 -0.85924221335E+02  0.95428465384E+02  0.41800000000E+01 0.  1.
        -11    1    1    2    0    0  0.41345268612E+02  0.34957792868E+02  0.84284611964E+02  0.10017671552E+03  0.00000000000E+00 0. -1.
         11    1    1    2    0    0 -0.12464157895E+02 -0.32800612116E+02  0.14852797524E+02  0.38103031133E+02  0.00000000000E+00 0.  1.
</event>
<event>
 6    1  0.4988969E-006  0.3025219E+03  0.7561462E-02  0.1083987E+00
          1   -1    0    0  501    0  0.00000000000E+00  0.00000000000E+00  0.13805125165E+04  0.13805125165E+04  0.00000000000E+00 0.  1.
         -1   -1    0    0    0  501 -0.00000000000E+00 -0.00000000000E+00 -0.68056258585E+02  0.68056258585E+02  0.00000000000E+00 0. -1.
          5    1    1    2  502    0 -0.67369029707E+01 -0.15315271466E+03  0.25083465995E+03  0.29400108656E+03  0.41800000000E+01 0.  1.
         -5    1    1    2    0  502  0.10677410526E+03 -0.11117943380E+03  0.31617224415E+03  0.35177256349E+03  0.41800000000E+01 0.  1.
        -11    1    1    2    0    0 -0.74319741730E+02  0.26120778945E+03  0.66654228793E+03  0.71974408985E+03  0.00000000000E+00 0. -1.
         11    1    1    2    0    0 -0.25717460560E+02  0.31243590173E+01  0.78907065899E+02  0.83051035188E+02  0.00000000000E+00 0.  1.
</event>
<event>
 6    1  0.4988969E-006  0.1184234E+03  0.7561462E-02  0.1245721E+00
         -2   -1    0    0    0  501 -0.00000000000E+00  0.00000000000E+00  0.29643705691E+02  0.29643705691E+02  0.00000000000E+00 0.  1.
          2   -1    0    0  501    0  0.00000000000E+00 -0.00000000000E+00 -0.59641354521E+03  0.59641354521E+03  0.00000000000E+00 0. -1.
          5    1    1    2  502    0 -0.10683127996E+02 -0.31608445212E+02 -0.15592080740E+02  0.37064921615E+02  0.41800000000E+01 0. -1.
         -5    1    1    2    0  502  0.74996109088E+02  0.59562226616E+02 -0.20108341550E+03  0.22276464622E+03  0.41800000000E+01 0. -1.
        -11    1    1    2    0    0 -0.63118937298E+02  0.14602310047E+02 -0.22040977699E+03  0.22973397115E+03  0.00000000000E+00 0.  1.
         11    1    1    2    0    0 -0.11940437938E+01 -0.42556091451E+02 -0.12968456629E+03  0.13649371192E+03  0.00000000000E+00 0. -1.
</event>
<event>
 6    1  0.4988969E-006  0.6881791E+02  0.7561462E-02  0.1364160E+00
          4   -1    0    0  501    0  0.00000000000E+00  0.00000000000E+00  0.11373856172E+03  0.11373856172E+03  0.00000000000E+00 0. -1.
         -4   -1    0    0    0  501 -0.00000000000E+00 -0.00000000000E+00 -0.11594446858E+03  0.11594446858E+03  0.00000000000E+00 0.  1.
          5    1    1    2  502    0 -0.80353647197E+01  0.10265259455E+02  0.58334649115E+02  0.59919498706E+02  0.41800000000E+01 0.  1.
         -5    1    1    2    0  502 -0.16664220398E+01  0.24912016983E+02 -0.65897783829E+02  0.70593029869E+02  0.41800000000E+01 0.  1.
        -11    1    1    2    0    0 -0.41172933908E+02 -0.13493212238E+02 -0.20360635818E+01  0.43375371099E+02  0.00000000000E+00 0.  1.
         11    1    1    2    0    0  0.50874720668E+02 -0.21684064200E+02  0.73932914332E+01  0.55795130625E+02  0.00000000000E+00 0. -1.
</event>
<event>
 6    1  0.4988969E-006  0.1812634E+03  0.7561462E-02  0.1166586E+00
         -1   -1    0    0    0  501 -0.00000000000E+00  0.00000000000E+00  0.39952612663E+02  0.39952612663E+02  0.00000000000E+00 0.  1.
          1   -1    0    0  501    0  0.00000000000E+00 -0.00000000000E+00 -0.85397331862E+03  0.85397331862E+03  0.00000000000E+00 0. -1.
          5    1    1    2  502    0 -0.79892168063E+02 -0.30590311953E+02 -0.24563521039E+03  0.26013968303E+03  0.41800000000E+01 0.  1.
         -5    1    1    2    0  502  0.16420502601E+02 -0.10411245416E+03 -0.20092309548E+03  0.22692862030E+03  0.41800000000E+01 0.  1.
        -11    1    1    2    0    0  0.17195038253E+02 -0.97104561570E+01 -0.73217719677E+02  0.75834008031E+02  0.00000000000E+00 0. -1.
         11    1    1    2    0    0  0.46276627209E+02  0.14441322227E+03 -0.29424468041E+03  0.33102361992E+03  0.00000000000E+00 0.  1.
</event>
<event>
 6    1  0.4988969E-006  0.1873776E+03  0.7561462E-02  0.1160848E+00
          2   -1    0    0  501    0  0.00000000000E+00  0.00000000000E+00  0.15244012937E+03  0.15244012937E+03  0.00000000000E+00 0. -1.
         -2   -1    0    0    0  501 -0.00000000000E+00 -0.00000000000E+00 -0.23401676742E+03  0.23401676742E+03  0.00000000000E+00 0.  1.
          5    1    1    2  502    0  0.13700182461E+03 -0.95863765204E+02 -0.31132806541E+02  0.17013549150E+03  0.41800000000E+01 0. -1.
         -5    1    1    2    0  502  0.17007393833E+01  0.29425198031E+02  0.36922899593E+01  0.29997336528E+02  0.41800000000E+01 0. -1.
        -11    1    1    2    0    0 -0.45852954003E+02  0.71272071331E+02 -0.18433486106E+02  0.86729435330E+02  0.00000000000E+00 0. -1.
         11    1    1    2    0    0 -0.92849609987E+02 -0.48335041578E+01 -0.35702635367E+02  0.99594633436E+02  0.00000000000E+00 0.  1.
</event>
<event>
 6    1  0.4988969E-006  0.9812049E+02  0.7561462E-02  0.1284299E+00
         -1   -1    0    0    0  501 -0.00000000000E+00  0.00000000000E+00  0.44312668345E+02  0.44312668345E+02  0.00000000000E+00 0.  1.
          1   -1    0    0  501    0  0.00000000000E+00 -0.00000000000E+00 -0.38375414726E+03  0.38375414726E+03  0.00000000000E+00 0. -1.
          5    1    1    2  502    0  0.34065628457E+02  0.31588678300E+02 -0.60568979023E+02  0.76448579181E+02  0.41800000000E+01 0. -1.
         -5    1    1    2    0  502 -0.68035306809E+02 -0.29865273238E+02 -0.23341462153E+02  0.77993805995E+02  0.41800000000E+01 0. -1.
        -11    1    1    2    0    0  0.43256385154E+02  0.22840112250E+02 -0.23568643463E+03  0.24070912124E+03  0.00000000000E+00 0. -1.
         11    1    1    2    0    0 -0.92867068022E+01 -0.24563517312E+02 -0.19844603115E+02  0.32915309186E+02  0.00000000000E+00 0.  1.
</event>
<event>
 6    1  0.4988969E-006  0.3949474E+03  0.7561462E-02  0.1045543E+00
          1   -1    0    0  501    0  0.00000000000E+00  0.00000000000E+00  0.12645923237E+04  0.12645923237E+04  0.00000000000E+00 0. -1.
         -1   -1    0    0    0  501 -0.00000000000E+00 -0.00000000000E+00 -0.13520832313E+03  0.13520832313E+03  0.00000000000E+00 0.  1.
          5    1    1    2  502    0 -0.32354368183E+03 -0.21358969451E+03  0.38517285947E+03  0.54651319813E+03  0.41800000000E+01 0.  1.
         -5    1    1    2    0  502  0.16521693266E+01 -0.85725326730E+01  0.53474693936E+02  0.54343658981E+02  0.41800000000E+01 0.  1.
        -11    1    1    2    0    0  0.19294308172E+02  0.46562467349E+01  0.88774830683E+02  0.90966595650E+02  0.00000000000E+00 0. -1.
         11    1    1    2    0    0  0.30259720433E+03  0.21750598045E+03  0.60196161645E+03  0.70797719403E+03  0.00000000000E+00 0.  1.
</event>
<event>
 6    1  0.4988969E-006  0.1446518E+03  0.7561462E-02  0.1207203E+00
         -2   -1    0    0    0  501 -0.00000000000E+00  0.00000000000E+00  0.10284089428E+03  0.10284089428E+03  0.00000000000E+00 0. -1.
          2   -1    0    0  501    0  0.00000000000E+00 -0.00000000000E+00 -0.43360435217E+03  0.43360435217E+03  0.00000000000E+00 0.  1.
          5    1    1    2  502    0 -0.63778152863E+02 -0.52982045735E+02 -0.68474190295E+02  0.10761476241E+03  0.41800000000E+01 0.  1.
         -5    1    1    2    0  502 -0.46532184869E+02 -0.16665565450E+02  0.54461470337E+02  0.73664845427E+02  0.41800000000E+01 0.  1.
        -11    1    1    2    0    0  0.46881222940E+02  0.79694702342E+02 -0.14686147739E+03  0.17354362041E+03  0.00000000000E+00 0. -1.
         11    1    1    2    0    0  0.63429114792E+02 -0.10047091157E+02 -0.16988926055E+03  0.18162201820E+03  0.00000000000E+00 0.  1.
</event>
<event>
 6    1  0.4988969E-006  0.1310376E+03  0.7561462E-02  0.1225924E+00
         -1   -1    0    0    0  501 -0.00000000000E+00  0.00000000000E+00  0.12562754663E+03  0.12562754663E+03  0.00000000000E+00 0.  1.
          1   -1    0    0  501    0  0.00000000000E+00 -0.00000000000E+00 -0.17175194504E+03  0.17175194504E+03  0.00000000000E+00 0. -1.
          5    1    1    2  502    0  0.45753825623E+02 -0.10066073168E+03  0.22181085196E+01  0.11067243499E+03  0.41800000000E+01 0. -1.
         -5    1    1    2    0  502  0.46230409880E+01  0.31905209520E+02  0.29685388601E+02  0.44022830428E+02  0.41800000000E+01 0. -1.
        -11    1    1    2    0    0  0.12881704936E+01  0.67216353778E+02 -0.37334070068E+02  0.76899482354E+02  0.00000000000E+00 0.  1.
         11    1    1    2    0    0 -0.51665037104E+02  0.15391683780E+01 -0.40693825462E+02  0.65784743893E+02  0.00000000000E+00 0. -1.
</event>
<event>
 6    1  0.4988969E-006  0.1185995E+03  0.7561462E-02  0.1245425E+00
         -2   -1    0    0    0  501 -0.00000000000E+00  0.00000000000E+00  0.70305486797E+02  0.70305486797E+02  0.00000000000E+00 0.  1.
          2   -1    0    0  501    0  0.00000000000E+00 -0.00000000000E+00 -0.31400194986E+03  0.31400194986E+03  0.00000000000E+00 0. -1.
          5    1    1    2  502    0 -0.81535792658E+02  0.28418763936E+02  0.11295206291E+02  0.87182370426E+02  0.41800000000E+01 0.  1.
         -5    1    1    2    0  502  0.18315544995E+02 -0.31044609864E+02 -0.43547942669E+02  0.56684413208E+02  0.41800000000E+01 0.  1.
        -11    1    1    2    0    0  0.42474171534E+02  0.48288531661E+02 -0.11984376665E+03  0.13600869803E+03  0.00000000000E+00 0. -1.
         11    1    1    2    0    0  0.20746076129E+02 -0.45662685733E+02 -0.91599960042E+02  0.10443195499E+03  0.00000000000E+00 0.  1.
</event>
<event>
 6    1  0.4988969E-006  0.1100026E+03  0.7561462E-02  0.1260565E+00
          1   -1    0    0  501    0  0.00000000000E+00  0.00000000000E+00  0.12804618554E+03  0.12804618554E+03  0.00000000000E+00 0. -1.
         -1   -1    0    0    0  501 -0.00000000000E+00 -0.00000000000E+00 -0.15244101964E+03  0.15244101964E+03  0.00000000000E+00 0.  1.
          5    1    1    2  502    0  0.17536384823E+02  0.45966036154E+02  0.16452660446E+02  0.52043863308E+02  0.41800000000E+01 0. -1.
         -5    1    1    2    0  502  0.61124586921E+02 -0.48054872971E+02 -0.71327976114E+02  0.10559658384E+03  0.41800000000E+01 0. -1.
        -11    1    1    2    0    0 -0.49598840206E+02  0.25200539671E+02 -0.20920189394E+02  0.59437079956E+02  0.00000000000E+00 0. -1.
         11    1    1    2    0    0 -0.29062131537E+02 -0.23111702854E+02  0.51400670955E+02  0.63409678070E+02  0.00000000000E+00 0.  1.
</event>
<event>
 6    1  0.4988969E-006  0.1287239E+03  0.7561462E-02  0.1229362E+00
          1   -1    0    0  501    0  0.00000000000E+00  0.00000000000E+00  0.10437003610E+03  0.10437003610E+03  0.00000000000E+00 0. -1.
         -1   -1    0    0    0  501 -0.00000000000E+00 -0.00000000000E+00 -0.19845032570E+03  0.19845032570E+03  0.00000000000E+00 0.  1.
          5    1    1    2  502    0 -0.62343241488E+01 -0.17611291314E+02 -0.58107903475E+02  0.61180268270E+02  0.41800000000E+01 0.  1.
         -5    1    1    2    0  502 -0.44636733012E+02  0.10227710119E+03 -0.99111765303E+01  0.11211042406E+03  0.41800000000E+01 0.  1.
        -11    1    1    2    0    0  0.36769920588E+01  0.15486710212E+02 -0.60075146333E+01  0.17013191819E+02  0.00000000000E+00 0. -1.
         11    1    1    2    0    0  0.47194065102E+02 -0.10015252009E+03 -0.20053694961E+02  0.11251647765E+03  0.00000000000E+00 0.  1.
</event>
<event>
 6    1  0.4988969E-006  0.1106700E+03  0.7561462E-02  0.1259334E+00
         -2   -1    0    0    0  501 -0.00000000000E+00  0.00000000000E+00  0.24085337028E+02  0.24085337028E+02  0.00000000000E+00 0.  1.
          2   -1    0    0  501    0  0.00000000000E+00 -0.00000000000E+00 -0.57175821964E+03  0.57175821964E+03  0.00000000000E+00 0. -1.
          5    1    1    2  502    0 -0.81106356031E+02 -0.35505233062E+01 -0.12934276644E+03  0.15276737490E+03  0.41800000000E+01 0.  1.
         -5    1    1    2    0  502  0.46594944798E+02  0.53754343854E+01 -0.10590556108E+03  0.11590273700E+03  0.41800000000E+01 0.  1.
        -11    1    1    2    0    0 -0.28104639396E+02 -0.99579198122E+01 -0.14943645822E+03  0.15238203952E+03  0.00000000000E+00 0. -1.
         11    1    1    2    0    0  0.62616050629E+02  0.81330087330E+01 -0.16298809687E+03  0.17479140525E+03  0.00000000000E+00 0.  1.
</event>
<event>
 6    1  0.4988969E-006  0.1388030E+03  0.7561462E-02  0.1214949E+00
          2   -1    0    0  501    0  0.00000000000E+00  0.00000000000E+00  0.47034782722E+03  0.47034782722E+03  0.00000000000E+00 0. -1.
         -2   -1    0    0    0  501 -0.00000000000E+00 -0.00000000000E+00 -0.52411552200E+02  0.52411552200E+02  0.00000000000E+00 0.  1.
          5    1    1    2  502    0  0.32146374978E+02  0.36824865598E+02  0.16032848012E+02  0.51613804025E+02  0.41800000000E+01 0.  1.
         -5    1    1    2    0  502  0.78403516533E+02 -0.60988189428E+02  0.19200391430E+03  0.21621666485E+03  0.41800000000E+01 0.  1.
        -11    1    1    2    0    0 -0.24988541246E+02 -0.20761563656E+02  0.11494118402E+03  0.11944431967E+03  0.00000000000E+00 0. -1.
         11    1    1    2    0    0 -0.85561350265E+02  0.44924887486E+02  0.94958328698E+02  0.13548459087E+03  0.00000000000E+00 0.  1.
</event>
<event>
 6    1  0.4988969E-006  0.1393511E+03  0.7561462E-02  0.1214205E+00
          3   -1    0    0  501    0  0.00000000000E+00  0.00000000000E+00  0.76605710252E+03  0.76605710252E+03  0.00000000000E+00 0. -1.
         -3   -1    0    0    0  501 -0.00000000000E+00 -0.00000000000E+00 -0.32385500480E+02  0.32385500480E+02  0.00000000000E+00 0.  1.
          5    1    1    2  502    0 -0.99459528817E+01 -0.19843058117E+02  0.92433268398E+02  0.95152774215E+02  0.41800000000E+01 0. -1.
         -5    1    1    2    0  502  0.10394130263E+03  0.90499898413E+02  0.24154458493E+03  0.27812818073E+03  0.41800000000E+01 0.  1.
        -11    1    1    2    0    0 -0.70161774597E+02 -0.45746134057E+02  0.37091075275E+03  0.38025014122E+03  0.00000000000E+00 0. -1.
         11    1    1    2    0    0 -0.23833575149E+02 -0.24910706238E+02  0.28782995966E+02  0.44911506838E+02  0.00000000000E+00 0.  1.
</event>
<event>
 6    1  0.4988969E-006  0.2575762E+03  0.7561462E-02  0.1108608E+00
         -2   -1    0    0    0  501 -0.00000000000E+00  0.00000000000E+00  0.24655630863E+03  0.24655630863E+03  0.00000000000E+00 0.  1.
          2   -1    0    0  501    0  0.00000000000E+00 -0.00000000000E+00 -0.53120506367E+03  0.53120506367E+03  0.00000000000E+00 0. -1.
          5    1    1    2  502    0  0.65280052183E+02 -0.18080738756E+03  0.13822994117E+03  0.23680748646E+03  0.41800000000E+01 0.  1.
         -5    1    1    2    0  502  0.48788534409E+01 -0.57795968888E+02 -0.25557913468E+02  0.63520520869E+02  0.41800000000E+01 0.  1.
        -11    1    1    2    0    0  0.17052393030E+02  0.96485375063E+02 -0.14691153952E+03  0.17658768970E+03  0.00000000000E+00 0.  1.
         11    1    1    2    0    0 -0.87211298654E+02  0.14211798138E+03 -0.25040924322E+03  0.30084567528E+03  0.00000000000E+00 0. -1.
</event>
<event>
 6    1  0.4988969E-006  0.1222834E+03  0.7561462E-02  0.1239377E+00
         -1   -1    0    0    0  501 -0.00000000000E+00  0.00000000000E+00  0.13107854864E+03  0.13107854864E+03  0.00000000000E+00 0.  1.
          1   -1    0    0  501    0  0.00000000000E+00 -0.00000000000E+00 -0.12985791254E+03  0.12985791254E+03  0.00000000000E+00 0. -1.
          5    1    1    2  502    0  0.15250444534E+02  0.10271708300E+03 -0.24925848901E+02  0.10687443821E+03  0.41800000000E+01 0.  1.
         -5    1    1    2    0  502 -0.28250166688E+01 -0.31766863215E+02  0.19427364508E+02  0.37576710998E+02  0.41800000000E+01 0.  1.
        -11    1    1    2    0    0  0.27718461062E+02 -0.61169326835E+02 -0.16412110187E+02  0.69132893689E+02  0.00000000000E+00 0. -1.
         11    1    1    2    0    0 -0.40143888927E+02 -0.97808929489E+01  0.23131230674E+02  0.47352418286E+02  0.00000000000E+00 0.  1.
</event>
<event>
 6    1  0.4988969E-006  0.7839435E+02  0.7561462E-02  0.1333671E+00
         -1   -1    0    0    0  501 -0.00000000000E+00  0.00000000000E+00  0.39180813140E+02  0.39180813140E+02  0.00000000000E+00 0.  1.
          1   -1    0    0  501    0  0.00000000000E+00 -0.00000000000E+00 -0.37446024796E+03  0.37446024796E+03  0.00000000000E+00 0. -1.
          5    1    1    2  502    0 -0.49042430184E+00 -0.28971776919E+02  0.16202882094E+02  0.33460576235E+02  0.41800000000E+01 0.  1.
         -5    1    1    2    0  502 -0.31975856717E+02 -0.88603922521E+01 -0.16034404134E+03  0.16379452358E+03  0.41800000000E+01 0.  1.
        -11    1    1    2    0    0  0.58795006902E+02  0.19333443543E+02 -0.16023118627E+03  0.17176922871E+03  0.00000000000E+00 0. -1.
         11    1    1    2    0    0 -0.26328725883E+02  0.18498725628E+02 -0.30907089304E+02  0.44616732576E+02  0.00000000000E+00 0.  1.
</event>
<event>
 6    1  0.4988969E-006  0.1206183E+03  0.7561462E-02  0.1242080E+00
         -3   -1    0    0    0  501 -0.00000000000E+00  0.00000000000E+00  0.62101077546E+02  0.62101077546E+02  0.00000000000E+00 0. -1.
          3   -1    0    0  501    0  0.00000000000E+00 -0.00000000000E+00 -0.34239274362E+03  0.34239274362E+03  0.00000000000E+00 0.  1.
          5    1    1    2  502    0  0.28427758565E+01  0.65705073548E+02 -0.18044535802E+02  0.68325073998E+02  0.41800000000E+01 0.  1.
         -5    1    1    2    0  502 -0.78185208109E+02 -0.22020019283E+02 -0.72533053293E+02  0.10897854943E+03  0.41800000000E+01 0.  1.
        -11    1    1    2    0    0 -0.95304689237E+00 -0.10933534219E+02  0.74449127375E+01  0.13261869950E+02  0.00000000000E+00 0. -1.
         11    1    1    2    0    0  0.76295479145E+02 -0.32751520046E+02 -0.19715898972E+03  0.21392832779E+03  0.00000000000E+00 0.  1.
</event>
<event>
 6    1  0.4988969E-006  0.1504118E+03  0.7561462E-02  0.1199968E+00
         -3   -1    0    0    0  501 -0.00000000000E+00  0.00000000000E+00  0.20931540564E+03  0.20931540564E+03  0.00000000000E+00 0.  1.
          3   -1    0    0  501    0  0.00000000000E+00 -0.00000000000E+00 -0.15921207559E+03  0.15921207559E+03  0.00000000000E+00 0. -1.
          5    1    1    2  502    0 -0.44545208698E+02  0.34903236279E+01  0.31313454029E+02  0.54721684735E+02  0.41800000000E+01 0.  1.
         -5    1    1    2    0  502  0.71668274663E+02  0.80348095170E+02  0.96628864497E+02  0.14472998253E+03  0.41800000000E+01 0.  1.
        -11    1    1    2    0    0  0.43274822615E+02 -0.59788063547E+02 -0.52155503863E+02  0.90374329310E+02  0.00000000000E+00 0. -1.
         11    1    1    2    0    0 -0.70397888580E+02 -0.24050355251E+02 -0.25683484613E+02  0.78701484650E+02  0.00000000000E+00 0.  1.
</event>
<event>
 6    1  0.4988969E-006  0.1336608E+03  0.7561462E-02  0.1222123E+00
         -2   -1    0    0    0  501 -0.00000000000E+00  0.00000000000E+00  0.24440550391E+02  0.24440550391E+02  0.00000000000E+00 0.  1.
          2   -1    0    0  501    0  0.00000000000E+00 -0.00000000000E+00 -0.97853476353E+03  0.97853476353E+03  0.00000000000E+00 0. -1.
          5    1    1    2  502    0 -0.36737979046E+02  0.66926578848E+02 -0.31116638980E+03  0.32042290899E+03  0.41800000000E+01 0. -1.
         -5    1    1    2    0  502  0.55309052674E+02  0.25643302900E+02 -0.62567559172E+02  0.87457659196E+02  0.41800000000E+01 0.  1.
        -11    1    1    2    0    0  0.32286741047E+02 -0.63338339100E+02 -0.26769337971E+03  0.27697278637E+03  0.00000000000E+00 0.  1.
         11    1    1    2    0    0 -0.50857814675E+02 -0.29231542649E+02 -0.31266688445E+03  0.31812195937E+03  0.00000000000E+00 0. -1.
</event>
<event>
 6    1  0.4988969E-006  0.1043770E+03  0.7561462E-02  0.1271352E+00
         -1   -1    0    0    0  501 -0.00000000000E+00  0.00000000000E+00  0.74930955334E+03  0.74930955334E+03  0.00000000000E+00 0.  1.
          1   -1    0    0  501    0  0.00000000000E+00 -0.00000000000E+00 -0.21095255368E+02  0.21095255368E+02  0.00000000000E+00 0. -1.
          5    1    1    2  502    0  0.10454606673E+02  0.35283127648E+02  0.45409813717E+02  0.58597964804E+02  0.41800000000E+01 0.  1.
         -5    1    1    2    0  502 -0.74176009653E+02 -0.45577394949E+02  0.36574007007E+03  0.37598224771E+03  0.41800000000E+01 0.  1.
        -11    1    1    2    0    0  0.25914195076E+02 -0.22645124732E+02  0.34085347480E+02  0.48437156124E+02  0.00000000000E+00 0. -1.
         11    1    1    2    0    0  0.37807207904E+02  0.32939392034E+02  0.28297906670E+03  0.28738744007E+03  0.00000000000E+00 0.  1.
</event>
<event>
 6    1  0.4988969E-006  0.2708330E+03  0.7561462E-02  0.1100804E+00
         -2   -1    0    0    0  501 -0.00000000000E+00  0.00000000000E+00  0.45342102589E+02  0.45342102589E+02  0.00000000000E+00 0.  1.
          2   -1    0    0  501    0  0.00000000000E+00 -0.00000000000E+00 -0.19826501721E+04  0.19826501721E+04  0.00000000000E+00 0. -1.
          5    1    1    2  502    0 -0.55943900102E+01 -0.37480709085E+02 -0.46747668768E+03  0.46902881220E+03  0.41800000000E+01 0. -1.
         -5    1    1    2    0  502 -0.41614158121E+02 -0.22563942165E+03 -0.79270946744E+03  0.82525793479E+03  0.41800000000E+01 0. -1.
        -11    1    1    2    0    0  0.56411785404E+01  0.18894455924E+03 -0.54239951317E+03  0.57439455190E+03  0.00000000000E+00 0. -1.
         11    1    1    2    0    0  0.41567369591E+02  0.74175571500E+02 -0.13472240125E+03  0.15931097583E+03  0.00000000000E+00 0.  1.
</event>
<event>
 6    1  0.4988969E-006  0.9453356E+02  0.7561462E-02  0.1292230E+00
          2   -1    0    0  501    0  0.00000000000E+00  0.00000000000E+00  0.40260528870E+03  0.40260528870E+03  0.00000000000E+00 0.  1.
         -2   -1    0    0    0  501 -0.00000000000E+00 -0.00000000000E+00 -0.42323155522E+02  0.42323155522E+02  0.00000000000E+00 0. -1.
          5    1    1    2  502    0  0.26605033569E+01  0.76725131968E+02  0.22841573078E+02  0.80206196857E+02  0.41800000000E+01 0. -1.
         -5    1    1    2    0  502  0.10860938458E+02 -0.15745597624E+02  0.11315741451E+03  0.11483882918E+03  0.41800000000E+01 0. -1.
        -11    1    1    2    0    0 -0.39432946127E+02 -0.20247575901E+02  0.17641639263E+03  0.18190015162E+03  0.00000000000E+00 0.  1.
         11    1    1    2    0    0  0.25911504311E+02 -0.40731958443E+02  0.47866752962E+02  0.67983266569E+02  0.00000000000E+00 0. -1.
</event>
<event>
 6    1  0.4988969E-006  0.1026428E+03  0.7561462E-02  0.1274835E+00
         -2   -1    0    0    0  501 -0.00000000000E+00  0.00000000000E+00  0.42356802807E+03  0.42356802807E+03  0.00000000000E+00 0.  1.
          2   -1    0    0  501    0  0.00000000000E+00 -0.00000000000E+00 -0.36818695532E+02  0.36818695532E+02  0.00000000000E+00 0. -1.
          5    1    1    2  502    0  0.33492941638E+02 -0.40703069859E+02  0.93918606093E+02  0.10778076826E+03  0.41800000000E+01 0.  1.
         -5    1    1    2    0  502 -0.88002999979E+01  0.77113903386E+02  0.20440946941E+03  0.21868859815E+03  0.41800000000E+01 0.  1.
        -11    1    1    2    0    0  0.14262685009E+02 -0.32547105441E+02  0.87852144772E+02  0.94766753649E+02  0.00000000000E+00 0. -1.
         11    1    1    2    0    0 -0.38955326649E+02 -0.38637280866E+01  0.56911225868E+00  0.39150603544E+02  0.00000000000E+00 0.  1.
</event>
<event>
 6    1  0.4988969E-006  0.1722272E+03  0.7561462E-02  0.1175545E+00
          2   -1    0    0  501    0  0.00000000000E+00  0.00000000000E+00  0.96566146431E+02  0.96566146431E+02  0.00000000000E+00 0. -1.
         -2   -1    0    0    0  501 -0.00000000000E+00 -0.00000000000E+00 -0.31671494223E+03  0.31671494223E+03  0.00000000000E+00 0.  1.
          5    1    1    2  502    0  0.92252337643E+02  0.10966400720E+02 -0.39854238488E+02  0.10117602716E+03  0.41800000000E+01 0.  1.
         -5    1    1    2    0  502  0.20147615933E+02 -0.88132105026E+02 -0.65728570297E+02  0.11185218691E+03  0.41800000000E+01 0.  1.
        -11    1    1    2    0    0 -0.10610148284E+03  0.25783271094E+02 -0.95582649689E+02  0.14511493600E+03  0.00000000000E+00 0. -1.
         11    1    1    2    0    0 -0.62984707365E+01  0.51382433212E+02 -0.18983337328E+02  0.55137938595E+02  0.00000000000E+00 0.  1.
</event>
<event>
 6    1  0.4988969E-006  0.2255262E+03  0.7561462E-02  0.1129829E+00
         -1   -1    0    0    0  501 -0.00000000000E+00  0.00000000000E+00  0.82605715342E+02  0.82605715342E+02  0.00000000000E+00 0.  1.
          1   -1    0    0  501    0  0.00000000000E+00 -0.00000000000E+00 -0.74299200140E+03  0.74299200140E+03  0.00000000000E+00 0. -1.
          5    1    1    2  502    0 -0.17395698868E+03 -0.82891858566E+02 -0.23114649975E+03  0.30096224160E+03  0.41800000000E+01 0. -1.
         -5    1    1    2    0  502 -0.32725692415E+02  0.21016723337E+02 -0.68130226441E-01  0.39117140049E+02  0.41800000000E+01 0. -1.
        -11    1    1    2    0    0  0.51884975357E+02 -0.15438488412E+01 -0.54854320405E+02  0.75521060666E+02  0.00000000000E+00 0.  1.
         11    1    1    2    0    0  0.15479770574E+03  0.63418984071E+02 -0.37431733568E+03  0.40999727442E+03  0.00000000000E+00 0. -1.
</event>
<event>
 6    1  0.4988969E-006  0.1069503E+03  0.7561462E-02  0.1266324E+00
         -1   -1    0    0    0  501 -0.00000000000E+00  0.00000000000E+00  0.22569896662E+03  0.22569896662E+03  0.00000000000E+00 0.  1.
          1   -1    0    0  501    0  0.00000000000E+00 -0.00000000000E+00 -0.92308036591E+02  0.92308036591E+02  0.00000000000E+00 0. -1.
          5    1    1    2  502    0  0.21462776177E+02  0.65579908416E+02  0.13342779402E+03  0.15027249837E+03  0.41800000000E+01 0. -1.
         -5    1    1    2    0  502 -0.25732287658E+01  0.22717553032E+02 -0.28146480286E+02  0.36502129726E+02  0.41800000000E+01 0. -1.
        -11    1    1    2    0    0 -0.44838928302E+02 -0.21218044843E+02  0.32286590660E+02  0.59187489004E+02  0.00000000000E+00 0.  1.
         11    1    1    2    0    0  0.25949380891E+02 -0.67079416604E+02 -0.41769743603E+01  0.72044886116E+02  0.00000000000E+00 0. -1.
</event>
<event>
 6    1  0.4988969E-006  0.9838646E+02  0.7561462E-02  0.1283726E+00
          1   -1    0    0  501    0  0.00000000000E+00  0.00000000000E+00  0.19665743075E+03  0.19665743075E+03  0.00000000000E+00 0. -1.
         -1   -1    0    0    0  501 -0.00000000000E+00 -0.00000000000E+00 -0.81447988931E+02  0.81447988931E+02  0.00000000000E+00 0.  1.
          5    1    1    2  502    0 -0.47689270934E+02 -0.13497896170E+02  0.16807319372E+02  0.52501601383E+02  0.41800000000E+01 0. -1.
         -5    1    1    2    0  502  0.76281432419E+02 -0.12264418677E+02 -0.12956675687E+02  0.78451390951E+02  0.41800000000E+01 0. -1.
        -11    1    1    2    0    0 -0.43453284226E+02  0.31563437851E+02  0.11817298778E+03  0.12980482872E+03  0.00000000000E+00 0.  1.
         11    1    1    2    0    0  0.14861122741E+02 -0.58011230034E+01 -0.68141896507E+01  0.17347598619E+02  0.00000000000E+00 0. -1.
</event>
<event>
 6    1  0.4988969E-006  0.9754264E+02  0.7561462E-02  0.1285550E+00
          2   -1    0    0  501    0  0.00000000000E+00  0.00000000000E+00  0.29313599362E+03  0.29313599362E+03  0.00000000000E+00 0. -1.
         -2   -1    0    0    0  501 -0.00000000000E+00 -0.00000000000E+00 -0.52015521555E+02  0.52015521555E+02  0.00000000000E+00 0.  1.
          5    1    1    2  502    0 -0.11242070097E+02  0.67925956691E+02  0.99895821848E+02  0.12139591161E+03  0.41800000000E+01 0.  1.
         -5    1    1    2    0  502  0.51093966853E+02 -0.26413577111E+02  0.19577124442E+02  0.60901614971E+02  0.41800000000E+01 0.  1.
        -11    1    1    2    0    0 -0.94462024960E+01  0.66006204503E+01 -0.12578740664E+02  0.17059415249E+02  0.00000000000E+00 0.  1.
         11    1    1    2    0    0 -0.30405694261E+02 -0.48113000030E+02  0.13422626644E+03  0.14579457335E+03  0.00000000000E+00 0. -1.
</event>
<event>
 6    1  0.4988969E-006  0.9226792E+02  0.7561462E-02  0.1297451E+00
         -1   -1    0    0    0  501 -0.00000000000E+00  0.00000000000E+00  0.33276647327E+02  0.33276647327E+02  0.00000000000E+00 0.  1.
          1   -1    0    0  501    0  0.00000000000E+00 -0.00000000000E+00 -0.50485551333E+03  0.50485551333E+03  0.00000000000E+00 0. -1.
          5    1    1    2  502    0 -0.45855679882E+02 -0.63195541084E+02 -0.44552886087E+02  0.89993621157E+02  0.41800000000E+01 0. -1.
         -5    1    1    2    0  502  0.48705183102E+01  0.24387797243E+02 -0.12809050471E+03  0.13054936385E+03  0.41800000000E+01 0. -1.
        -11    1    1    2    0    0  0.51693130912E+02  0.45189695954E+02 -0.29717045357E+03  0.30499928997E+03  0.00000000000E+00 0. -1.
         11    1    1    2    0    0 -0.10707969340E+02 -0.63819521132E+01 -0.17650216271E+01  0.12589885683E+02  0.00000000000E+00 0.  1.
</event>
<event>
 6    1  0.4988969E-006  0.1029944E+03  0.7561462E-02  0.1274122E+00
         -2   -1    0    0    0  501 -0.00000000000E+00  0.00000000000E+00  0.24087652297E+02  0.24087652297E+02  0.00000000000E+00 0.  1.
          2   -1    0    0  501    0  0.00000000000E+00 -0.00000000000E+00 -0.50781302474E+03  0.50781302474E+03  0.00000000000E+00 0. -1.
          5    1    1    2  502    0 -0.25123605859E+02  0.42434840837E+02 -0.11161971520E+03  0.12209973182E+03  0.41800000000E+01 0.  1.
         -5    1    1    2    0  502  0.57784999381E+02 -0.53549084882E+02 -0.12662148741E+03  0.14918808303E+03  0.41800000000E+01 0.  1.
        -11    1    1    2    0    0 -0.17152102831E+02 -0.29503342443E+02 -0.17096257081E+03  0.17433543089E+03  0.00000000000E+00 0. -1.
         11    1    1    2    0    0 -0.15509290691E+02  0.40617586488E+02 -0.74521599025E+02  0.86277431297E+02  0.00000000000E+00 0.  1.
</event>
<event>
 6    1  0.4988969E-006  0.1027286E+03  0.7561462E-02  0.1274661E+00
         -3   -1    0    0    0  501 -0.00000000000E+00  0.00000000000E+00  0.23181016618E+03  0.23181016618E+03  0.00000000000E+00 0.  1.
          3   -1    0    0  501    0  0.00000000000E+00 -0.00000000000E+00 -0.56711743674E+02  0.56711743674E+02  0.00000000000E+00 0. -1.
          5    1    1    2  502    0 -0.22588949000E+02  0.54764367175E+02  0.13229748145E+02  0.60843201469E+02  0.41800000000E+01 0. -1.
         -5    1    1    2    0  502  0.41980025716E+02 -0.23926950902E+02  0.10260827189E+03  0.11349339804E+03  0.41800000000E+01 0. -1.
        -11    1    1    2    0    0 -0.47414941567E+02  0.95935161640E+01  0.27863565148E+02  0.55826431902E+02  0.00000000000E+00 0.  1.
         11    1    1    2    0    0  0.28023864851E+02 -0.40430932437E+02  0.31396837318E+02  0.58358878437E+02  0.00000000000E+00 0. -1.
</event>
<event>
 6    1  0.4988969E-006  0.1373807E+03  0.7561462E-02  0.1216897E+00
          2   -1    0    0  501    0  0.00000000000E+00  0.00000000000E+00  0.72988323241E+02  0.72988323241E+02  0.00000000000E+00 0.  1.
         -2   -1    0    0    0  501 -0.00000000000E+00 -0.00000000000E+00 -0.26426037600E+03  0.26426037600E+03  0.00000000000E+00 0. -1.
          5    1    1    2  502    0 -0.28613374207E+02  0.23306941846E+02 -0.36736741719E+02  0.52239824979E+02  0.41800000000E+01 0.  1.
         -5    1    1    2    0  502  0.11293636817E+03 -0.12637030827E+02 -0.87709308215E+02  0.14361306678E+03  0.41800000000E+01 0.  1.
        -11    1    1    2    0    0 -0.98769787060E+02 -0.26708479772E+02 -0.49219372026E+02  0.11354012643E+03  0.00000000000E+00 0. -1.
         11    1    1    2    0    0  0.14446793097E+02  0.16038568753E+02 -0.17606630801E+02  0.27855681047E+02  0.00000000000E+00 0.  1.
</event>
<event>
 6    1  0.4988969E-006  0.1447382E+03  0.7561462E-02  0.1207092E+00
          2   -1    0    0  501    0  0.00000000000E+00  0.00000000000E+00  0.71740592946E+03  0.71740592946E+03  0.00000000000E+00 0. -1.
         -2   -1    0    0    0  501 -0.00000000000E+00 -0.00000000000E+00 -0.33204828665E+02  0.33204828665E+02  0.00000000000E+00 0.  1.
          5    1    1    2  502    0 -0.17240133387E+02 -0.10370226202E+03  0.33337399454E+03  0.34958128380E+03  0.41800000000E+01 0. -1.
         -5    1    1    2    0  502  0.44586636911E+02 -0.23240328504E+01  0.44152412190E+02  0.62930733524E+02  0.41800000000E+01 0. -1.
        -11    1    1    2    0    0  0.20625683104E+02 -0.24928359471E+01  0.25341600225E+02  0.32769341411E+02  0.00000000000E+00 0.  1.
         11    1    1    2    0    0 -0.47972186628E+02  0.10851913081E+03  0.28133309384E+03  0.30532939939E+03  0.00000000000E+00 0. -1.
</event>
<event>
 6    1  0.4988969E-006  0.1131339E+03  0.7561462E-02  0.1254874E+00
          1   -1    0    0  501    0  0.00000000000E+00  0.00000000000E+00  0.18677771379E+03  0.18677771379E+03  0.00000000000E+00 0. -1.
         -1   -1    0    0    0  501 -0.00000000000E+00 -0.00000000000E+00 -0.97599839988E+02  0.97599839988E+02  0.00000000000E+00 0.  1.
          5    1    1    2  502    0 -0.59440843473E+02  0.32960630676E+02 -0.37482887603E+02  0.77730665187E+02  0.41800000000E+01 0. -1.
         -5    1    1    2    0  502 -0.20230969305E+02 -0.48905827249E+02  0.48377694389E+02  0.71825801578E+02  0.41800000000E+01 0. -1.
        -11    1    1    2    0    0  0.31389567573E+02  0.40237282065E+02  0.57586523757E+02  0.76945120306E+02  0.00000000000E+00 0.  1.
         11    1    1    2    0    0  0.48282245205E+02 -0.24292085493E+02  0.20696543263E+02  0.57875966711E+02  0.00000000000E+00 0. -1.
</event>
<event>
 6    1  0.4988969E-006  0.8946947E+02  0.7561462E-02  0.1304142E+00
          1   -1    0    0  501    0  0.00000000000E+00  0.00000000000E+00  0.43310368365E+03  0.43310368365E+03  0.00000000000E+00 0. -1.
         -1   -1    0    0    0  501 -0.00000000000E+00 -0.00000000000E+00 -0.26306131866E+02  0.26306131866E+02  0.00000000000E+00 0.  1.
          5    1    1    2  502    0 -0.52872645436E+02  0.52626459950E+02  0.13566896622E+03  0.15488254168E+03  0.41800000000E+01 0.  1.
         -5    1    1    2    0  502  0.57475012381E+02 -0.66459723061E+01  0.13109897271E+03  0.14335954465E+03  0.41800000000E+01 0.  1.
        -11    1    1    2    0    0 -0.27166970335E+01 -0.24267637258E+02  0.13700511590E+03  0.13916429299E+03  0.00000000000E+00 0. -1.
         11    1    1    2    0    0 -0.18856699122E+01 -0.21712850386E+02  0.30244969624E+01  0.22003436204E+02  0.00000000000E+00 0.  1.
</event>
<event>
 6    1  0.4988969E-006  0.2418213E+03  0.7561462E-02  0.1118585E+00
         -3   -1    0    0    0  501 -0.00000000000E+00  0.00000000000E+00  0.45959035739E+03  0.45959035739E+03  0.00000000000E+00 0. -1.
          3   -1    0    0  501    0  0.00000000000E+00 -0.00000000000E+00 -0.21798122580E+03  0.21798122580E+03  0.00000000000E+00 0.  1.
          5    1    1    2  502    0  0.75857724866E+02 -0.48211587810E+02  0.42740350506E+02  0.99614063176E+02  0.41800000000E+01 0. -1.
         -5    1    1    2    0  502  0.15001984991E+03 -0.79880476431E+01  0.27743494168E+03  0.31552715182E+03  0.41800000000E+01 0. -1.
        -11    1    1    2    0    0 -0.81743607785E+02  0.56270547055E+02 -0.62791361041E+02  0.11743571391E+03  0.00000000000E+00 0. -1.
         11    1    1    2    0    0 -0.14413396699E+03 -0.70911601778E-01 -0.15774799553E+02  0.14499465428E+03  0.00000000000E+00 0.  1.
</event>
<event>
 6    1  0.4988969E-006  0.8497467E+02  0.7561462E-02  0.1315499E+00
         -1   -1    0    0    0  501 -0.00000000000E+00  0.00000000000E+00  0.41605957495E+02  0.41605957495E+02  0.00000000000E+00 0.  1.
          1   -1    0    0  501    0  0.00000000000E+00 -0.00000000000E+00 -0.37981502544E+03  0.37981502544E+03  0.00000000000E+00 0. -1.
          5    1    1    2  502    0 -0.15397796757E+02 -0.27757656084E+02 -0.98236755973E+00  0.32031501093E+02  0.41800000000E+01 0.  1.
         -5    1    1    2    0  502 -0.34817772763E+02  0.63871588027E+02 -0.19824622758E+03  0.21121291677E+03  0.41800000000E+01 0.  1.
        -11    1    1    2    0    0  0.32213405769E+02 -0.10740342963E+02  0.17952084968E+01  0.34004135803E+02  0.00000000000E+00 0.  1.
         11    1    1    2    0    0  0.18002163752E+02 -0.25373588980E+02 -0.14077568129E+03  0.14417242927E+03  0.00000000000E+00 0. -1.
</event>
<event>
 6    1  0.4988969E-006  0.8944963E+02  0.7561462E-02  0.1304190E+00
         -1   -1    0    0    0  501 -0.00000000000E+00  0.00000000000E+00  0.82870781955E+02  0.82870781955E+02  0.00000000000E+00 0.  1.
          1   -1    0    0  501    0  0.00000000000E+00 -0.00000000000E+00 -0.16741321543E+03  0.16741321543E+03  0.00000000000E+00 0. -1.
          5    1    1    2  502    0 -0.22426358382E+02 -0.22639775290E+02  0.41632177113E+02  0.52594786307E+02  0.41800000000E+01 0. -1.
         -5    1    1    2    0  502  0.49283360405E+02  0.27196533195E+02 -0.50565167507E+02  0.75781327487E+02  0.41800000000E+01 0. -1.
        -11    1    1    2    0    0 -0.34541814171E+02 -0.40689568636E+02 -0.24203438298E+02  0.58605326955E+02  0.00000000000E+00 0. -1.
         11    1    1    2    0    0  0.76848121479E+01  0.36132810731E+02 -0.51406004783E+02  0.63302556637E+02  0.00000000000E+00 0.  1.
</event>
<event>
 6    1  0.4988969E-006  0.9854269E+02  0.7561462E-02  0.1283391E+00
          1   -1    0    0  501    0  0.00000000000E+00  0.00000000000E+00  0.12779036568E+03  0.12779036568E+03  0.00000000000E+00 0. -1.
         -1   -1    0    0    0  501 -0.00000000000E+00 -0.00000000000E+00 -0.10808664831E+03  0.10808664831E+03  0.00000000000E+00 0.  1.
          5    1    1    2  502    0  0.32896107291E+02  0.23887862408E+02  0.43770928176E+02  0.59884475440E+02  0.41800000000E+01 0.  1.
         -5    1    1    2    0  502 -0.72495293288E+02 -0.17348706209E+02 -0.11121383511E+02  0.75483128759E+02  0.41800000000E+01 0.  1.
        -11    1    1    2    0    0 -0.46439511057E+01 -0.30766514772E+02  0.22894987182E+02  0.38630624524E+02  0.00000000000E+00 0. -1.
         11    1    1    2    0    0  0.44243137103E+02  0.24227358573E+02 -0.35840814477E+02  0.61878785270E+02  0.00000000000E+00 0.  1.
</event>
<event>
 6    1  0.4988969E-006  0.8583590E+02  0.7561462E-02  0.1313261E+00
         -1   -1    0    0    0  501 -0.00000000000E+00  0.00000000000E+00  0.51415328995E+02  0.51415328995E+02  0.00000000000E+00 0.  1.
          1   -1    0    0  501    0  0.00000000000E+00 -0.00000000000E+00 -0.28101622196E+03  0.28101622196E+03  0.00000000000E+00 0. -1.
          5    1    1    2  502    0  0.42287650181E+02  0.76264895422E+01  0.12470971007E+02  0.44937803889E+02  0.41800000000E+01 0. -1.
         -5    1    1    2    0  502 -0.38682758329E+02  0.33735340253E+02 -0.10239893401E+03  0.11461868548E+03  0.41800000000E+01 0. -1.
        -11    1    1    2    0    0 -0.71146546140E+01  0.17055439675E+02  0.29484358683E+01  0.18713620891E+02  0.00000000000E+00 0.  1.
         11    1    1    2    0    0  0.35097627625E+01 -0.58417269470E+02 -0.14262136583E+03  0.15416144070E+03  0.00000000000E+00 0. -1.
</event>
<event>
 6    1  0.4988969E-006  0.2466381E+03  0.7561462E-02  0.1115448E+00
         -2   -1    0    0    0  501 -0.00000000000E+00  0.00000000000E+00  0.84770899309E+02  0.84770899309E+02  0.00000000000E+00 0.  1.
          2   -1    0    0  501    0  0.00000000000E+00 -0.00000000000E+00 -0.77590294447E+03  0.77590294447E+03  0.00000000000E+00 0. -1.
          5    1    1    2  502    0  0.54757730823E+02  0.44014497341E+02 -0.78656039946E+02  0.10554586719E+03  0.41800000000E+01 0.  1.
         -5    1    1    2    0  502  0.17405727496E+03 -0.79230244357E+02 -0.28925710237E+03  0.34678597184E+03  0.41800000000E+01 0.  1.
        -11    1    1    2    0    0 -0.10323752984E+03  0.19334772882E+02 -0.72938913064E+02  0.12787457155E+03  0.00000000000E+00 0.  1.
         11    1    1    2    0    0 -0.12557747595E+03  0.15880974135E+02 -0.25027998978E+03  0.28046743321E+03  0.00000000000E+00 0. -1.
</event>
<event>
 6    1  0.4988969E-006  0.1506903E+03  0.7561462E-02  0.1199627E+00
         -4   -1    0    0    0  501 -0.00000000000E+00  0.00000000000E+00  0.45274007191E+02  0.45274007191E+02  0.00000000000E+00 0.  1.
          4   -1    0    0  501    0  0.00000000000E+00 -0.00000000000E+00 -0.61372192322E+03  0.61372192322E+03  0.00000000000E+00 0. -1.
          5    1    1    2  502    0 -0.15835715988E+02 -0.10122459009E+03 -0.76353332027E+02  0.12784557580E+03  0.41800000000E+01 0. -1.
         -5    1    1    2    0  502  0.49525574238E+02 -0.10790082370E+02 -0.13450086723E+03  0.14379556344E+03  0.41800000000E+01 0. -1.
        -11    1    1    2    0    0 -0.76044034400E+01 -0.15797878160E+02 -0.58036991366E+02  0.60627487766E+02  0.00000000000E+00 0.  1.
         11    1    1    2    0    0 -0.26085454811E+02  0.12781255062E+03 -0.29955672541E+03  0.32672730340E+03  0.00000000000E+00 0. -1.
</event>
<event>
 6    1  0.4988969E-006  0.1156952E+03  0.7561462E-02  0.1250372E+00
         -2   -1    0    0    0  501 -0.00000000000E+00  0.00000000000E+00  0.43018538636E+03  0.43018538636E+03  0.00000000000E+00 0.  1.
          2   -1    0    0  501    0  0.00000000000E+00 -0.00000000000E+00 -0.46154681024E+02  0.46154681024E+02  0.00000000000E+00 0. -1.
          5    1    1    2  502    0 -0.85777154383E+02  0.77427503580E+01  0.96350295819E+02  0.12930012491E+03  0.41800000000E+01 0. -1.
         -5    1    1    2    0  502  0.14547817831E+02  0.27249464822E+02  0.18374693588E+03  0.18637215774E+03  0.41800000000E+01 0.  1.
        -11    1    1    2    0    0 -0.11425688097E+02 -0.28942078189E+02  0.48466662127E+01  0.31490957619E+02  0.00000000000E+00 0. -1.
         11    1    1    2    0    0  0.82655024649E+02 -0.60501369907E+01  0.99086807421E+02  0.12917682711E+03  0.00000000000E+00 0.  1.
</event>
<event>
 6    1  0.4988969E-006  0.1668565E+03  0.7561462E-02  0.1181166E+00
          2   -1    0    0  501    0  0.00000000000E+00  0.00000000000E+00  0.81720027571E+03  0.81720027571E+03  0.00000000000E+00 0. -1.
         -2   -1    0    0    0  501 -0.00000000000E+00 -0.00000000000E+00 -0.39635916851E+02  0.39635916851E+02  0.00000000000E+00 0.  1.
          5    1    1    2  502    0 -0.81756201825E+02 -0.76225168948E+02  0.20158623480E+03  0.23054031183E+03  0.41800000000E+01 0. -1.
         -5    1    1    2    0  502 -0.59312546190E+02  0.44797464759E+02  0.22271719748E+03  0.23483017999E+03  0.41800000000E+01 0. -1.
        -11    1    1    2    0    0  0.10234149188E+03  0.91914659389E+01  0.31911489258E+03  0.33525002412E+03  0.00000000000E+00 0. -1.
         11    1    1    2    0    0  0.38727256135E+02  0.22236238251E+02  0.34146034001E+02  0.56215676615E+02  0.00000000000E+00 0.  1.
</event>
<event>
 6    1  0.4988969E-006  0.3297381E+03  0.7561462E-02  0.1071253E+00
          3   -1    0    0  501    0  0.00000000000E+00  0.00000000000E+00  0.30211654304E+03  0.30211654304E+03  0.00000000000E+00 0. -1.
         -3   -1    0    0    0  501 -0.00000000000E+00 -0.00000000000E+00 -0.37501177473E+03  0.37501177473E+03  0.00000000000E+00 0.  1.
          5    1    1    2  502    0 -0.62350144036E+02  0.11893260848E+03  0.12419132132E+02  0.13492298938E+03  0.41800000000E+01 0.  1.
         -5    1    1    2    0  502  0.50769362365E+02  0.19906039266E+03 -0.27618187899E+02  0.20732294804E+03  0.41800000000E+01 0.  1.
        -11    1    1    2    0    0 -0.97388228649E+01 -0.14907247614E+03 -0.68360404519E+02  0.16428813931E+03  0.00000000000E+00 0.  1.
         11    1    1    2    0    0  0.21319604536E+02 -0.16892052500E+03  0.10664228597E+02  0.17059424104E+03  0.00000000000E+00 0. -1.
</event>
<event>
 6    1  0.4988969E-006  0.1809695E+03  0.7561462E-02  0.1166868E+00
         -3   -1    0    0    0  501 -0.00000000000E+00  0.00000000000E+00  0.30572333572E+03  0.30572333572E+03  0.00000000000E+00 0.  1.
          3   -1    0    0  501    0  0.00000000000E+00 -0.00000000000E+00 -0.12697516530E+03  0.12697516530E+03  0.00000000000E+00 0. -1.
          5    1    1    2  502    0 -0.56876112541E+02 -0.99669761871E+02  0.12806205949E+03  0.17200673559E+03  0.41800000000E+01 0. -1.
         -5    1    1    2    0  502  0.42731514766E+02 -0.55020757932E+02  0.98743796408E+01  0.70485756937E+02  0.41800000000E+01 0. -1.
        -11    1    1    2    0    0 -0.20587206807E+02  0.19531586349E+01 -0.13183036821E+02  0.24524281286E+02  0.00000000000E+00 0.  1.
         11    1    1    2    0    0  0.34731804581E+02  0.15273736117E+03  0.53994768108E+02  0.16568172720E+03  0.00000000000E+00 0. -1.
</event>
<event>
 6    1  0.4988969E-006  0.1004963E+03  0.7561462E-02  0.1279256E+00
          1   -1    0    0  501    0  0.00000000000E+00  0.00000000000E+00  0.52084293092E+03  0.52084293092E+03  0.00000000000E+00 0. -1.
         -1   -1    0    0    0  501 -0.00000000000E+00 -0.00000000000E+00 -0.31858897730E+02  0.31858897730E+02  0.00000000000E+00 0.  1.
          5    1    1    2  502    0  0.40597987698E+02  0.10868671331E+02  0.19369998315E+02  0.46464974511E+02  0.41800000000E+01 0. -1.
         -5    1    1    2    0  502 -0.71320506639E+02 -0.82903969104E+01  0.91631029010E+02  0.11648632205E+03  0.41800000000E+01 0.  1.
        -11    1    1    2    0    0  0.43394036322E+02 -0.32582631868E+02  0.30555488175E+03  0.31033603730E+03  0.00000000000E+00 0. -1.
         11    1    1    2    0    0 -0.12671517381E+02  0.30004357447E+02  0.72428124113E+02  0.79414494779E+02  0.00000000000E+00 0.  1.
</event>
<event>
 6    1  0.4988969E-006  0.1424336E+03  0.7561462E-02  0.1210091E+00
          2   -1    0    0  501    0  0.00000000000E+00  0.00000000000E+00  0.30301361770E+03  0.30301361770E+03  0.00000000000E+00 0. -1.
         -2   -1    0    0    0  501 -0.00000000000E+00 -0.00000000000E+00 -0.85545751073E+02  0.85545751073E+02  0.00000000000E+00 0.  1.
          5    1    1    2  502    0 -0.16870948447E+02  0.43785842191E+02 -0.18109151022E+02  0.50470215262E+02  0.41800000000E+01 0.  1.
         -5    1    1    2    0  502 -0.88177722163E+02 -0.45821930238E+02  0.67482809048E+02  0.12019301932E+03  0.41800000000E+01 0.  1.
        -11    1    1    2    0    0  0.76822157165E+02 -0.40809895752E+02  0.98144184799E+02  0.13114637789E+03  0.00000000000E+00 0.  1.
         11    1    1    2    0    0  0.28226513446E+02  0.42845983800E+02  0.69950023806E+02  0.86749756308E+02  0.00000000000E+00 0. -1.
</event>
<event>
 6    1  0.4988969E-006  0.7716227E+02  0.7561462E-02  0.1337303E+00
          1   -1    0    0  501    0  0.00000000000E+00  0.00000000000E+00  0.52882739467E+02  0.52882739467E+02  0.00000000000E+00 0. -1.
         -1   -1    0    0    0  501 -0.00000000000E+00 -0.00000000000E+00 -0.32931083211E+03  0.32931083211E+03  0.00000000000E+00 0.  1.
          5    1    1    2  502    0 -0.25741520830E+02 -0.47656229369E+02 -0.11652133149E+03  0.12856296195E+03  0.41800000000E+01 0. -1.
         -5    1    1    2    0  502  0.55654734976E+02  0.32991738316E+02 -0.19113493450E+03  0.20183146412E+03  0.41800000000E+01 0.  1.
        -11    1    1    2    0    0 -0.19634207565E+02  0.15264059864E+02  0.33030421445E+02  0.41346128852E+02  0.00000000000E+00 0. -1.
         11    1    1    2    0    0 -0.10279006581E+02 -0.59956881111E+00 -0.18022480965E+01  0.10453016658E+02  0.00000000000E+00 0.  1.
</event>
<event>
 6    1  0.4988969E-006  0.6890559E+02  0.7561462E-02  0.1363855E+00
          1   -1    0    0  501    0  0.00000000000E+00  0.00000000000E+00  0.44238467121E+03  0.44238467121E+03  0.00000000000E+00 0. -1.
         -1   -1    0    0    0  501 -0.00000000000E+00 -0.00000000000E+00 -0.32616372681E+02  0.32616372681E+02  0.00000000000E+00 0.  1.
          5    1    1    2  502    0 -0.23423997189E+02  0.20214116059E+02  0.14460546204E+03  0.14793750770E+03  0.41800000000E+01 0. -1.
         -5    1    1    2    0  502  0.25023977356E+02 -0.12065727261E+02 -0.15444950018E+02  0.32059321548E+02  0.41800000000E+01 0. -1.
        -11    1    1    2    0    0 -0.87721487133E+01 -0.42504119373E+02  0.22572364265E+03  0.22985802925E+03  0.00000000000E+00 0. -1.
         11    1    1    2    0    0  0.71721685459E+01  0.34355730576E+02  0.54884143845E+02  0.65146185388E+02  0.00000000000E+00 0.  1.
</event>
<event>
 6    1  0.4988969E-006  0.1226544E+03  0.7561462E-02  0.1238781E+00
          1   -1    0    0  501    0  0.00000000000E+00  0.00000000000E+00  0.81964724251E+03  0.81964724251E+03  0.00000000000E+00 0. -1.
         -1   -1    0    0    0  501 -0.00000000000E+00 -0.00000000000E+00 -0.24195214104E+02  0.24195214104E+02  0.00000000000E+00 0.  1.
          5    1    1    2  502    0 -0.36293880039E+01  0.54974561764E+02  0.52399722479E+02  0.76148396006E+02  0.41800000000E+01 0.  1.
         -5    1    1    2    0  502  0.70799274743E+02 -0.12221544539E+02  0.25800071358E+03  0.26785022692E+03  0.41800000000E+01 0.  1.
        -11    1    1    2    0    0 -0.22029354774E+02  0.27096913435E+02  0.19509509367E+03  0.19819594033E+03  0.00000000000E+00 0.  1.
         11    1    1    2    0    0 -0.45140531966E+02 -0.69849930660E+02  0.28995649868E+03  0.30164789335E+03  0.00000000000E+00 0. -1.
</event>
<event>
 6    1  0.4988969E-006  0.1195148E+03  0.7561462E-02  0.1243900E+00
         -4   -1    0    0    0  501 -0.00000000000E+00  0.00000000000E+00  0.15697678252E+03  0.15697678252E+03  0.00000000000E+00 0.  1.
          4   -1    0    0  501    0  0.00000000000E+00 -0.00000000000E+00 -0.11715053362E+03  0.11715053362E+03  0.00000000000E+00 0. -1.
          5    1    1    2  502    0 -0.42022698511E+02 -0.10639117270E+02  0.61898308942E+02  0.75683360498E+02  0.41800000000E+01 0. -1.
         -5    1    1    2    0  502  0.59266208487E+02 -0.54960263137E+02  0.37405622342E+01  0.81022084634E+02  0.41800000000E+01 0. -1.
        -11    1    1    2    0    0 -0.52280629511E+02  0.17694741419E+02 -0.11868816526E+02  0.56455618867E+02  0.00000000000E+00 0. -1.
         11    1    1    2    0    0  0.35037119534E+02  0.47904638988E+02 -0.13943805750E+02  0.60966252145E+02  0.00000000000E+00 0.  1.
</event>
<event>
 6    1  0.4988969E-006  0.1194580E+03  0.7561462E-02  0.1243994E+00
         -2   -1    0    0    0  501 -0.00000000000E+00  0.00000000000E+00  0.17669408618E+03  0.17669408618E+03  0.00000000000E+00 0.  1.
          2   -1    0    0  501    0  0.00000000000E+00 -0.00000000000E+00 -0.10169653046E+03  0.10169653046E+03  0.00000000000E+00 0. -1.
          5    1    1    2  502    0  0.57819265497E+02  0.66874844567E+02  0.90688892373E+01  0.88966451264E+02  0.41800000000E+01 0. -1.
         -5    1    1    2    0  502  0.15013951165E+02 -0.27184477765E+02  0.58149359871E+02  0.66054787975E+02  0.41800000000E+01 0.  1.
        -11    1    1    2    0    0 -0.42743434212E+02 -0.66317154843E+02  0.19960342764E+02  0.81384159871E+02  0.00000000000E+00 0. -1.
         11    1    1    2    0    0 -0.30089782450E+02  0.26626788041E+02 -0.12181036151E+02  0.41985217529E+02  0.00000000000E+00 0.  1.
</event>
<event>
 6    1  0.4988969E-006  0.5534090E+02  0.7561462E-02  0.1418494E+00
          2   -1    0    0  501    0  0.00000000000E+00  0.00000000000E+00  0.22546714775E+02  0.22546714775E+02  0.00000000000E+00 0. -1.
         -2   -1    0    0    0  501 -0.00000000000E+00 -0.00000000000E+00 -0.82095586724E+03  0.82095586724E+03  0.00000000000E+00 0.  1.
          5    1    1    2  502    0 -0.37273434608E+01 -0.18026349961E+02 -0.61016299805E+03  0.61045491149E+03  0.41800000000E+01 0. -1.
         -5    1    1    2    0  502  0.35008724910E+02 -0.66699939293E+01 -0.44116546742E+02  0.56866877312E+02  0.41800000000E+01 0. -1.
        -11    1    1    2    0    0 -0.24830597032E+02  0.35510488168E+02 -0.15412735097E+03  0.16010244731E+03  0.00000000000E+00 0.  1.
         11    1    1    2    0    0 -0.64507844175E+01 -0.10814144278E+02  0.99977432872E+01  0.16078345901E+02  0.00000000000E+00 0. -1.
</event>
<event>
 6    1  0.4988969E-006  0.1281583E+03  0.7561462E-02  0.1230214E+00
         -2   -1    0    0    0  501 -0.00000000000E+00  0.00000000000E+00  0.85921395348E+02  0.85921395348E+02  0.00000000000E+00 0.  1.
          2   -1    0    0  501    0  0.00000000000E+00 -0.00000000000E+00 -0.38571702118E+03  0.38571702118E+03  0.00000000000E+00 0. -1.
          5    1    1    2  502    0 -0.27109166890E+02 -0.92591293801E+01  0.39018003655E+02  0.48585135747E+02  0.41800000000E+01 0. -1.
         -5    1    1    2    0  502  0.60213870919E+02 -0.64758390018E+02 -0.48138527011E+02  0.10076779997E+03  0.41800000000E+01 0. -1.
        -11    1    1    2    0    0 -0.74635101766E+02  0.37441822314E+02 -0.18595632281E+03  0.20384318106E+03  0.00000000000E+00 0. -1.
         11    1    1    2    0    0  0.41530397737E+02  0.36575697084E+02 -0.10471877967E+03  0.11844229974E+03  0.00000000000E+00 0.  1.
</event>
<event>
 6    1  0.4988969E-006  0.1273251E+03  0.7561462E-02  0.1231480E+00
         -1   -1    0    0    0  501 -0.00000000000E+00  0.00000000000E+00  0.12507616638E+03  0.12507616638E+03  0.00000000000E+00 0.  1.
          1   -1    0    0  501    0  0.00000000000E+00 -0.00000000000E+00 -0.20353748511E+03  0.20353748511E+03  0.00000000000E+00 0. -1.
          5    1    1    2  502    0 -0.52212120701E+02  0.20551008713E+02  0.25740223783E+02  0.61874720425E+02  0.41800000000E+01 0. -1.
         -5    1    1    2    0  502 -0.76471485942E+01 -0.97588609681E+02 -0.50609531767E+01  0.98107600461E+02  0.41800000000E+01 0. -1.
        -11    1    1    2    0    0  0.34933695560E+02  0.62366622591E+02 -0.11517952726E+03  0.13555914649E+03  0.00000000000E+00 0. -1.
         11    1    1    2    0    0  0.24925573735E+02  0.14670978377E+02  0.16038937913E+02  0.33072184112E+02  0.00000000000E+00 0.  1.
</event>
<event>
 6    1  0.4988969E-006  0.8927071E+02  0.7561462E-02  0.1304627E+00
         -2   -1    0    0    0  501 -0.00000000000E+00  0.00000000000E+00  0.62971776362E+02  0.62971776362E+02  0.00000000000E+00 0.  1.
          2   -1    0    0  501    0  0.00000000000E+00 -0.00000000000E+00 -0.28221170210E+03  0.28221170210E+03  0.00000000000E+00 0. -1.
          5    1    1    2  502    0  0.33809632363E+01  0.56442515634E+02  0.23547950707E+02  0.61393540914E+02  0.41800000000E+01 0. -1.
         -5    1    1    2    0  502  0.49104644513E+01  0.10730945093E+02 -0.98663552861E+02  0.99454687707E+02  0.41800000000E+01 0. -1.
        -11    1    1    2    0    0 -0.20569263974E+02 -0.85125224981E+02 -0.88028684725E+02  0.12417104285E+03  0.00000000000E+00 0.  1.
         11    1    1    2    0    0  0.12277836286E+02  0.17951764254E+02 -0.56095638860E+02  0.60164206990E+02  0.00000000000E+00 0. -1.
</event>
<event>
 6    1  0.4988969E-006  0.7138016E+02  0.7561462E-02  0.1355462E+00
          2   -1    0    0  501    0  0.00000000000E+00  0.00000000000E+00  0.45811323416E+03  0.45811323416E+03  0.00000000000E+00 0.  1.
         -2   -1    0    0    0  501 -0.00000000000E+00 -0.00000000000E+00 -0.35591768801E+02  0.35591768801E+02  0.00000000000E+00 0. -1.
          5    1    1    2  502    0 -0.40021733507E+01 -0.20953341881E+02  0.14367338850E+03  0.14530855065E+03  0.41800000000E+01 0.  1.
         -5    1    1    2    0  502 -0.30874696408E+02  0.95625995719E+01 -0.16740127404E+02  0.36638701592E+02  0.41800000000E+01 0.  1.
        -11    1    1    2    0    0  0.16828258155E+02  0.46228511652E+02  0.91055205745E+02  0.10349548809E+03  0.00000000000E+00 0. -1.
         11    1    1    2    0    0  0.18048611604E+02 -0.34837769344E+02  0.20453299851E+03  0.20826226263E+03  0.00000000000E+00 0.  1.
</event>
<event>
 6    1  0.4988969E-006  0.8013823E+02  0.7561462E-02  0.1328660E+00
         -2   -1    0    0    0  501 -0.00000000000E+00  0.00000000000E+00  0.31505003869E+03  0.31505003869E+03  0.00000000000E+00 0.  1.
          2   -1    0    0  501    0  0.00000000000E+00 -0.00000000000E+00 -0.49796928901E+02  0.49796928901E+02  0.00000000000E+00 0. -1.
          5    1    1    2  502    0 -0.49587180102E+02 -0.19170735961E+02  0.58085650136E+01  0.53643428072E+02  0.41800000000E+01 0.  1.
         -5    1    1    2    0  502  0.59672579956E+01 -0.70019137635E+01  0.15945858252E+03  0.15977843066E+03  0.41800000000E+01 0.  1.
        -11    1    1    2    0    0  0.53243339359E+02  0.48819386675E+02  0.10386430617E+03  0.12651474142E+03  0.00000000000E+00 0.  1.
         11    1    1    2    0    0 -0.96234172526E+01 -0.22646736951E+02 -0.38783439184E+01  0.24910367434E+02  0.00000000000E+00 0. -1.
</event>
<event>
 6    1  0.4988969E-006  0.9862228E+02  0.7561462E-02  0.1283220E+00
          1   -1    0    0  501    0  0.00000000000E+00  0.00000000000E+00  0.43908432415E+03  0.43908432415E+03  0.00000000000E+00 0. -1.
         -1   -1    0    0    0  501 -0.00000000000E+00 -0.00000000000E+00 -0.35312600970E+02  0.35312600970E+02  0.00000000000E+00 0.  1.
          5    1    1    2  502    0 -0.24263078962E+02  0.52954594805E+02  0.13830194293E+02  0.60013605007E+02  0.41800000000E+01 0.  1.
         -5    1    1    2    0  502 -0.17058795718E+02 -0.33684227964E+02  0.13243184122E+03  0.13777261954E+03  0.41800000000E+01 0.  1.
        -11    1    1    2    0    0  0.60801458312E+02 -0.39712001139E+02  0.17852625646E+03  0.19273163885E+03  0.00000000000E+00 0.  1.
         11    1    1    2    0    0 -0.19479583632E+02  0.20441634297E+02  0.78983431204E+02  0.83879061726E+02  0.00000000000E+00 0. -1.
</event>
<event>
 6    1  0.4988969E-006  0.2342090E+03  0.7561462E-02  0.1123712E+00
         -1   -1    0    0    0  501 -0.00000000000E+00  0.00000000000E+00  0.76180310934E+02  0.76180310934E+02  0.00000000000E+00 0.  1.
          1   -1    0    0  501    0  0.00000000000E+00 -0.00000000000E+00 -0.79891730980E+03  0.79891730980E+03  0.00000000000E+00 0. -1.
          5    1    1    2  502    0  0.59756573305E+01  0.15081736363E+03 -0.12082186170E+03  0.19338298869E+03  0.41800000000E+01 0. -1.
         -5    1    1    2    0  502 -0.55998996045E+02  0.61208545200E+02 -0.18207711806E+03  0.20012976512E+03  0.41800000000E+01 0. -1.
        -11    1    1    2    0    0 -0.23129831902E+02 -0.81645138993E+02 -0.12615701802E+03  0.15204114917E+03  0.00000000000E+00 0.  1.
         11    1    1    2    0    0  0.73153170616E+02 -0.13038076983E+03 -0.29368100108E+03  0.32954371775E+03  0.00000000000E+00 0. -1.
</event>
<event>
 6    1  0.4988969E-006  0.1224535E+03  0.7561462E-02  0.1239104E+00
          2   -1    0    0  501    0  0.00000000000E+00  0.00000000000E+00  0.12500187775E+03  0.12500187775E+03  0.00000000000E+00 0. -1.
         -2   -1    0    0    0  501 -0.00000000000E+00 -0.00000000000E+00 -0.13947033657E+03  0.13947033657E+03  0.00000000000E+00 0.  1.
          5    1    1    2  502    0  0.87675477755E+01  0.31387966079E+02 -0.36491394659E+02  0.49103651521E+02  0.41800000000E+01 0. -1.
         -5    1    1    2    0  502  0.70291228878E+01 -0.98548208657E+02 -0.22448940127E+01  0.98912435756E+02  0.41800000000E+01 0. -1.
        -11    1    1    2    0    0 -0.46657621025E+02  0.67791841816E+02  0.23473647105E+02  0.85578499198E+02  0.00000000000E+00 0.  1.
         11    1    1    2    0    0  0.30860950362E+02 -0.63159923833E+00  0.79418275129E+00  0.30877627841E+02  0.00000000000E+00 0. -1.
</event>
<event>
 6    1  0.4988969E-006  0.1389133E+03  0.7561462E-02  0.1214799E+00
         -2   -1    0    0    0  501 -0.00000000000E+00  0.00000000000E+00  0.61196711273E+02  0.61196711273E+02  0.00000000000E+00 0.  1.
          2   -1    0    0  501    0  0.00000000000E+00 -0.00000000000E+00 -0.41489857948E+03  0.41489857948E+03  0.00000000000E+00 0. -1.
          5    1    1    2  502    0 -0.78539567342E+01 -0.95654672072E+02 -0.36550065512E+02  0.10278560509E+03  0.41800000000E+01 0. -1.
         -5    1    1    2    0  502 -0.53356490135E+02  0.19248768212E+02 -0.62052324791E+02  0.84174779650E+02  0.41800000000E+01 0. -1.
        -11    1    1    2    0    0  0.78665820809E+02  0.72536050151E+02 -0.16075522112E+03  0.19311144723E+03  0.00000000000E+00 0.  1.
         11    1    1    2    0    0 -0.17455373940E+02  0.38698537088E+01 -0.94344256781E+02  0.96023458773E+02  0.00000000000E+00 0. -1.
</event>
<event>
 6    1  0.4988969E-006  0.2634274E+03  0.7561462E-02  0.1105101E+00
          1   -1    0    0  501    0  0.00000000000E+00  0.00000000000E+00  0.21610940693E+03  0.21610940693E+03  0.00000000000E+00 0. -1.
         -1   -1    0    0    0  501 -0.00000000000E+00 -0.00000000000E+00 -0.36772015790E+03  0.36772015790E+03  0.00000000000E+00 0.  1.
          5    1    1    2  502    0 -0.19729255697E+03 -0.12269016935E+03  0.14888272178E+01  0.23237237292E+03  0.41800000000E+01 0. -1.
         -5    1    1    2    0  502  0.16219664900E+03  0.12535704451E+03 -0.15197890597E+03  0.25521990873E+03  0.41800000000E+01 0.  1.
        -11    1    1    2    0    0 -0.14466757793E+02  0.27753552584E+02  0.16621076014E+02  0.35437366295E+02  0.00000000000E+00 0.  1.
         11    1    1    2    0    0  0.49562665769E+02 -0.30420427742E+02 -0.17741748244E+02  0.60799916882E+02  0.00000000000E+00 0. -1.
</event>
<event>
 6    1  0.4988969E-006  0.1257144E+03  0.7561462E-02  0.1233957E+00
          1   -1    0    0  501    0  0.00000000000E+00  0.00000000000E+00  0.52846047155E+03  0.52846047155E+03  0.00000000000E+00 0. -1.
         -1   -1    0    0    0  501 -0.00000000000E+00 -0.00000000000E+00 -0.42697942378E+02  0.42697942378E+02  0.00000000000E+00 0.  1.
          5    1    1    2  502    0  0.85884269211E+02  0.31991410121E+02  0.16373801271E+03  0.18768901733E+03  0.41800000000E+01 0. -1.
         -5    1    1    2    0  502 -0.24444554879E+02  0.22782941709E+02 -0.69268254871E+00  0.33683095245E+02  0.41800000000E+01 0. -1.
        -11    1    1    2    0    0 -0.50166450380E+02  0.17294056868E+02  0.20098586042E+03  0.20787273327E+03  0.00000000000E+00 0. -1.
         11    1    1    2    0    0 -0.11273263952E+02 -0.72068408698E+02  0.12173133859E+03  0.14191356809E+03  0.00000000000E+00 0.  1.
</event>
<event>
 6    1  0.4988969E-006  0.1807868E+03  0.7561462E-02  0.1167044E+00
         -1   -1    0    0    0  501 -0.00000000000E+00  0.00000000000E+00  0.11479749974E+03  0.11479749974E+03  0.00000000000E+00 0.  1.
          1   -1    0    0  501    0  0.00000000000E+00 -0.00000000000E+00 -0.35026468016E+03  0.35026468016E+03  0.00000000000E+00 0. -1.
          5    1    1    2  502    0  0.18904237375E+02 -0.65497578212E+02 -0.84176711921E+02  0.10839969637E+03  0.41800000000E+01 0.  1.
         -5    1    1    2    0  502  0.96139885536E+02 -0.48576285904E+02  0.12850030493E+02  0.10855933321E+03  0.41800000000E+01 0.  1.
        -11    1    1    2    0    0 -0.60978011459E+02  0.19608898167E+01 -0.63264187413E+02  0.87889250648E+02  0.00000000000E+00 0. -1.
         11    1    1    2    0    0 -0.54066111452E+02  0.11211297430E+03 -0.10087631158E+03  0.16021389968E+03  0.00000000000E+00 0.  1.
</event>
<event>
 6    1  0.4988969E-006  0.1044503E+03  0.7561462E-02  0.1271207E+00
         -2   -1    0    0    0  501 -0.00000000000E+00  0.00000000000E+00  0.36134206945E+02  0.36134206945E+02  0.00000000000E+00 0.  1.
          2   -1    0    0  501    0  0.00000000000E+00 -0.00000000000E+00 -0.58099866885E+03  0.58099866885E+03  0.00000000000E+00 0. -1.
          5    1    1    2  502    0 -0.30974024392E+02 -0.71304707259E+02 -0.27260902764E+02  0.82488670033E+02  0.41800000000E+01 0.  1.
         -5    1    1    2    0  502 -0.51138997284E+01  0.18668277754E+02 -0.11764616960E+03  0.11930109047E+03  0.41800000000E+01 0.  1.
        -11    1    1    2    0    0 -0.23975833600E+02  0.44612607256E+02 -0.20631833938E+03  0.21244383372E+03  0.00000000000E+00 0.  1.
         11    1    1    2    0    0  0.60063757721E+02  0.80238222494E+01 -0.19363905016E+03  0.20289928157E+03  0.00000000000E+00 0. -1.
</event>
<event>
 6    1  0.4988969E-006  0.1395002E+03  0.7561462E-02  0.1214003E+00
          1   -1    0    0  501    0  0.00000000000E+00  0.00000000000E+00  0.50571903936E+03  0.50571903936E+03  0.00000000000E+00 0. -1.
         -1   -1    0    0    0  501 -0.00000000000E+00 -0.00000000000E+00 -0.82193955595E+02  0.82193955595E+02  0.00000000000E+00 0.  1.
          5    1    1    2  502    0 -0.36157117130E+02 -0.47285594407E+02 -0.31551256483E+01  0.59755265671E+02  0.41800000000E+01 0. -1.
         -5    1    1    2    0  502  0.93054143024E+02 -0.47123138506E+02  0.34112268751E+02  0.10982159622E+03  0.41800000000E+01 0. -1.
        -11    1    1    2    0    0 -0.43181866273E+02  0.40114613821E+02  0.32627813322E+03  0.33155885758E+03  0.00000000000E+00 0. -1.
         11    1    1    2    0    0 -0.13715159621E+02  0.54294119091E+02  0.66289807442E+02  0.86777275494E+02  0.00000000000E+00 0.  1.
</event>
<event>
 6    1  0.4988969E-006  0.1022215E+03  0.7561462E-02  0.1275693E+00
         -2   -1    0    0    0  501 -0.00000000000E+00  0.00000000000E+00  0.42590765318E+02  0.42590765318E+02  0.00000000000E+00 0.  1.
          2   -1    0    0  501    0  0.00000000000E+00 -0.00000000000E+00 -0.44080825293E+03  0.44080825293E+03  0.00000000000E+00 0. -1.
          5    1    1    2  502    0 -0.88503598180E+01 -0.32974780213E+02 -0.13638758284E+03  0.14065813220E+03  0.41800000000E+01 0.  1.
         -5    1    1    2    0  502 -0.57913674307E+02  0.11074071927E+02 -0.27074662301E+01  0.59172895097E+02  0.41800000000E+01 0.  1.
        -11    1    1    2    0    0  0.55310752034E+02 -0.26405073596E+02 -0.10423845810E+03  0.12092213755E+03  0.00000000000E+00 0.  1.
         11    1    1    2    0    0  0.11453282091E+02  0.48305781882E+02 -0.15488398044E+03  0.16264585341E+03  0.00000000000E+00 0. -1.
</event>
<event>
 6    1  0.4988969E-006  0.1569825E+03  0.7561462E-02  0.1192146E+00
         -1   -1    0    0    0  501 -0.00000000000E+00  0.00000000000E+00  0.81848472543E+03  0.81848472543E+03  0.00000000000E+00 0.  1.
          1   -1    0    0  501    0  0.00000000000E+00 -0.00000000000E+00 -0.33123025238E+02  0.33123025238E+02  0.00000000000E+00 0. -1.
          5    1    1    2  502    0  0.13912016264E+03  0.24926302148E+02  0.40773804882E+03  0.43155941544E+03  0.41800000000E+01 0.  1.
         -5    1    1    2    0  502 -0.19321285988E+02  0.45284307721E+00  0.11781703612E+02  0.23017343441E+02  0.41800000000E+01 0.  1.
        -11    1    1    2    0    0 -0.63786533862E+02  0.33061498663E+02  0.14505982183E+03  0.16187691776E+03  0.00000000000E+00 0.  1.
         11    1    1    2    0    0 -0.56012342789E+02 -0.58440643889E+02  0.22078212594E+03  0.23515407404E+03  0.00000000000E+00 0. -1.
</event>
<event>
 6    1  0.4988969E-006  0.1889754E+03  0.7561462E-02  0.1159389E+00
          1   -1    0    0  501    0  0.00000000000E+00  0.00000000000E+00  0.58982142499E+03  0.58982142499E+03  0.00000000000E+00 0. -1.
         -1   -1    0    0    0  501 -0.00000000000E+00 -0.00000000000E+00 -0.11030640174E+03  0.11030640174E+03  0.00000000000E+00 0.  1.
          5    1    1    2  502    0 -0.91647488520E+02  0.83426428117E+02 -0.24150093526E+02  0.12633261842E+03  0.41800000000E+01 0. -1.
         -5    1    1    2    0  502 -0.32014306153E+02  0.56455643999E+02  0.84004779331E+02  0.10623761522E+03  0.41800000000E+01 0. -1.
        -11    1    1    2    0    0  0.96183564481E+02 -0.12481094856E+03  0.40155286153E+03  0.43136266825E+03  0.00000000000E+00 0. -1.
         11    1    1    2    0    0  0.27478230192E+02 -0.15071123555E+02  0.18107475920E+02  0.36194924836E+02  0.00000000000E+00 0.  1.
</event>
<event>
 6    1  0.4988969E-006  0.5306133E+02  0.7561462E-02  0.1429496E+00
         -1   -1    0    0    0  501 -0.00000000000E+00  0.00000000000E+00  0.62092896956E+02  0.62092896956E+02  0.00000000000E+00 0.  1.
          1   -1    0    0  501    0  0.00000000000E+00 -0.00000000000E+00 -0.21373033593E+03  0.21373033593E+03  0.00000000000E+00 0. -1.
          5    1    1    2  502    0  0.17258744711E+02 -0.10169343860E+02 -0.80710995238E+02  0.83264740292E+02  0.41800000000E+01 0.  1.
         -5    1    1    2    0  502 -0.20621938305E+02  0.78196973814E+01  0.42106856984E+02  0.47716577954E+02  0.41800000000E+01 0.  1.
        -11    1    1    2    0    0  0.31584500019E+02  0.11393782310E+02 -0.64181662364E+01  0.34184671632E+02  0.00000000000E+00 0.  1.
         11    1    1    2    0    0 -0.28221306425E+02 -0.90441358318E+01 -0.10661513448E+03  0.11065724300E+03  0.00000000000E+00 0. -1.
</event>
<event>
 6    1  0.4988969E-006  0.1140358E+03  0.7561462E-02  0.1253274E+00
          1   -1    0    0  501    0  0.00000000000E+00  0.00000000000E+00  0.18947627933E+03  0.18947627933E+03  0.00000000000E+00 0. -1.
         -1   -1    0    0    0  501 -0.00000000000E+00 -0.00000000000E+00 -0.80312321510E+02  0.80312321510E+02  0.00000000000E+00 0.  1.
          5    1    1    2  502    0  0.16407615228E+02  0.89274292701E+02  0.21000797486E+02  0.93261005086E+02  0.41800000000E+01 0.  1.
         -5    1    1    2    0  502  0.20177632770E+02 -0.40783038904E+02  0.30914032871E+02  0.55168314772E+02  0.41800000000E+01 0.  1.
        -11    1    1    2    0    0  0.83758334783E+01 -0.45704202141E+02 -0.24985429538E+01  0.46532476795E+02  0.00000000000E+00 0.  1.
         11    1    1    2    0    0 -0.44961081477E+02 -0.27870516556E+01  0.59747670419E+02  0.74826804188E+02  0.00000000000E+00 0. -1.
</event>
<event>
 6    1  0.4988969E-006  0.1136299E+03  0.7561462E-02  0.1253992E+00
         -1   -1    0    0    0  501 -0.00000000000E+00  0.00000000000E+00  0.40804313618E+03  0.40804313618E+03  0.00000000000E+00 0.  1.
          1   -1    0    0  501    0  0.00000000000E+00 -0.00000000000E+00 -0.60253030921E+02  0.60253030921E+02  0.00000000000E+00 0. -1.
          5    1    1    2  502    0  0.40207918985E+02  0.73609914806E+01  0.30635437728E+02  0.51252935423E+02  0.41800000000E+01 0.  1.
         -5    1    1    2    0  502 -0.20485590672E+02 -0.93028469351E+02  0.26395522618E+03  0.28064887202E+03  0.41800000000E+01 0.  1.
        -11    1    1    2    0    0 -0.10363355865E+02  0.94297131874E+01 -0.23810474033E+02  0.27627111851E+02  0.00000000000E+00 0. -1.
         11    1    1    2    0    0 -0.93589724486E+01  0.76237764683E+02  0.77009915377E+02  0.10876724781E+03  0.00000000000E+00 0.  1.
</event>
<event>
 6    1  0.4988969E-006  0.6372510E+02  0.7561462E-02  0.1382832E+00
          1   -1    0    0  501    0  0.00000000000E+00  0.00000000000E+00  0.10039698607E+03  0.10039698607E+03  0.00000000000E+00 0. -1.
         -1   -1    0    0    0  501 -0.00000000000E+00 -0.00000000000E+00 -0.77885457168E+02  0.77885457168E+02  0.00000000000E+00 0.  1.
          5    1    1    2  502    0 -0.30339205625E+02  0.39378176513E+02 -0.46312264348E+02  0.68069129658E+02  0.41800000000E+01 0. -1.
         -5    1    1    2    0  502  0.35633011182E+02 -0.36842235068E+02  0.27899473907E+02  0.58505681903E+02  0.41800000000E+01 0. -1.
        -11    1    1    2    0    0 -0.14054781138E+02 -0.76431471629E+01  0.37879494612E+02  0.41119468423E+02  0.00000000000E+00 0. -1.
         11    1    1    2    0    0  0.87609755801E+01  0.51072057177E+01  0.30448247272E+01  0.10588163248E+02  0.00000000000E+00 0.  1.
</event>
<event>
 6    1  0.4988969E-006  0.5999896E+02  0.7561462E-02  0.1397836E+00
         -1   -1    0    0    0  501 -0.00000000000E+00  0.00000000000E+00  0.13983733446E+03  0.13983733446E+03  0.00000000000E+00 0.  1.
          1   -1    0    0  501    0  0.00000000000E+00 -0.00000000000E+00 -0.12324737818E+03  0.12324737818E+03  0.00000000000E+00 0. -1.
          5    1    1    2  502    0  0.51381482480E+01 -0.34401166791E+02  0.93771057322E+02  0.10010157059E+03  0.41800000000E+01 0. -1.
         -5    1    1    2    0  502 -0.15656122266E+02 -0.21114889405E+02 -0.39391862915E+02  0.47540971624E+02  0.41800000000E+01 0. -1.
        -11    1    1    2    0    0 -0.36047436618E+01  0.15496781943E+02  0.30868348849E+02  0.34727501899E+02  0.00000000000E+00 0.  1.
         11    1    1    2    0    0  0.14122717680E+02  0.40019274254E+02 -0.68657586972E+02  0.80714668526E+02  0.00000000000E+00 0. -1.
</event>
<event>
 6    1  0.4988969E-006  0.1100567E+03  0.7561462E-02  0.1260465E+00
          1   -1    0    0  501    0  0.00000000000E+00  0.00000000000E+00  0.23463868046E+03  0.23463868046E+03  0.00000000000E+00 0. -1.
         -1   -1    0    0    0  501 -0.00000000000E+00 -0.00000000000E+00 -0.13078431273E+03  0.13078431273E+03  0.00000000000E+00 0.  1.
          5    1    1    2  502    0 -0.30879746845E+02  0.42937490006E+02 -0.30619326507E+01  0.53141646990E+02  0.41800000000E+01 0.  1.
         -5    1    1    2    0  502  0.59370768279E+02 -0.20753375676E+02 -0.77762040374E+02  0.10009994032E+03  0.41800000000E+01 0.  1.
        -11    1    1    2    0    0  0.59690335197E+01 -0.55663281864E+02  0.10909401694E+03  0.12261947170E+03  0.00000000000E+00 0. -1.
         11    1    1    2    0    0 -0.34460054954E+02  0.33479167534E+02  0.75584323820E+02  0.89561934177E+02  0.00000000000E+00 0.  1.
</event>
<event>
 6    1  0.4988969E-006  0.2073912E+03  0.7561462E-02  0.1143649E+00
         -2   -1    0    0    0  501 -0.00000000000E+00  0.00000000000E+00  0.24246559329E+03  0.24246559329E+03  0.00000000000E+00 0.  1.
          2   -1    0    0  501    0  0.00000000000E+00 -0.00000000000E+00 -0.21366732935E+03  0.21366732935E+03  0.00000000000E+00 0. -1.
          5    1    1    2  502    0 -0.66856474675E+02  0.16009573270E+03  0.83208038549E+02  0.19246163751E+03  0.41800000000E+01 0.  1.
         -5    1    1    2    0  502  0.40476057148E+02  0.15369215414E+02  0.23572223863E+02  0.49473691215E+02  0.41800000000E+01 0.  1.
        -11    1    1    2    0    0  0.44095378998E+02 -0.35365806355E+02 -0.97411214302E+01  0.57358801895E+02  0.00000000000E+00 0.  1.
         11    1    1    2    0    0 -0.17714961470E+02 -0.14009914176E+03 -0.68240877047E+02  0.15683879202E+03  0.00000000000E+00 0. -1.
</event>
<event>
 6    1  0.6442923E-006  0.1112557E+03  0.7561462E-02  0.1258262E+00
          1   -1    0    0  501    0  0.00000000000E+00  0.00000000000E+00  0.22060772663E+03  0.22060772663E+03  0.00000000000E+00 0. -1.
         -1   -1    0    0    0  501 -0.00000000000E+00 -0.00000000000E+00 -0.89886439414E+02  0.89886439414E+02  0.00000000000E+00 0.  1.
          5    1    1    2  502    0 -0.54402011252E+02  0.68307662175E+02 -0.11256131425E+02  0.88145836174E+02  0.41800000000E+01 0.  1.
         -5    1    1    2    0  502  0.39340985516E+01  0.36479611686E+01  0.78624334740E+02  0.78917952111E+02  0.41800000000E+01 0.  1.
        -11    1    1    2    0    0 -0.25242855336E+02 -0.37255466725E+02  0.16924076511E+02  0.48079058977E+02  0.00000000000E+00 0. -1.
         11    1    1    2    0    0  0.75710768036E+02 -0.34700156619E+02  0.46429007389E+02  0.95351318781E+02  0.00000000000E+00 0.  1.
</event>
<event>
 6    1  0.4988969E-006  0.9581919E+02  0.7561462E-02  0.1289342E+00
          2   -1    0    0  501    0  0.00000000000E+00  0.00000000000E+00  0.37666993725E+03  0.37666993725E+03  0.00000000000E+00 0. -1.
         -2   -1    0    0    0  501 -0.00000000000E+00 -0.00000000000E+00 -0.54268368757E+02  0.54268368757E+02  0.00000000000E+00 0.  1.
          5    1    1    2  502    0  0.33758890979E+01  0.30006961236E+02  0.59231872716E+02  0.66616075352E+02  0.41800000000E+01 0.  1.
         -5    1    1    2    0  502  0.11813626652E+02 -0.88220554439E+02  0.13582100442E+02  0.90135308578E+02  0.41800000000E+01 0.  1.
        -11    1    1    2    0    0 -0.26340232498E+01  0.59380099585E+02  0.25397370309E+03  0.26083630147E+03  0.00000000000E+00 0. -1.
         11    1    1    2    0    0 -0.12555492500E+02 -0.11665063824E+01 -0.43861077607E+01  0.13350620598E+02  0.00000000000E+00 0.  1.
</event>
<event>
 6    1  0.4988969E-006  0.1194602E+03  0.7561462E-02  0.1243990E+00
         -3   -1    0    0    0  501 -0.00000000000E+00  0.00000000000E+00  0.10762841422E+03  0.10762841422E+03  0.00000000000E+00 0.  1.
          3   -1    0    0  501    0  0.00000000000E+00 -0.00000000000E+00 -0.17237788061E+03  0.17237788061E+03  0.00000000000E+00 0. -1.
          5    1    1    2  502    0  0.26518028077E+02 -0.24338158737E+02  0.26099884962E+02  0.44656782003E+02  0.41800000000E+01 0.  1.
         -5    1    1    2    0  502 -0.54150397728E+02  0.80104703543E+02 -0.36268981520E+01  0.96848623604E+02  0.41800000000E+01 0.  1.
        -11    1    1    2    0    0  0.42972123231E+02  0.49716472934E+01 -0.47872871822E+02  0.64522341156E+02  0.00000000000E+00 0. -1.
         11    1    1    2    0    0 -0.15339753580E+02 -0.60738192100E+02 -0.39349581372E+02  0.73978548064E+02  0.00000000000E+00 0.  1.
</event>
<event>
 6    1  0.4988969E-006  0.1248100E+03  0.7561462E-02  0.1235367E+00
          1   -1    0    0  501    0  0.00000000000E+00  0.00000000000E+00  0.58532461110E+02  0.58532461110E+02  0.00000000000E+00 0. -1.
         -1   -1    0    0    0  501 -0.00000000000E+00 -0.00000000000E+00 -0.49756271243E+03  0.49756271243E+03  0.00000000000E+00 0.  1.
          5    1    1    2  502    0  0.16693366661E+02 -0.57599602043E+02 -0.21173680699E+03  0.22010527136E+03  0.41800000000E+01 0.  1.
         -5    1    1    2    0  502 -0.82169665171E+02  0.18301297343E+02 -0.20500262300E+03  0.22165364693E+03  0.41800000000E+01 0.  1.
        -11    1    1    2    0    0  0.40828415799E+02  0.60309359099E+02  0.35299852822E+01  0.72915287339E+02  0.00000000000E+00 0. -1.
         11    1    1    2    0    0  0.24647882712E+02 -0.21011054399E+02 -0.25820806617E+02  0.41420967921E+02  0.00000000000E+00 0.  1.
</event>
<event>
 6    1  0.4988969E-006  0.1290232E+03  0.7561462E-02  0.1228912E+00
          2   -1    0    0  501    0  0.00000000000E+00  0.00000000000E+00  0.71348627770E+03  0.71348627770E+03  0.00000000000E+00 0.  1.
         -2   -1    0    0    0  501 -0.00000000000E+00 -0.00000000000E+00 -0.24838040613E+02  0.24838040613E+02  0.00000000000E+00 0. -1.
          5    1    1    2  502    0 -0.39236951011E+02  0.96798341994E+02  0.20529611515E+03  0.23037670159E+03  0.41800000000E+01 0. -1.
         -5    1    1    2    0  502  0.29383661973E+02 -0.23654486670E+02  0.12038629521E+03  0.12622704466E+03  0.41800000000E+01 0. -1.
        -11    1    1    2    0    0 -0.39390954110E+02 -0.24764583157E+02  0.18690781053E+03  0.19261220491E+03  0.00000000000E+00 0. -1.
         11    1    1    2    0    0  0.49244243148E+02 -0.48379272167E+02  0.17605801620E+03  0.18910836715E+03  0.00000000000E+00 0.  1.
</event>
<event>
 6    1  0.4988969E-006  0.1138465E+03  0.7561462E-02  0.1253608E+00
         -1   -1    0    0    0  501 -0.00000000000E+00  0.00000000000E+00  0.51593455557E+02  0.51593455557E+02  0.00000000000E+00 0.  1.
          1   -1    0    0  501    0  0.00000000000E+00 -0.00000000000E+00 -0.39626758447E+03  0.39626758447E+03  0.00000000000E+00 0. -1.
          5    1    1    2  502    0 -0.24309255371E+02 -0.56370339513E+02  0.95093929531E+00  0.61538051310E+02  0.41800000000E+01 0. -1.
         -5    1    1    2    0  502 -0.48536014952E+02  0.21561142473E+02 -0.11255900190E+03  0.12452963069E+03  0.41800000000E+01 0. -1.
        -11    1    1    2    0    0  0.24415412894E+02  0.55186540718E+02 -0.16578732734E+03  0.17642875211E+03  0.00000000000E+00 0. -1.
         11    1    1    2    0    0  0.48429857429E+02 -0.20377343679E+02 -0.67278738967E+02  0.85364605914E+02  0.00000000000E+00 0.  1.
</event>
<event>
 6    1  0.4988969E-006  0.7205779E+02  0.7561462E-02  0.1353232E+00
         -2   -1    0    0    0  501 -0.00000000000E+00  0.00000000000E+00  0.26647937408E+02  0.26647937408E+02  0.00000000000E+00 0.  1.
          2   -1    0    0  501    0  0.00000000000E+00 -0.00000000000E+00 -0.67330815011E+03  0.67330815011E+03  0.00000000000E+00 0. -1.
          5    1    1    2  502    0 -0.13846840944E+02 -0.28432056743E+01  0.14421649589E+02  0.20622201616E+02  0.41800000000E+01 0.  1.
         -5    1    1    2    0  502 -0.46142196163E+02 -0.75839160115E+00 -0.23842687707E+03  0.24288788676E+03  0.41800000000E+01 0.  1.
        -11    1    1    2    0    0  0.71460666421E+02  0.23709459156E+01 -0.41789112552E+03  0.42396372606E+03  0.00000000000E+00 0. -1.
         11    1    1    2    0    0 -0.11471629314E+02  0.12306513599E+01 -0.47638596958E+01  0.12482273074E+02  0.00000000000E+00 0.  1.
</event>
<event>
 6    1  0.4988969E-006  0.7885783E+02  0.7561462E-02  0.1332324E+00
          2   -1    0    0  501    0  0.00000000000E+00  0.00000000000E+00  0.53218749159E+03  0.53218749159E+03  0.00000000000E+00 0.  1.
         -2   -1    0    0    0  501 -0.00000000000E+00 -0.00000000000E+00 -0.31168113850E+02  0.31168113850E+02  0.00000000000E+00 0. -1.
          5    1    1    2  502    0 -0.76980386031E+01  0.88736127094E+01 -0.18097449135E+02  0.21977053170E+02  0.41800000000E+01 0. -1.
         -5    1    1    2    0  502  0.25203435870E+02 -0.47191533294E+02  0.17508967327E+03  0.18312869814E+03  0.41800000000E+01 0. -1.
        -11    1    1    2    0    0  0.32579788853E+02  0.20137451185E+02  0.77486504015E+02  0.86435628570E+02  0.00000000000E+00 0. -1.
         11    1    1    2    0    0 -0.50085186120E+02  0.18180469399E+02  0.26654064959E+03  0.27181422556E+03  0.00000000000E+00 0.  1.
</event>
<event>
 6    1  0.4988969E-006  0.1373704E+03  0.7561462E-02  0.1216912E+00
         -2   -1    0    0    0  501 -0.00000000000E+00  0.00000000000E+00  0.48670260024E+02  0.48670260024E+02  0.00000000000E+00 0. -1.
          2   -1    0    0  501    0  0.00000000000E+00 -0.00000000000E+00 -0.51905591408E+03  0.51905591408E+03  0.00000000000E+00 0.  1.
          5    1    1    2  502    0 -0.74506279290E+02 -0.38184347914E+01 -0.71310063194E+02  0.10328777087E+03  0.41800000000E+01 0. -1.
         -5    1    1    2    0  502  0.15817997490E+02  0.82767430625E+02 -0.72400971900E+02  0.11117567067E+03  0.41800000000E+01 0. -1.
        -11    1    1    2    0    0  0.71593747094E+02 -0.66183037812E+02 -0.31897788413E+03  0.33354572352E+03  0.00000000000E+00 0.  1.
         11    1    1    2    0    0 -0.12905465294E+02 -0.12765958021E+02 -0.76967348369E+01  0.19717009048E+02  0.00000000000E+00 0. -1.
</event>
<event>
 6    1  0.4988969E-006  0.1043055E+03  0.7561462E-02  0.1271494E+00
          1   -1    0    0  501    0  0.00000000000E+00  0.00000000000E+00  0.90266081545E+02  0.90266081545E+02  0.00000000000E+00 0. -1.
         -1   -1    0    0    0  501 -0.00000000000E+00 -0.00000000000E+00 -0.14758742710E+03  0.14758742710E+03  0.00000000000E+00 0.  1.
          5    1    1    2  502    0 -0.14261964545E+02 -0.50818357790E+02  0.48084408107E+01  0.53164862684E+02  0.41800000000E+01 0.  1.
         -5    1    1    2    0  502  0.36817926451E+02  0.46961141199E+02 -0.62360039678E+02  0.86412704156E+02  0.41800000000E+01 0.  1.
        -11    1    1    2    0    0 -0.22975963620E+02 -0.43123212519E+02  0.10977573004E+02  0.50080070600E+02  0.00000000000E+00 0. -1.
         11    1    1    2    0    0  0.42000171390E+00  0.46980429110E+02 -0.10747319693E+02  0.48195871207E+02  0.00000000000E+00 0.  1.
</event>
<event>
 6    1  0.4988969E-006  0.1365474E+03  0.7561462E-02  0.1218052E+00
          1   -1    0    0  501    0  0.00000000000E+00  0.00000000000E+00  0.63898308080E+03  0.63898308080E+03  0.00000000000E+00 0. -1.
         -1   -1    0    0    0  501 -0.00000000000E+00 -0.00000000000E+00 -0.47197627864E+02  0.47197627864E+02  0.00000000000E+00 0.  1.
          5    1    1    2  502    0 -0.25276521244E+02 -0.52480597491E+02  0.16351079080E+03  0.17362709105E+03  0.41800000000E+01 0.  1.
         -5    1    1    2    0  502  0.31161468582E+02 -0.63208166992E+02  0.13013680156E+02  0.71785359021E+02  0.41800000000E+01 0.  1.
        -11    1    1    2    0    0 -0.28020552749E+02  0.17996716444E+01  0.12634438268E+03  0.12942678714E+03  0.00000000000E+00 0. -1.
         11    1    1    2    0    0  0.22135605411E+02  0.11388909284E+03  0.28891659930E+03  0.31134147145E+03  0.00000000000E+00 0.  1.
</event>
<event>
 6    1  0.4988969E-006  0.1130726E+03  0.7561462E-02  0.1254983E+00
          2   -1    0    0  501    0  0.00000000000E+00  0.00000000000E+00  0.40235530128E+03  0.40235530128E+03  0.00000000000E+00 0.  1.
         -2   -1    0    0    0  501 -0.00000000000E+00 -0.00000000000E+00 -0.45987209235E+02  0.45987209235E+02  0.00000000000E+00 0. -1.
          5    1    1    2  502    0  0.93991704233E+02 -0.42147803248E+01  0.15784620104E+03  0.18380723712E+03  0.41800000000E+01 0. -1.
         -5    1    1    2    0  502 -0.18644211501E+02 -0.26276451883E+02 -0.11966856835E+01  0.32510967422E+02  0.41800000000E+01 0. -1.
        -11    1    1    2    0    0 -0.61731533014E+02  0.47355004945E+02  0.84817687521E+02  0.11509699726E+03  0.00000000000E+00 0. -1.
         11    1    1    2    0    0 -0.13615959717E+02 -0.16863772737E+02  0.11490088917E+03  0.11692730871E+03  0.00000000000E+00 0.  1.
</event>
<event>
 6    1  0.5156464E-006  0.2223671E+03  0.7561462E-02  0.1132131E+00
         -1   -1    0    0    0  501 -0.00000000000E+00  0.00000000000E+00  0.29100732028E+03  0.29100732028E+03  0.00000000000E+00 0.  1.
          1   -1    0    0  501    0  0.00000000000E+00 -0.00000000000E+00 -0.23436021978E+03  0.23436021978E+03  0.00000000000E+00 0. -1.
          5    1    1    2  502    0 -0.51192317905E+00 -0.21898992588E+02  0.70575231656E+02  0.74014617914E+02  0.41800000000E+01 0. -1.
         -5    1    1    2    0  502 -0.97286307827E+02 -0.17391637167E+03  0.50312864534E+02  0.20557331238E+03  0.41800000000E+01 0. -1.
        -11    1    1    2    0    0  0.40614907400E+02  0.12861415337E+03  0.28938720727E+01  0.13490569167E+03  0.00000000000E+00 0.  1.
         11    1    1    2    0    0  0.57183323607E+02  0.67201210891E+02 -0.67134867765E+02  0.11087391809E+03  0.00000000000E+00 0. -1.
</event>
<event>
 6    1  0.4988969E-006  0.1605740E+03  0.7561462E-02  0.1188050E+00
         -2   -1    0    0    0  501 -0.00000000000E+00  0.00000000000E+00  0.41422941382E+03  0.41422941382E+03  0.00000000000E+00 0.  1.
          2   -1    0    0  501    0  0.00000000000E+00 -0.00000000000E+00 -0.11791476717E+03  0.11791476717E+03  0.00000000000E+00 0. -1.
          5    1    1    2  502    0 -0.40361215823E+02 -0.17589042781E+02  0.11117756704E+03  0.11965085032E+03  0.41800000000E+01 0. -1.
         -5    1    1    2    0  502  0.80093201346E+02 -0.10799163735E+03  0.21181104708E+03  0.25091533773E+03  0.41800000000E+01 0. -1.
        -11    1    1    2    0    0 -0.52845238645E+02  0.11004960104E+03  0.69607326120E+01  0.12227831262E+03  0.00000000000E+00 0.  1.
         11    1    1    2    0    0  0.13113253123E+02  0.15531079090E+02 -0.33634700074E+02  0.39299680333E+02  0.00000000000E+00 0. -1.
</event>
<event>
 6    1  0.4988969E-006  0.1025002E+03  0.7561462E-02  0.1275125E+00
          4   -1    0    0  501    0  0.00000000000E+00  0.00000000000E+00  0.14926723759E+03  0.14926723759E+03  0.00000000000E+00 0. -1.
         -4   -1    0    0    0  501 -0.00000000000E+00 -0.00000000000E+00 -0.95431099437E+02  0.95431099437E+02  0.00000000000E+00 0.  1.
          5    1    1    2  502    0  0.88273338582E+02  0.43002551751E+01 -0.42710478898E+01  0.88579843921E+02  0.41800000000E+01 0.  1.
         -5    1    1    2    0  502 -0.40601379577E+02 -0.16278914737E+02  0.14210976958E+02  0.46183323340E+02  0.41800000000E+01 0.  1.
        -11    1    1    2    0    0 -0.76391564216E+01  0.28326853528E+02 -0.18007118502E+02  0.34424172588E+02  0.00000000000E+00 0.  1.
         11    1    1    2    0    0 -0.40032802583E+02 -0.16348193966E+02  0.61903327589E+02  0.75510997181E+02  0.00000000000E+00 0. -1.
</event>
<event>
 6    1  0.4988969E-006  0.1238463E+03  0.7561462E-02  0.1236883E+00
         -2   -1    0    0    0  501 -0.00000000000E+00  0.00000000000E+00  0.35651405236E+02  0.35651405236E+02  0.00000000000E+00 0.  1.
          2   -1    0    0  501    0  0.00000000000E+00 -0.00000000000E+00 -0.58806811691E+03  0.58806811691E+03  0.00000000000E+00 0. -1.
          5    1    1    2  502    0 -0.98615017050E+02  0.36201356739E+01 -0.20421787090E+03  0.22684893248E+03  0.41800000000E+01 0. -1.
         -5    1    1    2    0  502  0.63328885898E+02  0.87225432349E+01 -0.45620660858E+02  0.78646981167E+02  0.41800000000E+01 0.  1.
        -11    1    1    2    0    0  0.29127684604E+02 -0.43912412399E+02 -0.25756130401E+03  0.26289645737E+03  0.00000000000E+00 0. -1.
         11    1    1    2    0    0  0.61584465480E+01  0.31569733490E+02 -0.45016875895E+02  0.55327151128E+02  0.00000000000E+00 0.  1.
</event>
<event>
 6    1  0.4988969E-006  0.1713648E+03  0.7561462E-02  0.1176432E+00
         -2   -1    0    0    0  501 -0.00000000000E+00  0.00000000000E+00  0.32556942567E+02  0.32556942567E+02  0.00000000000E+00 0.  1.
          2   -1    0    0  501    0  0.00000000000E+00 -0.00000000000E+00 -0.11973342507E+04  0.11973342507E+04  0.00000000000E+00 0. -1.
          5    1    1    2  502    0 -0.88268523125E+02  0.92860019824E+02 -0.36236292916E+03  0.38436789705E+03  0.41800000000E+01 0.  1.
         -5    1    1    2    0  502 -0.38091658175E+02 -0.85036187263E+01 -0.44121913264E+03  0.44296171545E+03  0.41800000000E+01 0.  1.
        -11    1    1    2    0    0  0.13918356313E+03 -0.83781458776E+02 -0.34851663460E+03  0.38451949453E+03  0.00000000000E+00 0.  1.
         11    1    1    2    0    0 -0.12823381832E+02 -0.57494232184E+00 -0.12678611777E+02  0.18042086268E+02  0.00000000000E+00 0. -1.
</event>
<event>
 6    1  0.4988969E-006  0.7740660E+02  0.7561462E-02  0.1336576E+00
         -1   -1    0    0    0  501 -0.00000000000E+00  0.00000000000E+00  0.28425632510E+03  0.28425632510E+03  0.00000000000E+00 0.  1.
          1   -1    0    0  501    0  0.00000000000E+00 -0.00000000000E+00 -0.89555961316E+02  0.89555961316E+02  0.00000000000E+00 0. -1.
          5    1    1    2  502    0  0.53344029064E+02 -0.17305040621E+02  0.61600044638E+02  0.83409158772E+02  0.41800000000E+01 0. -1.
         -5    1    1    2    0  502 -0.54626805197E+02  0.13282215424E+02  0.18093451960E+03  0.18951326570E+03  0.41800000000E+01 0. -1.
        -11    1    1    2    0    0 -0.13757113322E+02  0.17326475999E+02  0.20197567470E+02  0.29956746639E+02  0.00000000000E+00 0.  1.
         11    1    1    2    0    0  0.15039889455E+02 -0.13303650801E+02 -0.68031767927E+02  0.70933115304E+02  0.00000000000E+00 0. -1.
</event>
<event>
 6    1  0.4988969E-006  0.1058571E+03  0.7561462E-02  0.1268440E+00
          2   -1    0    0  501    0  0.00000000000E+00  0.00000000000E+00  0.13146327597E+03  0.13146327597E+03  0.00000000000E+00 0. -1.
         -2   -1    0    0    0  501 -0.00000000000E+00 -0.00000000000E+00 -0.12594734365E+03  0.12594734365E+03  0.00000000000E+00 0.  1.
          5    1    1    2  502    0 -0.53778228133E+02 -0.62364882843E+01 -0.59338572055E+02  0.80433389465E+02  0.41800000000E+01 0.  1.
         -5    1    1    2    0  502  0.33791979074E+02  0.49004809501E+02  0.12996381722E+02  0.61071659072E+02  0.41800000000E+01 0.  1.
        -11    1    1    2    0    0 -0.51220619860E+01  0.24975060423E+02 -0.23215502942E+01  0.25600366363E+02  0.00000000000E+00 0.  1.
         11    1    1    2    0    0  0.25108311046E+02 -0.67743381640E+02  0.54179672950E+02  0.90305204725E+02  0.00000000000E+00 0. -1.
</event>
<event>
 6    1  0.4988969E-006  0.1449018E+03  0.7561462E-02  0.1206881E+00
         -2   -1    0    0    0  501 -0.00000000000E+00  0.00000000000E+00  0.13332301295E+03  0.13332301295E+03  0.00000000000E+00 0.  1.
          2   -1    0    0  501    0  0.00000000000E+00 -0.00000000000E+00 -0.29952593933E+03  0.29952593933E+03  0.00000000000E+00 0. -1.
          5    1    1    2  502    0 -0.23947372446E+02 -0.25216673414E+02 -0.60580051997E+02  0.69976941667E+02  0.41800000000E+01 0. -1.
         -5    1    1    2    0  502  0.10701257309E+03 -0.42915026095E+02  0.72242979121E+02  0.13612461458E+03  0.41800000000E+01 0.  1.
        -11    1    1    2    0    0 -0.96323199017E+02  0.32942145999E+02 -0.14248529556E+03  0.17511539939E+03  0.00000000000E+00 0. -1.
         11    1    1    2    0    0  0.13257998378E+02  0.35189553510E+02 -0.35380557932E+02  0.51631996638E+02  0.00000000000E+00 0.  1.
</event>
<event>
 6    1  0.4988969E-006  0.1350900E+03  0.7561462E-02  0.1220093E+00
          1   -1    0    0  501    0  0.00000000000E+00  0.00000000000E+00  0.93780926573E+03  0.93780926573E+03  0.00000000000E+00 0. -1.
         -1   -1    0    0    0  501 -0.00000000000E+00 -0.00000000000E+00 -0.20124629778E+02  0.20124629778E+02  0.00000000000E+00 0.  1.
          5    1    1    2  502    0 -0.64318936961E+02 -0.10567588660E+02  0.24000605887E+03  0.24873475888E+03  0.41800000000E+01 0. -1.
         -5    1    1    2    0  502  0.19936521611E+02  0.80666898093E+02  0.22441862201E+03  0.23934452917E+03  0.41800000000E+01 0. -1.
        -11    1    1    2    0    0 -0.25821847802E+02 -0.34088360008E+02  0.12033750850E+03  0.12771021911E+03  0.00000000000E+00 0.  1.
         11    1    1    2    0    0  0.70204263152E+02 -0.36010949425E+02  0.33292244657E+03  0.34214438834E+03  0.00000000000E+00 0. -1.
</event>
<event>
 6    1  0.4988969E-006  0.1005652E+03  0.7561462E-02  0.1279112E+00
         -1   -1    0    0    0  501 -0.00000000000E+00  0.00000000000E+00  0.22701503687E+02  0.22701503687E+02  0.00000000000E+00 0.  1.
          1   -1    0    0  501    0  0.00000000000E+00 -0.00000000000E+00 -0.51219160329E+03  0.51219160329E+03  0.00000000000E+00 0. -1.
          5    1    1    2  502    0 -0.64710504495E+02 -0.41184462622E+01 -0.22887220347E+03  0.23791672684E+03  0.41800000000E+01 0. -1.
         -5    1    1    2    0  502  0.50596013696E+02  0.31594323844E+02 -0.12216396866E+03  0.13601347558E+03  0.41800000000E+01 0. -1.
        -11    1    1    2    0    0 -0.18297881608E+01 -0.49297756954E+02 -0.58275979491E+02  0.76352516338E+02  0.00000000000E+00 0.  1.
         11    1    1    2    0    0  0.15944278960E+02  0.21821879372E+02 -0.80177947986E+02  0.84610388217E+02  0.00000000000E+00 0. -1.
</event>
<event>
 6    1  0.4988969E-006  0.1006457E+03  0.7561462E-02  0.1278944E+00
         -1   -1    0    0    0  501 -0.00000000000E+00  0.00000000000E+00  0.20776233304E+03  0.20776233304E+03  0.00000000000E+00 0.  1.
          1   -1    0    0  501    0  0.00000000000E+00 -0.00000000000E+00 -0.72769972843E+02  0.72769972843E+02  0.00000000000E+00 0. -1.
          5    1    1    2  502    0 -0.15654040342E+01  0.68836662047E+02  0.52569633693E+02  0.86729322136E+02  0.41800000000E+01 0. -1.
         -5    1    1    2    0  502  0.36732180725E+02 -0.48855781187E+02  0.69882221266E+02  0.92936202339E+02  0.41800000000E+01 0. -1.
        -11    1    1    2    0    0 -0.39803845616E+02  0.97275677689E+01  0.42067308976E+02  0.58725038826E+02  0.00000000000E+00 0.  1.
         11    1    1    2    0    0  0.46370689260E+01 -0.29708448630E+02 -0.29526803743E+02  0.42141742577E+02  0.00000000000E+00 0. -1.
</event>
<event>
 6    1  0.4988969E-006  0.3131817E+03  0.7561462E-02  0.1078831E+00
         -2   -1    0    0    0  501 -0.00000000000E+00  0.00000000000E+00  0.11173837132E+03  0.11173837132E+03  0.00000000000E+00 0.  1.
          2   -1    0    0  501    0  0.00000000000E+00 -0.00000000000E+00 -0.97202738408E+03  0.97202738408E+03  0.00000000000E+00 0. -1.
          5    1    1    2  502    0  0.20605042377E+03 -0.16696286841E+01 -0.35370507430E+03  0.40937063498E+03  0.41800000000E+01 0. -1.
         -5    1    1    2    0  502 -0.11954591906E+03  0.17516599902E+03 -0.34932551991E+03  0.40868098223E+03  0.41800000000E+01 0.  1.
        -11    1    1    2    0    0 -0.55839436342E+02 -0.16794871333E+03 -0.15358490654E+03  0.23433552116E+03  0.00000000000E+00 0. -1.
         11    1    1    2    0    0 -0.30665068367E+02 -0.55476569995E+01 -0.36735120085E+01  0.31378617029E+02  0.00000000000E+00 0.  1.
</event>
<event>
 6    1  0.4988969E-006  0.8338605E+02  0.7561462E-02  0.1319708E+00
          2   -1    0    0  501    0  0.00000000000E+00  0.00000000000E+00  0.10522646804E+03  0.10522646804E+03  0.00000000000E+00 0.  1.
         -2   -1    0    0    0  501 -0.00000000000E+00 -0.00000000000E+00 -0.11818927765E+03  0.11818927765E+03  0.00000000000E+00 0. -1.
          5    1    1    2  502    0  0.36947229671E+02 -0.35861926751E+02 -0.13673546991E+02  0.53437943991E+02  0.41800000000E+01 0. -1.
         -5    1    1    2    0  502 -0.63664986678E+02  0.38450804593E+02  0.59442335129E+01  0.74729520369E+02  0.41800000000E+01 0. -1.
        -11    1    1    2    0    0  0.16654060375E+02  0.13638376231E+02 -0.45692889204E+02  0.50509436317E+02  0.00000000000E+00 0. -1.
         11    1    1    2    0    0  0.10063696631E+02 -0.16227254074E+02  0.40459393075E+02  0.44738845008E+02  0.00000000000E+00 0.  1.
</event>
<event>
 6    1  0.4988969E-006  0.6784898E+02  0.7561462E-02  0.1367564E+00
          1   -1    0    0  501    0  0.00000000000E+00  0.00000000000E+00  0.92050950705E+02  0.92050950705E+02  0.00000000000E+00 0. -1.
         -1   -1    0    0    0  501 -0.00000000000E+00 -0.00000000000E+00 -0.13386985197E+03  0.13386985197E+03  0.00000000000E+00 0.  1.
          5    1    1    2  502    0 -0.53332117864E+01 -0.28962116740E+02  0.36375774350E+02  0.46988474263E+02  0.41800000000E+01 0.  1.
         -5    1    1    2    0  502  0.13888278765E+02  0.11355638060E+02 -0.87729487873E+02  0.89642457827E+02  0.41800000000E+01 0.  1.
        -11    1    1    2    0    0  0.15928314869E+02 -0.30019074978E+02  0.11001346567E+02  0.35719542318E+02  0.00000000000E+00 0.  1.
         11    1    1    2    0    0 -0.24483381847E+02  0.47625553658E+02 -0.14665343103E+01  0.53570328268E+02  0.00000000000E+00 0. -1.
</event>
<event>
 6    1  0.4988969E-006  0.1228716E+03  0.7561462E-02  0.1238434E+00
         -2   -1    0    0    0  501 -0.00000000000E+00  0.00000000000E+00  0.24956750818E+02  0.24956750818E+02  0.00000000000E+00 0.  1.
          2   -1    0    0  501    0  0.00000000000E+00 -0.00000000000E+00 -0.72265141732E+03  0.72265141732E+03  0.00000000000E+00 0. -1.
          5    1    1    2  502    0 -0.51803286328E+02 -0.56751291868E+02 -0.33097599402E+03  0.33980416510E+03  0.41800000000E+01 0. -1.
         -5    1    1    2    0  502  0.30338419666E+02 -0.29857900503E+02 -0.44813813599E+02  0.61948883925E+02  0.41800000000E+01 0.  1.
        -11    1    1    2    0    0 -0.10428095091E+02  0.92923570907E+02 -0.25100032184E+03  0.26785200533E+03  0.00000000000E+00 0.  1.
         11    1    1    2    0    0  0.31892961752E+02 -0.63143785360E+01 -0.70904537044E+02  0.78003113778E+02  0.00000000000E+00 0. -1.
</event>
<event>
 6    1  0.4988969E-006  0.1892427E+03  0.7561462E-02  0.1159146E+00
          1   -1    0    0  501    0  0.00000000000E+00  0.00000000000E+00  0.12642961381E+03  0.12642961381E+03  0.00000000000E+00 0. -1.
         -1   -1    0    0    0  501 -0.00000000000E+00 -0.00000000000E+00 -0.32846971639E+03  0.32846971639E+03  0.00000000000E+00 0.  1.
          5    1    1    2  502    0 -0.19767212486E+01  0.11819849432E+02  0.10224761156E+02  0.16298294641E+02  0.41800000000E+01 0.  1.
         -5    1    1    2    0  502  0.33400524160E+02 -0.17532833627E+03 -0.16583145843E+03  0.24366609431E+03  0.41800000000E+01 0.  1.
        -11    1    1    2    0    0  0.43002805505E+01 -0.95934135718E+01 -0.99170517536E+01  0.14452470801E+02  0.00000000000E+00 0.  1.
         11    1    1    2    0    0 -0.35724083462E+02  0.17310190041E+03 -0.36516353554E+02  0.18048247046E+03  0.00000000000E+00 0. -1.
</event>
<event>
 6    1  0.4988969E-006  0.1183034E+03  0.7561462E-02  0.1245922E+00
         -2   -1    0    0    0  501 -0.00000000000E+00  0.00000000000E+00  0.16476942133E+02  0.16476942133E+02  0.00000000000E+00 0.  1.
          2   -1    0    0  501    0  0.00000000000E+00 -0.00000000000E+00 -0.10466076545E+04  0.10466076545E+04  0.00000000000E+00 0. -1.
          5    1    1    2  502    0 -0.53843202657E+02  0.41051871651E+02 -0.47985823786E+03  0.48462949505E+03  0.41800000000E+01 0.  1.
         -5    1    1    2    0  502 -0.15688516419E+02 -0.57337601472E+02 -0.14816786440E+03  0.15970259400E+03  0.41800000000E+01 0.  1.
        -11    1    1    2    0    0  0.66322365307E+02 -0.22670387504E+02 -0.32300390519E+03  0.33052099083E+03  0.00000000000E+00 0. -1.
         11    1    1    2    0    0  0.32093537682E+01  0.38956117325E+02 -0.79100704905E+02  0.88231516734E+02  0.00000000000E+00 0.  1.
</event>
<event>
 6    1  0.4988969E-006  0.1337958E+03  0.7561462E-02  0.1221930E+00
         -1   -1    0    0    0  501 -0.00000000000E+00  0.00000000000E+00  0.20615940810E+03  0.20615940810E+03  0.00000000000E+00 0.  1.
          1   -1    0    0  501    0  0.00000000000E+00 -0.00000000000E+00 -0.92322986704E+02  0.92322986704E+02  0.00000000000E+00 0. -1.
          5    1    1    2  502    0 -0.36024442972E+02  0.43055992331E+01  0.31419218641E+02  0.48176118318E+02  0.41800000000E+01 0. -1.
         -5    1    1    2    0  502  0.10430745647E+03  0.38852470939E+02  0.59376488672E+02  0.12622440248E+03  0.41800000000E+01 0. -1.
        -11    1    1    2    0    0 -0.77070948976E+02 -0.14755014352E+01  0.26073239900E+02  0.81375193514E+02  0.00000000000E+00 0.  1.
         11    1    1    2    0    0  0.87879354771E+01 -0.41682568737E+02 -0.30325258137E+01  0.42706680499E+02  0.00000000000E+00 0. -1.
</event>
<event>
 6    1  0.4988969E-006  0.2740071E+03  0.7561462E-02  0.1099008E+00
         -2   -1    0    0    0  501 -0.00000000000E+00  0.00000000000E+00  0.18781447323E+03  0.18781447323E+03  0.00000000000E+00 0.  1.
          2   -1    0    0  501    0  0.00000000000E+00 -0.00000000000E+00 -0.45959750547E+03  0.45959750547E+03  0.00000000000E+00 0. -1.
          5    1    1    2  502    0  0.94759006723E+02 -0.48011906170E+02  0.19977477589E+01  0.10632909237E+03  0.41800000000E+01 0.  1.
         -5    1    1    2    0  502  0.45637680059E+02 -0.17345843995E+03 -0.65993843376E+02  0.19116298803E+03  0.41800000000E+01 0.  1.
        -11    1    1    2    0    0 -0.12480379279E+02  0.23119805457E+02 -0.74206318166E+02  0.78720155787E+02  0.00000000000E+00 0. -1.
         11    1    1    2    0    0 -0.12791630750E+03  0.19835054066E+03 -0.13358061846E+03  0.27119974250E+03  0.00000000000E+00 0.  1.
</event>
<event>
 6    1  0.4988969E-006  0.2086604E+03  0.7561462E-02  0.1142631E+00
          2   -1    0    0  501    0  0.00000000000E+00  0.00000000000E+00  0.65817138163E+03  0.65817138163E+03  0.00000000000E+00 0. -1.
         -2   -1    0    0    0  501 -0.00000000000E+00 -0.00000000000E+00 -0.86612997389E+02  0.86612997389E+02  0.00000000000E+00 0.  1.
          5    1    1    2  502    0 -0.97047466974E+02  0.32165816925E+02  0.15010942063E+03  0.18166772192E+03  0.41800000000E+01 0.  1.
         -5    1    1    2    0  502 -0.63655545796E+02  0.76823046454E+02  0.12115313001E+02  0.10058857881E+03  0.41800000000E+01 0.  1.
        -11    1    1    2    0    0  0.50999249171E+02 -0.90511914412E+02  0.18732904670E+03  0.21420901429E+03  0.00000000000E+00 0. -1.
         11    1    1    2    0    0  0.10970376360E+03 -0.18476948967E+02  0.22200460392E+03  0.24831906401E+03  0.00000000000E+00 0.  1.
</event>
<event>
 6    1  0.4988969E-006  0.1326703E+03  0.7561462E-02  0.1223546E+00
         -4   -1    0    0    0  501 -0.00000000000E+00  0.00000000000E+00  0.37289733455E+03  0.37289733455E+03  0.00000000000E+00 0. -1.
          4   -1    0    0  501    0  0.00000000000E+00 -0.00000000000E+00 -0.48107968682E+02  0.48107968682E+02  0.00000000000E+00 0.  1.
          5    1    1    2  502    0 -0.92929035101E+02 -0.26328712856E+02  0.12527382532E+03  0.15824035641E+03  0.41800000000E+01 0. -1.
         -5    1    1    2    0  502  0.17381423778E+02  0.47515698491E+02  0.56761427531E+02  0.76152396883E+02  0.41800000000E+01 0. -1.
        -11    1    1    2    0    0  0.13723450432E+02 -0.48429115419E+02  0.43389977516E+02  0.66456018997E+02  0.00000000000E+00 0.  1.
         11    1    1    2    0    0  0.61824160892E+02  0.27242129783E+02  0.99364135497E+02  0.12015653094E+03  0.00000000000E+00 0. -1.
</event>
<event>
 6    1  0.4988969E-006  0.1447103E+03  0.7561462E-02  0.1207128E+00
          1   -1    0    0  501    0  0.00000000000E+00  0.00000000000E+00  0.19796944243E+03  0.19796944243E+03  0.00000000000E+00 0. -1.
         -1   -1    0    0    0  501 -0.00000000000E+00 -0.00000000000E+00 -0.13605464412E+03  0.13605464412E+03  0.00000000000E+00 0.  1.
          5    1    1    2  502    0  0.12651316183E+03  0.24611009548E+01 -0.24087103467E+02  0.12887706580E+03  0.41800000000E+01 0.  1.
         -5    1    1    2    0  502 -0.29126544680E+02  0.60484419733E+01 -0.19258701567E+02  0.35683458932E+02  0.41800000000E+01 0.  1.
        -11    1    1    2    0    0 -0.39328201776E+02  0.40751155626E+02  0.42997307035E+02  0.71106487412E+02  0.00000000000E+00 0.  1.
         11    1    1    2    0    0 -0.58058415376E+02 -0.49260698554E+02  0.62263296315E+02  0.98357074407E+02  0.00000000000E+00 0. -1.
</event>
<event>
 6    1  0.4988969E-006  0.1522493E+03  0.7561462E-02  0.1197736E+00
          1   -1    0    0  501    0  0.00000000000E+00  0.00000000000E+00  0.23915846208E+03  0.23915846208E+03  0.00000000000E+00 0. -1.
         -1   -1    0    0    0  501 -0.00000000000E+00 -0.00000000000E+00 -0.13541590589E+03  0.13541590589E+03  0.00000000000E+00 0.  1.
          5    1    1    2  502    0  0.29171055167E+01  0.72540719583E+02  0.35586253134E+02  0.80959985884E+02  0.41800000000E+01 0. -1.
         -5    1    1    2    0  502 -0.84810513143E+02  0.12027977017E+02 -0.53445614884E+02  0.10105147956E+03  0.41800000000E+01 0.  1.
        -11    1    1    2    0    0  0.21493112294E+02  0.17298856466E+02  0.40583269560E+02  0.49073476332E+02  0.00000000000E+00 0.  1.
         11    1    1    2    0    0  0.60400295332E+02 -0.10186755307E+03  0.81018648387E+02  0.14348942620E+03  0.00000000000E+00 0. -1.
</event>
<event>
 6    1  0.4988969E-006  0.1264188E+03  0.7561462E-02  0.1232868E+00
          2   -1    0    0  501    0  0.00000000000E+00  0.00000000000E+00  0.13311440273E+04  0.13311440273E+04  0.00000000000E+00 0. -1.
         -2   -1    0    0    0  501 -0.00000000000E+00 -0.00000000000E+00 -0.14363478610E+02  0.14363478610E+02  0.00000000000E+00 0.  1.
          5    1    1    2  502    0 -0.76940400625E+02 -0.55603028248E+02  0.30216156338E+03  0.31675006675E+03  0.41800000000E+01 0. -1.
         -5    1    1    2    0  502 -0.90757121051E+01  0.29292107617E+02  0.38301099455E+03  0.38425940517E+03  0.41800000000E+01 0.  1.
        -11    1    1    2    0    0  0.91520616261E+02  0.48797248494E+02  0.54881230589E+03  0.55852676010E+03  0.00000000000E+00 0.  1.
         11    1    1    2    0    0 -0.55045035317E+01 -0.22486327863E+02  0.82795684875E+02  0.85971273887E+02  0.00000000000E+00 0. -1.
</event>
<event>
 6    1  0.4988969E-006  0.1035558E+03  0.7561462E-02  0.1272991E+00
         -1   -1    0    0    0  501 -0.00000000000E+00  0.00000000000E+00  0.11369526098E+03  0.11369526098E+03  0.00000000000E+00 0.  1.
          1   -1    0    0  501    0  0.00000000000E+00 -0.00000000000E+00 -0.11369792020E+03  0.11369792020E+03  0.00000000000E+00 0. -1.
          5    1    1    2  502    0  0.39881057335E+02 -0.55465046941E+02 -0.12035336809E+02  0.69492387341E+02  0.41800000000E+01 0. -1.
         -5    1    1    2    0  502 -0.40877576348E+02  0.28243279542E+02  0.34128438395E+02  0.60422527212E+02  0.41800000000E+01 0. -1.
        -11    1    1    2    0    0  0.33880167884E+02  0.40972058093E+02 -0.29892230673E+02  0.60992792810E+02  0.00000000000E+00 0. -1.
         11    1    1    2    0    0 -0.32883648870E+02 -0.13750290694E+02  0.77964698586E+01  0.36485473815E+02  0.00000000000E+00 0.  1.
</event>
<event>
 6    1  0.4988969E-006  0.1264572E+03  0.7561462E-02  0.1232809E+00
         -2   -1    0    0    0  501 -0.00000000000E+00  0.00000000000E+00  0.17929789462E+03  0.17929789462E+03  0.00000000000E+00 0.  1.
          2   -1    0    0  501    0  0.00000000000E+00 -0.00000000000E+00 -0.11922492193E+03  0.11922492193E+03  0.00000000000E+00 0. -1.
          5    1    1    2  502    0  0.22739846724E+02 -0.70436305056E+01 -0.15364741056E+02  0.28640199501E+02  0.41800000000E+01 0. -1.
         -5    1    1    2    0  502 -0.72642695332E+02  0.76884789340E+02  0.97294834925E+02  0.14377756890E+03  0.41800000000E+01 0.  1.
        -11    1    1    2    0    0  0.26993704682E+02 -0.89012172243E+02 -0.24288085001E+02  0.96133958480E+02  0.00000000000E+00 0. -1.
         11    1    1    2    0    0  0.22909143925E+02  0.19171013409E+02  0.24309638322E+01  0.29971089664E+02  0.00000000000E+00 0.  1.
</event>
<event>
 6    1  0.4988969E-006  0.8918541E+02  0.7561462E-02  0.1304836E+00
         -2   -1    0    0    0  501 -0.00000000000E+00  0.00000000000E+00  0.18620392282E+03  0.18620392282E+03  0.00000000000E+00 0.  1.
          2   -1    0    0  501    0  0.00000000000E+00 -0.00000000000E+00 -0.75714794381E+02  0.75714794381E+02  0.00000000000E+00 0. -1.
          5    1    1    2  502    0  0.16596971657E+02 -0.30416795923E+02  0.11214380941E+03  0.11744933943E+03  0.41800000000E+01 0. -1.
         -5    1    1    2    0  502  0.12224906325E+02  0.46420147555E+02 -0.77214395669E+01  0.48799297768E+02  0.41800000000E+01 0. -1.
        -11    1    1    2    0    0 -0.28355861826E+01 -0.51341940392E+02  0.24451061957E+00  0.51420766016E+02  0.00000000000E+00 0. -1.
         11    1    1    2    0    0 -0.25986291799E+02  0.35338588760E+02  0.58222479722E+01  0.44249313989E+02  0.00000000000E+00 0.  1.
</event>
<event>
 6    1  0.4988969E-006  0.2193759E+03  0.7561462E-02  0.1134349E+00
         -1   -1    0    0    0  501 -0.00000000000E+00  0.00000000000E+00  0.67710871454E+02  0.67710871454E+02  0.00000000000E+00 0.  1.
          1   -1    0    0  501    0  0.00000000000E+00 -0.00000000000E+00 -0.93979883468E+03  0.93979883468E+03  0.00000000000E+00 0. -1.
          5    1    1    2  502    0  0.65734791528E+02  0.78439521981E+02 -0.41538767895E+02  0.11052946695E+03  0.41800000000E+01 0. -1.
         -5    1    1    2    0  502  0.42838000376E+02  0.99869181491E+02 -0.22810714145E+03  0.25270395341E+03  0.41800000000E+01 0. -1.
        -11    1    1    2    0    0 -0.11863253747E+03 -0.12123532969E+03 -0.47149939119E+03  0.50108218887E+03  0.00000000000E+00 0.  1.
         11    1    1    2    0    0  0.10059745566E+02 -0.57073373783E+02 -0.13094266269E+03  0.14319409690E+03  0.00000000000E+00 0. -1.
</event>
<event>
 6    1  0.4988969E-006  0.1291351E+03  0.7561462E-02  0.1228745E+00
          4   -1    0    0  501    0  0.00000000000E+00  0.00000000000E+00  0.35483561541E+03  0.35483561541E+03  0.00000000000E+00 0.  1.
         -4   -1    0    0    0  501 -0.00000000000E+00 -0.00000000000E+00 -0.59986677788E+02  0.59986677788E+02  0.00000000000E+00 0. -1.
          5    1    1    2  502    0  0.35683952597E+02 -0.30889408654E+02  0.11667652817E+03  0.12593007848E+03  0.41800000000E+01 0. -1.
         -5    1    1    2    0  502  0.56140649065E+02  0.60923902231E+02  0.25810536067E+02  0.86874337480E+02  0.41800000000E+01 0. -1.
        -11    1    1    2    0    0 -0.29159205995E+02  0.29515547393E+02  0.26165547604E+02  0.49051633139E+02  0.00000000000E+00 0. -1.
         11    1    1    2    0    0 -0.62665395667E+02 -0.59550040971E+02  0.12619632578E+03  0.15296624410E+03  0.00000000000E+00 0.  1.
</event>
<event>
 6    1  0.4988969E-006  0.1113438E+03  0.7561462E-02  0.1258101E+00
         -4   -1    0    0    0  501 -0.00000000000E+00  0.00000000000E+00  0.16586505381E+03  0.16586505381E+03  0.00000000000E+00 0. -1.
          4   -1    0    0  501    0  0.00000000000E+00 -0.00000000000E+00 -0.83722250450E+02  0.83722250450E+02  0.00000000000E+00 0.  1.
          5    1    1    2  502    0 -0.32961956860E+02 -0.81085364955E+02  0.69653390600E+02  0.11193924348E+03  0.41800000000E+01 0. -1.
         -5    1    1    2    0  502  0.36184591250E+01  0.37025709081E+02 -0.62771198084E+01  0.37958806784E+02  0.41800000000E+01 0. -1.
        -11    1    1    2    0    0  0.52207155660E+02  0.51079764834E+01  0.13865387770E+02  0.54257971800E+02  0.00000000000E+00 0. -1.
         11    1    1    2    0    0 -0.22863657925E+02  0.38951679391E+02  0.49011447970E+01  0.45431282190E+02  0.00000000000E+00 0.  1.
</event>
<event>
 6    1  0.4988969E-006  0.1072117E+03  0.7561462E-02  0.1265822E+00
          1   -1    0    0  501    0  0.00000000000E+00  0.00000000000E+00  0.73451420519E+02  0.73451420519E+02  0.00000000000E+00 0. -1.
         -1   -1    0    0    0  501 -0.00000000000E+00 -0.00000000000E+00 -0.17699470162E+03  0.17699470162E+03  0.00000000000E+00 0.  1.
          5    1    1    2  502    0  0.10230537232E+02 -0.55235788044E+02 -0.59609360695E+02  0.82014660003E+02  0.41800000000E+01 0.  1.
         -5    1    1    2    0  502 -0.28478508889E+02  0.60528627630E+02 -0.32505736303E+02  0.74490506267E+02  0.41800000000E+01 0.  1.
        -11    1    1    2    0    0  0.52589687454E+02  0.99054463018E+01  0.32661121785E+01  0.53613996136E+02  0.00000000000E+00 0.  1.
         11    1    1    2    0    0 -0.34341715797E+02 -0.15198285888E+02 -0.14694296277E+02  0.40326959728E+02  0.00000000000E+00 0. -1.
</event>
<event>
 6    1  0.4988969E-006  0.1133076E+03  0.7561462E-02  0.1254564E+00
          1   -1    0    0  501    0  0.00000000000E+00  0.00000000000E+00  0.81177146103E+02  0.81177146103E+02  0.00000000000E+00 0. -1.
         -1   -1    0    0    0  501 -0.00000000000E+00 -0.00000000000E+00 -0.29252873993E+03  0.29252873993E+03  0.00000000000E+00 0.  1.
          5    1    1    2  502    0 -0.34056814032E+02 -0.25905663558E+02  0.15921461373E+02  0.45846868144E+02  0.41800000000E+01 0.  1.
         -5    1    1    2    0  502 -0.68964477448E+02 -0.96851822000E+01 -0.15751379305E+03  0.17227295001E+03  0.41800000000E+01 0.  1.
        -11    1    1    2    0    0  0.66886010436E+02  0.39222232084E+02 -0.86008142135E+02  0.11579949221E+03  0.00000000000E+00 0.  1.
         11    1    1    2    0    0  0.36135281044E+02 -0.36313863258E+01  0.16248879988E+02  0.39786575671E+02  0.00000000000E+00 0. -1.
</event>
<event>
 6    1  0.4988969E-006  0.1254757E+03  0.7561462E-02  0.1234328E+00
          2   -1    0    0  501    0  0.00000000000E+00  0.00000000000E+00  0.13072274434E+03  0.13072274434E+03  0.00000000000E+00 0. -1.
         -2   -1    0    0    0  501 -0.00000000000E+00 -0.00000000000E+00 -0.15201815106E+03  0.15201815106E+03  0.00000000000E+00 0.  1.
          5    1    1    2  502    0 -0.15163790509E+02 -0.10959383086E+03  0.72287263967E+01  0.11095258082E+03  0.41800000000E+01 0. -1.
         -5    1    1    2    0  502  0.50339608846E+01  0.21416886480E+02 -0.40063354631E+02  0.45897370000E+02  0.41800000000E+01 0. -1.
        -11    1    1    2    0    0  0.39911762344E+02  0.75646549931E+02 -0.11370749621E+02  0.86282346032E+02  0.00000000000E+00 0.  1.
         11    1    1    2    0    0 -0.29781932719E+02  0.12530394451E+02  0.22909971137E+02  0.39608598550E+02  0.00000000000E+00 0. -1.
</event>
<event>
 6    1  0.4988969E-006  0.1922814E+03  0.7561462E-02  0.1156420E+00
          2   -1    0    0  501    0  0.00000000000E+00  0.00000000000E+00  0.10424696194E+04  0.10424696194E+04  0.00000000000E+00 0.  1.
         -2   -1    0    0    0  501 -0.00000000000E+00 -0.00000000000E+00 -0.45622540563E+02  0.45622540563E+02  0.00000000000E+00 0. -1.
          5    1    1    2  502    0  0.14394873100E+02 -0.11193602324E+02 -0.34153559256E+01  0.19016996625E+02  0.41800000000E+01 0. -1.
         -5    1    1    2    0  502  0.16746735579E+03  0.32608901263E+02  0.41032999077E+03  0.44440615368E+03  0.41800000000E+01 0. -1.
        -11    1    1    2    0    0 -0.10446715044E+03 -0.45771042994E+02  0.43589235157E+03  0.45056688300E+03  0.00000000000E+00 0. -1.
         11    1    1    2    0    0 -0.77395078447E+02  0.24355744055E+02  0.15404009242E+03  0.17410212666E+03  0.00000000000E+00 0.  1.
</event>
<event>
 6    1  0.4988969E-006  0.8346141E+02  0.7561462E-02  0.1319506E+00
          1   -1    0    0  501    0  0.00000000000E+00  0.00000000000E+00  0.22388763897E+03  0.22388763897E+03  0.00000000000E+00 0. -1.
         -1   -1    0    0    0  501 -0.00000000000E+00 -0.00000000000E+00 -0.53788431390E+02  0.53788431390E+02  0.00000000000E+00 0.  1.
          5    1    1    2  502    0 -0.36148370486E+02  0.60129998978E+02  0.32479958032E+02  0.77425716268E+02  0.41800000000E+01 0. -1.
         -5    1    1    2    0  502  0.38825944206E+02 -0.23903822169E+02  0.56682368590E+02  0.72864325748E+02  0.41800000000E+01 0.  1.
        -11    1    1    2    0    0  0.14948652397E+02 -0.27232148679E+02 -0.11295231782E+02  0.33055020666E+02  0.00000000000E+00 0.  1.
         11    1    1    2    0    0 -0.17626226118E+02 -0.89940281302E+01  0.92232112737E+02  0.94331007676E+02  0.00000000000E+00 0. -1.
</event>
<event>
 6    1  0.4988969E-006  0.9190608E+02  0.7561462E-02  0.1298300E+00
          2   -1    0    0  501    0  0.00000000000E+00  0.00000000000E+00  0.58613901752E+03  0.58613901752E+03  0.00000000000E+00 0. -1.
         -2   -1    0    0    0  501 -0.00000000000E+00 -0.00000000000E+00 -0.30954802265E+02  0.30954802265E+02  0.00000000000E+00 0.  1.
          5    1    1    2  502    0  0.66882154897E+02 -0.92512991242E+01  0.24483724078E+02  0.71942576572E+02  0.41800000000E+01 0. -1.
         -5    1    1    2    0  502 -0.11550482088E+02  0.62673644238E+01  0.14599647221E+03  0.14664629484E+03  0.41800000000E+01 0. -1.
        -11    1    1    2    0    0 -0.12173116681E+02  0.42285004757E+02  0.13176641338E+03  0.13891937983E+03  0.00000000000E+00 0.  1.
         11    1    1    2    0    0 -0.43158556128E+02 -0.39301070057E+02  0.25293760560E+03  0.25958556855E+03  0.00000000000E+00 0. -1.
</event>
<event>
 6    1  0.4988969E-006  0.1295439E+03  0.7561462E-02  0.1228134E+00
          2   -1    0    0  501    0  0.00000000000E+00  0.00000000000E+00  0.23368616541E+03  0.23368616541E+03  0.00000000000E+00 0. -1.
         -2   -1    0    0    0  501 -0.00000000000E+00 -0.00000000000E+00 -0.91921176368E+02  0.91921176368E+02  0.00000000000E+00 0.  1.
          5    1    1    2  502    0  0.52664365227E+02 -0.92107407019E+00  0.47240763417E+02  0.70876977013E+02  0.41800000000E+01 0. -1.
         -5    1    1    2    0  502  0.77693478606E+01 -0.74411800685E+02 -0.21966833379E+02  0.78086445790E+02  0.41800000000E+01 0.  1.
        -11    1    1    2    0    0 -0.19563382476E+02 -0.19764165122E+02  0.36185310411E+02  0.45636880331E+02  0.00000000000E+00 0.  1.
         11    1    1    2    0    0 -0.40870330612E+02  0.95097039878E+02  0.80305748597E+02  0.13100703865E+03  0.00000000000E+00 0. -1.
</event>
<event>
 6    1  0.4988969E-006  0.8264084E+02  0.7561462E-02  0.1321720E+00
          2   -1    0    0  501    0  0.00000000000E+00  0.00000000000E+00  0.13227435368E+03  0.13227435368E+03  0.00000000000E+00 0. -1.
         -2   -1    0    0    0  501 -0.00000000000E+00 -0.00000000000E+00 -0.10440099142E+03  0.10440099142E+03  0.00000000000E+00 0.  1.
          5    1    1    2  502    0 -0.13282491902E+02 -0.27983111599E+02  0.36265918928E+02  0.47876595552E+02  0.41800000000E+01 0.  1.
         -5    1    1    2    0  502  0.14804135672E+02  0.77449126382E+02 -0.35677610101E+02  0.86648103688E+02  0.41800000000E+01 0.  1.
        -11    1    1    2    0    0  0.99436372191E+01 -0.36144980771E+02 -0.26276091111E+02  0.45779564438E+02  0.00000000000E+00 0.  1.
         11    1    1    2    0    0 -0.11465280988E+02 -0.13321034011E+02  0.53561144551E+02  0.56371081423E+02  0.00000000000E+00 0. -1.
</event>
<event>
 6    1  0.4988969E-006  0.1453115E+03  0.7561462E-02  0.1206355E+00
         -2   -1    0    0    0  501 -0.00000000000E+00  0.00000000000E+00  0.18024211046E+03  0.18024211046E+03  0.00000000000E+00 0. -1.
          2   -1    0    0  501    0  0.00000000000E+00 -0.00000000000E+00 -0.15926504867E+03  0.15926504867E+03  0.00000000000E+00 0.  1.
          5    1    1    2  502    0  0.27473312111E+01 -0.50654653031E+02  0.48925757210E+02  0.70602010035E+02  0.41800000000E+01 0.  1.
         -5    1    1    2    0  502  0.10925755035E+03  0.21454202631E+02  0.19852235534E+02  0.11317720077E+03  0.41800000000E+01 0.  1.
        -11    1    1    2    0    0 -0.80309222399E+02  0.45871968777E+02 -0.67830739860E+02  0.11469445493E+03  0.00000000000E+00 0.  1.
         11    1    1    2    0    0 -0.31695659163E+02 -0.16671518378E+02  0.20029808915E+02  0.41033493392E+02  0.00000000000E+00 0. -1.
</event>
<event>
 6    1  0.4988969E-006  0.1142949E+03  0.7561462E-02  0.1252817E+00
          2   -1    0    0  501    0  0.00000000000E+00  0.00000000000E+00  0.40843486146E+03  0.40843486146E+03  0.00000000000E+00 0.  1.
         -2   -1    0    0    0  501 -0.00000000000E+00 -0.00000000000E+00 -0.39549182125E+02  0.39549182125E+02  0.00000000000E+00 0. -1.
          5    1    1    2  502    0 -0.30157986249E+02  0.55788610994E+02  0.19542596204E+03  0.20550097881E+03  0.41800000000E+01 0.  1.
         -5    1    1    2    0  502 -0.36585147435E+02 -0.43861656202E+02  0.40994825076E+02  0.70429865686E+02  0.41800000000E+01 0.  1.
        -11    1    1    2    0    0  0.84741174063E+02  0.23771600319E+01  0.11643224660E+03  0.14402494756E+03  0.00000000000E+00 0.  1.
         11    1    1    2    0    0 -0.17998040378E+02 -0.14304114824E+02  0.16032645615E+02  0.28028251529E+02  0.00000000000E+00 0. -1.
</event>
<event>
 6    1  0.4988969E-006  0.1502719E+03  0.7561462E-02  0.1200139E+00
         -1   -1    0    0    0  501 -0.00000000000E+00  0.00000000000E+00  0.63810189015E+03  0.63810189015E+03  0.00000000000E+00 0.  1.
          1   -1    0    0  501    0  0.00000000000E+00 -0.00000000000E+00 -0.59512389836E+02  0.59512389836E+02  0.00000000000E+00 0. -1.
          5    1    1    2  502    0  0.33399448384E+02 -0.12170839193E+02  0.95901428741E+02  0.10236312282E+03  0.41800000000E+01 0. -1.
         -5    1    1    2    0  502 -0.11428677164E+03 -0.72731917614E+02  0.40367636319E+03  0.42582094431E+03  0.41800000000E+01 0. -1.
        -11    1    1    2    0    0  0.59111870128E+01  0.42848159319E+02 -0.11341000861E+02  0.44716050692E+02  0.00000000000E+00 0. -1.
         11    1    1    2    0    0  0.74976136248E+02  0.42054597488E+02  0.90352709238E+02  0.12471416216E+03  0.00000000000E+00 0.  1.
</event>
<event>
 6    1  0.4988969E-006  0.8288160E+02  0.7561462E-02  0.1321067E+00
         -2   -1    0    0    0  501 -0.00000000000E+00  0.00000000000E+00  0.35362993505E+02  0.35362993505E+02  0.00000000000E+00 0.  1.
          2   -1    0    0  501    0  0.00000000000E+00 -0.00000000000E+00 -0.37775453238E+03  0.37775453238E+03  0.00000000000E+00 0. -1.
          5    1    1    2  502    0  0.33954292101E+01  0.44875329126E+02 -0.83794357199E+01  0.45967504246E+02  0.41800000000E+01 0.  1.
         -5    1    1    2    0  502  0.28169330787E+02 -0.19164737956E+02 -0.18345074204E+03  0.18663452396E+03  0.41800000000E+01 0.  1.
        -11    1    1    2    0    0 -0.48410564215E+02 -0.41038422203E+02 -0.14311180450E+03  0.15655262186E+03  0.00000000000E+00 0. -1.
         11    1    1    2    0    0  0.16845804218E+02  0.15327831034E+02 -0.74495566196E+01  0.23962875825E+02  0.00000000000E+00 0.  1.
</event>
<event>
 6    1  0.4988969E-006  0.8449548E+02  0.7561462E-02  0.1316757E+00
          2   -1    0    0  501    0  0.00000000000E+00  0.00000000000E+00  0.31174234969E+03  0.31174234969E+03  0.00000000000E+00 0.  1.
         -2   -1    0    0    0  501 -0.00000000000E+00 -0.00000000000E+00 -0.22498264518E+03  0.22498264518E+03  0.00000000000E+00 0. -1.
          5    1    1    2  502    0  0.12207582299E+02  0.57052835828E+02 -0.17337831801E+02  0.61009212035E+02  0.41800000000E+01 0. -1.
         -5    1    1    2    0  502 -0.10906161272E+02  0.49670093572E+00 -0.17585326225E+03  0.17624140634E+03  0.41800000000E+01 0. -1.
        -11    1    1    2    0    0 -0.22960809639E+01 -0.78149334664E+02  0.25695052758E+03  0.26858176431E+03  0.00000000000E+00 0.  1.
         11    1    1    2    0    0  0.99465993732E+00  0.20599797900E+02  0.23000270988E+02  0.30892612182E+02  0.00000000000E+00 0. -1.
</event>
<event>
 6    1  0.4988969E-006  0.1211239E+03  0.7561462E-02  0.1241254E+00
         -2   -1    0    0    0  501 -0.00000000000E+00  0.00000000000E+00  0.44892391308E+03  0.44892391308E+03  0.00000000000E+00 0.  1.
          2   -1    0    0  501    0  0.00000000000E+00 -0.00000000000E+00 -0.51154116450E+02  0.51154116450E+02  0.00000000000E+00 0. -1.
          5    1    1    2  502    0  0.20564973472E+02 -0.91080817266E+02  0.30310718628E+03  0.31719090811E+03  0.41800000000E+01 0.  1.
         -5    1    1    2    0  502  0.24280603819E+02  0.22438738240E+02  0.20031468114E+02  0.38881574176E+02  0.41800000000E+01 0.  1.
        -11    1    1    2    0    0 -0.11779085783E+02 -0.18679711577E+02  0.37502815174E+02  0.43521714493E+02  0.00000000000E+00 0.  1.
         11    1    1    2    0    0 -0.33066491508E+02  0.87321790602E+02  0.37128327055E+02  0.10048383275E+03  0.00000000000E+00 0. -1.
</event>
<event>
 6    1  0.4988969E-006  0.8293531E+02  0.7561462E-02  0.1320922E+00
         -1   -1    0    0    0  501 -0.00000000000E+00  0.00000000000E+00  0.15156430339E+03  0.15156430339E+03  0.00000000000E+00 0.  1.
          1   -1    0    0  501    0  0.00000000000E+00 -0.00000000000E+00 -0.84173048420E+02  0.84173048420E+02  0.00000000000E+00 0. -1.
          5    1    1    2  502    0 -0.37443499773E+01  0.37070988298E+02  0.52313695910E+02  0.64362050231E+02  0.41800000000E+01 0.  1.
         -5    1    1    2    0  502 -0.16506658928E+02 -0.53822556463E+02 -0.32264787206E+02  0.65021736878E+02  0.41800000000E+01 0.  1.
        -11    1    1    2    0    0  0.37564378395E+02  0.31622239280E+02  0.62105764250E+02  0.79171803658E+02  0.00000000000E+00 0.  1.
         11    1    1    2    0    0 -0.17313369490E+02 -0.14870671114E+02 -0.14763417989E+02  0.27181761039E+02  0.00000000000E+00 0. -1.
</event>
<event>
 6    1  0.4988969E-006  0.1124992E+03  0.7561462E-02  0.1256011E+00
          2   -1    0    0  501    0  0.00000000000E+00  0.00000000000E+00  0.61009103636E+03  0.61009103636E+03  0.00000000000E+00 0. -1.
         -2   -1    0    0    0  501 -0.00000000000E+00 -0.00000000000E+00 -0.31565296658E+02  0.31565296658E+02  0.00000000000E+00 0.  1.
          5    1    1    2  502    0  0.57467303830E+02  0.26262527145E+02  0.35012322320E+02  0.72357076059E+02  0.41800000000E+01 0.  1.
         -5    1    1    2    0  502  0.22957145949E+02 -0.35583132434E+02  0.21111058389E+03  0.21535631148E+03  0.41800000000E+01 0.  1.
        -11    1    1    2    0    0 -0.77209023559E+02 -0.27652673850E+02  0.19338212638E+03  0.21005368479E+03  0.00000000000E+00 0.  1.
         11    1    1    2    0    0 -0.32154262199E+01  0.36973279140E+02  0.13902070711E+03  0.14388926069E+03  0.00000000000E+00 0. -1.
</event>
<event>
 6    1  0.4988969E-006  0.8906609E+02  0.7561462E-02  0.1305129E+00
         -2   -1    0    0    0  501 -0.00000000000E+00  0.00000000000E+00  0.54239766444E+02  0.54239766444E+02  0.00000000000E+00 0.  1.
          2   -1    0    0  501    0  0.00000000000E+00 -0.00000000000E+00 -0.21528204430E+03  0.21528204430E+03  0.00000000000E+00 0. -1.
          5    1    1    2  502    0 -0.65337041341E+02 -0.28977102162E+02 -0.41400783990E+02  0.82704889432E+02  0.41800000000E+01 0.  1.
         -5    1    1    2    0  502  0.35507878263E+02  0.45123688161E+02 -0.44801838755E+02  0.72949529181E+02  0.41800000000E+01 0.  1.
        -11    1    1    2    0    0  0.11400207032E+02  0.11204199809E+02 -0.79022597989E+02  0.80623010404E+02  0.00000000000E+00 0. -1.
         11    1    1    2    0    0  0.18428956046E+02 -0.27350785807E+02  0.41829428787E+01  0.33244381726E+02  0.00000000000E+00 0.  1.
</event>
<event>
 6    1  0.4988969E-006  0.1109685E+03  0.7561462E-02  0.1258787E+00
          1   -1    0    0  501    0  0.00000000000E+00  0.00000000000E+00  0.49786467217E+03  0.49786467217E+03  0.00000000000E+00 0. -1.
         -1   -1    0    0    0  501 -0.00000000000E+00 -0.00000000000E+00 -0.39816885429E+02  0.39816885429E+02  0.00000000000E+00 0.  1.
          5    1    1    2  502    0 -0.32859321474E+02 -0.51535888879E+01  0.14407140105E+03  0.14792003071E+03  0.41800000000E+01 0. -1.
         -5    1    1    2    0  502 -0.10705435397E+02  0.68902881920E+02  0.20625636112E+02  0.72836136285E+02  0.41800000000E+01 0. -1.
        -11    1    1    2    0    0  0.57481133504E+02 -0.44544149354E+01  0.11872880890E+03  0.13198656213E+03  0.00000000000E+00 0.  1.
         11    1    1    2    0    0 -0.13916376633E+02 -0.59294878097E+02  0.17462194068E+03  0.18493882846E+03  0.00000000000E+00 0. -1.
</event>
<event>
 6    1  0.4988969E-006  0.2470277E+03  0.7561462E-02  0.1115198E+00
         -2   -1    0    0    0  501 -0.00000000000E+00  0.00000000000E+00  0.84062654320E+02  0.84062654320E+02  0.00000000000E+00 0.  1.
          2   -1    0    0  501    0  0.00000000000E+00 -0.00000000000E+00 -0.86421189531E+03  0.86421189531E+03  0.00000000000E+00 0. -1.
          5    1    1    2  502    0  0.11571277079E+02  0.55226951219E+01 -0.78742220511E+02  0.79888699486E+02  0.41800000000E+01 0. -1.
         -5    1    1    2    0  502  0.13565216451E+03 -0.19653219811E+03 -0.23374317300E+03  0.33418521505E+03  0.41800000000E+01 0. -1.
        -11    1    1    2    0    0 -0.68371147387E+02  0.75309103729E+02 -0.29415203797E+03  0.31124186149E+03  0.00000000000E+00 0.  1.
         11    1    1    2    0    0 -0.78852294205E+02  0.11570039926E+03 -0.17351180950E+03  0.22295877361E+03  0.00000000000E+00 0. -1.
</event>
<event>
 6    1  0.4988969E-006  0.1333336E+03  0.7561462E-02  0.1222591E+00
         -1   -1    0    0    0  501 -0.00000000000E+00  0.00000000000E+00  0.48218208166E+02  0.48218208166E+02  0.00000000000E+00 0.  1.
          1   -1    0    0  501    0  0.00000000000E+00 -0.00000000000E+00 -0.78567791351E+03  0.78567791351E+03  0.00000000000E+00 0. -1.
          5    1    1    2  502    0 -0.22680912333E+02  0.22402293671E+02 -0.17213524927E+03  0.17511225825E+03  0.41800000000E+01 0. -1.
         -5    1    1    2    0  502  0.80541845670E+01  0.92787619535E+02 -0.21446743982E+02  0.95665288665E+02  0.41800000000E+01 0.  1.
        -11    1    1    2    0    0  0.29028624992E+02 -0.41605785926E+01 -0.64709494876E+02  0.71044283445E+02  0.00000000000E+00 0.  1.
         11    1    1    2    0    0 -0.14401897226E+02 -0.11102933461E+03 -0.47916821721E+03  0.49207429132E+03  0.00000000000E+00 0. -1.
</event>
<event>
 6    1  0.4988969E-006  0.1013896E+03  0.7561462E-02  0.1277401E+00
          2   -1    0    0  501    0  0.00000000000E+00  0.00000000000E+00  0.31566055078E+03  0.31566055078E+03  0.00000000000E+00 0. -1.
         -2   -1    0    0    0  501 -0.00000000000E+00 -0.00000000000E+00 -0.52493984969E+02  0.52493984969E+02  0.00000000000E+00 0.  1.
          5    1    1    2  502    0  0.34794560496E+02  0.20984012271E+02 -0.14800007342E+02  0.43445400544E+02  0.41800000000E+01 0. -1.
         -5    1    1    2    0  502  0.17410733533E+02 -0.53757469961E+02  0.11511200208E+03  0.12830138207E+03  0.41800000000E+01 0. -1.
        -11    1    1    2    0    0  0.23834037230E+02  0.10438385931E+02  0.19180074987E+02  0.32324858979E+02  0.00000000000E+00 0.  1.
         11    1    1    2    0    0 -0.76039331258E+02  0.22335071759E+02  0.14367449609E+03  0.16408289416E+03  0.00000000000E+00 0. -1.
</event>
<event>
 6    1  0.4988969E-006  0.1746932E+03  0.7561462E-02  0.1173040E+00
         -1   -1    0    0    0  501 -0.00000000000E+00  0.00000000000E+00  0.15881090244E+03  0.15881090244E+03  0.00000000000E+00 0.  1.
          1   -1    0    0  501    0  0.00000000000E+00 -0.00000000000E+00 -0.28460899121E+03  0.28460899121E+03  0.00000000000E+00 0. -1.
          5    1    1    2  502    0  0.46052190940E+01  0.38227818852E+02  0.51746731537E+02  0.64635677469E+02  0.41800000000E+01 0.  1.
         -5    1    1    2    0  502  0.13253588864E+03  0.31227804682E+02 -0.14587145752E+02  0.13700800992E+03  0.41800000000E+01 0.  1.
        -11    1    1    2    0    0 -0.32072265527E+02 -0.61124860049E+02 -0.90732528802E+02  0.11400557230E+03  0.00000000000E+00 0.  1.
         11    1    1    2    0    0 -0.10506884220E+03 -0.83307634846E+01 -0.72225145750E+02  0.12777063395E+03  0.00000000000E+00 0. -1.
</event>
<event>
 6    1  0.4988969E-006  0.4964940E+02  0.7561462E-02  0.1447242E+00
         -2   -1    0    0    0  501 -0.00000000000E+00  0.00000000000E+00  0.12190360786E+03  0.12190360786E+03  0.00000000000E+00 0.  1.
          2   -1    0    0  501    0  0.00000000000E+00 -0.00000000000E+00 -0.68946440537E+02  0.68946440537E+02  0.00000000000E+00 0. -1.
          5    1    1    2  502    0  0.48309826041E+01 -0.30481129792E+02 -0.30617113705E+02  0.43672848750E+02  0.41800000000E+01 0.  1.
         -5    1    1    2    0  502  0.46562921355E+01  0.29427394330E+02  0.90452381231E+02  0.95324489319E+02  0.41800000000E+01 0.  1.
        -11    1    1    2    0    0  0.17890484535E+00 -0.17313612018E+02  0.14109454048E+02  0.22335394816E+02  0.00000000000E+00 0.  1.
         11    1    1    2    0    0 -0.96661795849E+01  0.18367347481E+02 -0.20987554254E+02  0.29517315508E+02  0.00000000000E+00 0. -1.
</event>
<event>
 6    1  0.4988969E-006  0.8909525E+02  0.7561462E-02  0.1305058E+00
          2   -1    0    0  501    0  0.00000000000E+00  0.00000000000E+00  0.65530965444E+03  0.65530965444E+03  0.00000000000E+00 0. -1.
         -2   -1    0    0    0  501 -0.00000000000E+00 -0.00000000000E+00 -0.20034638295E+02  0.20034638295E+02  0.00000000000E+00 0.  1.
          5    1    1    2  502    0 -0.16153708634E+02  0.57080226859E+02  0.31150895297E+03  0.31713466348E+03  0.41800000000E+01 0.  1.
         -5    1    1    2    0  502  0.51703741631E+01 -0.26282659796E+02  0.91553165801E+01  0.28614737403E+02  0.41800000000E+01 0.  1.
        -11    1    1    2    0    0  0.48599601179E+02 -0.19095234590E+02  0.23548529215E+03  0.24120504148E+03  0.00000000000E+00 0. -1.
         11    1    1    2    0    0 -0.37616266708E+02 -0.11702332473E+02  0.79125454442E+02  0.88389850362E+02  0.00000000000E+00 0.  1.
</event>
<event>
 6    1  0.4988969E-006  0.8334018E+02  0.7561462E-02  0.1319831E+00
         -2   -1    0    0    0  501 -0.00000000000E+00  0.00000000000E+00  0.15938792486E+03  0.15938792486E+03  0.00000000000E+00 0.  1.
          2   -1    0    0  501    0  0.00000000000E+00 -0.00000000000E+00 -0.11386908502E+03  0.11386908502E+03  0.00000000000E+00 0. -1.
          5    1    1    2  502    0 -0.33501979308E+02  0.46624514735E+02 -0.18712717582E+02  0.60529878500E+02  0.41800000000E+01 0. -1.
         -5    1    1    2    0  502  0.36589723943E+02  0.20188439213E+02  0.87621151792E+02  0.97166453148E+02  0.41800000000E+01 0. -1.
        -11    1    1    2    0    0  0.93383702871E-01 -0.50338773399E+02  0.30677457808E+02  0.58950040250E+02  0.00000000000E+00 0.  1.
         11    1    1    2    0    0 -0.31811283381E+01 -0.16474180550E+02 -0.54067052171E+02  0.56610637982E+02  0.00000000000E+00 0. -1.
</event>
<event>
 6    1  0.4988969E-006  0.1133257E+03  0.7561462E-02  0.1254532E+00
          1   -1    0    0  501    0  0.00000000000E+00  0.00000000000E+00  0.10898736779E+03  0.10898736779E+03  0.00000000000E+00 0. -1.
         -1   -1    0    0    0  501 -0.00000000000E+00 -0.00000000000E+00 -0.14712606813E+03  0.14712606813E+03  0.00000000000E+00 0.  1.
          5    1    1    2  502    0 -0.24037227920E+02  0.39227079363E+02  0.12701846790E+02  0.47909930007E+02  0.41800000000E+01 0. -1.
         -5    1    1    2    0  502 -0.15975761721E+02 -0.86448352289E+02 -0.28676448155E+02  0.92565402040E+02  0.41800000000E+01 0. -1.
        -11    1    1    2    0    0 -0.97579474264E+01  0.41165838994E+02  0.23002864129E+02  0.48155743128E+02  0.00000000000E+00 0. -1.
         11    1    1    2    0    0  0.49770937068E+02  0.60554339323E+01 -0.45166963100E+02  0.67482360750E+02  0.00000000000E+00 0.  1.
</event>
<event>
 6    1  0.4988969E-006  0.8476737E+02  0.7561462E-02  0.1316042E+00
          1   -1    0    0  501    0  0.00000000000E+00  0.00000000000E+00  0.90437856978E+02  0.90437856978E+02  0.00000000000E+00 0. -1.
         -1   -1    0    0    0  501 -0.00000000000E+00 -0.00000000000E+00 -0.16967706090E+03  0.16967706090E+03  0.00000000000E+00 0.  1.
          5    1    1    2  502    0 -0.20505560979E+02 -0.37689137857E+02 -0.10346095387E+03  0.11208296266E+03  0.41800000000E+01 0.  1.
         -5    1    1    2    0  502 -0.16412451373E+02  0.43646992391E+02  0.10760952708E+02  0.48038515881E+02  0.41800000000E+01 0.  1.
        -11    1    1    2    0    0 -0.97501232526E+01 -0.26783907906E+02 -0.23485569895E+02  0.36932568547E+02  0.00000000000E+00 0.  1.
         11    1    1    2    0    0  0.46668135605E+02  0.20826053372E+02  0.36946367135E+02  0.63060870787E+02  0.00000000000E+00 0. -1.
</event>
<event>
 6    1  0.4988969E-006  0.8419483E+02  0.7561462E-02  0.1317552E+00
          2   -1    0    0  501    0  0.00000000000E+00  0.00000000000E+00  0.52186647859E+02  0.52186647859E+02  0.00000000000E+00 0. -1.
         -2   -1    0    0    0  501 -0.00000000000E+00 -0.00000000000E+00 -0.33742861118E+03  0.33742861118E+03  0.00000000000E+00 0.  1.
          5    1    1    2  502    0  0.35164333114E+02 -0.36134151473E+02 -0.21608017184E+03  0.22192413183E+03  0.41800000000E+01 0.  1.
         -5    1    1    2    0  502  0.24403678580E+02  0.37383622163E+02 -0.14611025377E+02  0.47159614045E+02  0.41800000000E+01 0.  1.
        -11    1    1    2    0    0 -0.23724239648E+01 -0.14131215247E+02  0.20676575598E+02  0.25156319649E+02  0.00000000000E+00 0. -1.
         11    1    1    2    0    0 -0.57195587729E+02  0.12881744558E+02 -0.75227341702E+02  0.95375193515E+02  0.00000000000E+00 0.  1.
</event>
<event>
 6    1  0.4988969E-006  0.1078245E+03  0.7561462E-02  0.1264653E+00
          1   -1    0    0  501    0  0.00000000000E+00  0.00000000000E+00  0.72958906700E+03  0.72958906700E+03  0.00000000000E+00 0. -1.
         -1   -1    0    0    0  501 -0.00000000000E+00 -0.00000000000E+00 -0.18569211282E+02  0.18569211282E+02  0.00000000000E+00 0.  1.
          5    1    1    2  502    0 -0.43239789188E+02  0.53842048828E+02  0.22687716179E+03  0.23719056586E+03  0.41800000000E+01 0.  1.
         -5    1    1    2    0  502  0.90788522517E+01 -0.53484217489E+02  0.89649417504E+02  0.10486885876E+03  0.41800000000E+01 0.  1.
        -11    1    1    2    0    0  0.23321101349E+01 -0.40646075873E+02  0.11663282362E+03  0.12353443960E+03  0.00000000000E+00 0.  1.
         11    1    1    2    0    0  0.31828826801E+02  0.40288244534E+02  0.27786045281E+03  0.28256441407E+03  0.00000000000E+00 0. -1.
</event>
<event>
 6    1  0.4988969E-006  0.2457709E+03  0.7561462E-02  0.1116007E+00
          2   -1    0    0  501    0  0.00000000000E+00  0.00000000000E+00  0.81484000643E+03  0.81484000643E+03  0.00000000000E+00 0. -1.
         -2   -1    0    0    0  501 -0.00000000000E+00 -0.00000000000E+00 -0.90217677126E+02  0.90217677126E+02  0.00000000000E+00 0.  1.
          5    1    1    2  502    0  0.13612791402E+02  0.45432346041E+02  0.84548883455E+01  0.48356630294E+02  0.41800000000E+01 0.  1.
         -5    1    1    2    0  502 -0.13386855501E+03  0.15748060275E+03  0.23464241456E+03  0.31272266527E+03  0.41800000000E+01 0.  1.
        -11    1    1    2    0    0  0.98771310111E+02 -0.14515203793E+03  0.25769787192E+03  0.31182219134E+03  0.00000000000E+00 0.  1.
         11    1    1    2    0    0  0.21484453497E+02 -0.57760910862E+02  0.22382715448E+03  0.23215619666E+03  0.00000000000E+00 0. -1.
</event>
<event>
 6    1  0.4988969E-006  0.8792774E+02  0.7561462E-02  0.1307949E+00
          2   -1    0    0  501    0  0.00000000000E+00  0.00000000000E+00  0.96783679995E+03  0.96783679995E+03  0.00000000000E+00 0. -1.
         -2   -1    0    0    0  501 -0.00000000000E+00 -0.00000000000E+00 -0.19044130403E+02  0.19044130403E+02  0.00000000000E+00 0.  1.
          5    1    1    2  502    0  0.75693177687E+01 -0.83986716159E+01  0.41848666852E+03  0.41866023980E+03  0.41800000000E+01 0.  1.
         -5    1    1    2    0  502  0.15024552779E+02 -0.69987729796E+02  0.11666154485E+03  0.13693578040E+03  0.41800000000E+01 0.  1.
        -11    1    1    2    0    0  0.12845239505E+02  0.18827996336E+02  0.16498049901E+02  0.28136795740E+02  0.00000000000E+00 0.  1.
         11    1    1    2    0    0 -0.35439110052E+02  0.59558405076E+02  0.39714640628E+03  0.40314811441E+03  0.00000000000E+00 0. -1.
</event>
<event>
 6    1  0.4988969E-006  0.1534028E+03  0.7561462E-02  0.1196353E+00
          2   -1    0    0  501    0  0.00000000000E+00  0.00000000000E+00  0.17326273931E+02  0.17326273931E+02  0.00000000000E+00 0. -1.
         -2   -1    0    0    0  501 -0.00000000000E+00 -0.00000000000E+00 -0.18427839260E+04  0.18427839260E+04  0.00000000000E+00 0.  1.
          5    1    1    2  502    0  0.11784759331E+03  0.23669443885E+02 -0.68582812623E+03  0.69629446999E+03  0.41800000000E+01 0. -1.
         -5    1    1    2    0  502 -0.80275513478E+02  0.13588186184E+02 -0.84906124980E+03  0.85296616298E+03  0.41800000000E+01 0.  1.
        -11    1    1    2    0    0 -0.13039158239E+02  0.30378865910E+02 -0.51570723807E+02  0.61257119550E+02  0.00000000000E+00 0.  1.
         11    1    1    2    0    0 -0.24532921589E+02 -0.67636495979E+02 -0.23899755220E+03  0.24959244738E+03  0.00000000000E+00 0. -1.
</event>
<event>
 6    1  0.4988969E-006  0.1071288E+03  0.7561462E-02  0.1265981E+00
          1   -1    0    0  501    0  0.00000000000E+00  0.00000000000E+00  0.27400268204E+03  0.27400268204E+03  0.00000000000E+00 0. -1.
         -1   -1    0    0    0  501 -0.00000000000E+00 -0.00000000000E+00 -0.65033061264E+02  0.65033061264E+02  0.00000000000E+00 0.  1.
          5    1    1    2  502    0 -0.81755051320E+01  0.38454922264E+01  0.10860963415E+03  0.10906489685E+03  0.41800000000E+01 0.  1.
         -5    1    1    2    0  502  0.85903258604E+02 -0.20422231796E+01  0.24479898371E+02  0.89444275046E+02  0.41800000000E+01 0.  1.
        -11    1    1    2    0    0 -0.14030224783E+02 -0.41100588869E+02  0.28517687698E+02  0.51955405151E+02  0.00000000000E+00 0. -1.
         11    1    1    2    0    0 -0.63697528689E+02  0.39297319822E+02  0.47362400565E+02  0.88571166265E+02  0.00000000000E+00 0.  1.
</event>
<event>
 6    1  0.4988969E-006  0.8286149E+02  0.7561462E-02  0.1321122E+00
         -1   -1    0    0    0  501 -0.00000000000E+00  0.00000000000E+00  0.53461275289E+02  0.53461275289E+02  0.00000000000E+00 0. -1.
          1   -1    0    0  501    0  0.00000000000E+00 -0.00000000000E+00 -0.26759014880E+03  0.26759014880E+03  0.00000000000E+00 0.  1.
          5    1    1    2  502    0  0.30753546814E+02 -0.37578881797E+02  0.20307654528E+02  0.52799869613E+02  0.41800000000E+01 0. -1.
         -5    1    1    2    0  502  0.61963517726E+00  0.19801244642E+02 -0.95303645644E+02  0.97430644616E+02  0.41800000000E+01 0. -1.
        -11    1    1    2    0    0 -0.20565197485E+02  0.54609086064E+02 -0.10142540882E+03  0.11701364528E+03  0.00000000000E+00 0.  1.
         11    1    1    2    0    0 -0.10807984506E+02 -0.36831448909E+02 -0.37707473581E+02  0.53807264581E+02  0.00000000000E+00 0. -1.
</event>
<event>
 6    1  0.4988969E-006  0.1078886E+03  0.7561462E-02  0.1264531E+00
         -1   -1    0    0    0  501 -0.00000000000E+00  0.00000000000E+00  0.34282695388E+02  0.34282695388E+02  0.00000000000E+00 0.  1.
          1   -1    0    0  501    0  0.00000000000E+00 -0.00000000000E+00 -0.42165244307E+03  0.42165244307E+03  0.00000000000E+00 0. -1.
          5    1    1    2  502    0 -0.47192654863E+02  0.17369488033E+02 -0.83101560386E+02  0.97222361245E+02  0.41800000000E+01 0.  1.
         -5    1    1    2    0  502  0.69626960925E+02 -0.11361901494E+02 -0.47796003506E+02  0.85316685615E+02  0.41800000000E+01 0.  1.
        -11    1    1    2    0    0  0.28678478179E+02  0.22198009084E+02 -0.10271630325E+03  0.10893046255E+03  0.00000000000E+00 0. -1.
         11    1    1    2    0    0 -0.51112784241E+02 -0.28205595623E+02 -0.15375588054E+03  0.16446562905E+03  0.00000000000E+00 0.  1.
</event>
<event>
 6    1  0.4988969E-006  0.1225875E+03  0.7561462E-02  0.1238889E+00
         -1   -1    0    0    0  501 -0.00000000000E+00  0.00000000000E+00  0.81565993059E+02  0.81565993059E+02  0.00000000000E+00 0.  1.
          1   -1    0    0  501    0  0.00000000000E+00 -0.00000000000E+00 -0.23725039580E+03  0.23725039580E+03  0.00000000000E+00 0. -1.
          5    1    1    2  502    0 -0.21683012655E+01  0.26376349796E+02 -0.54828295298E+02  0.61024812365E+02  0.41800000000E+01 0. -1.
         -5    1    1    2    0  502 -0.49431831262E+01 -0.11129664191E+03 -0.44624812663E+02  0.12008423654E+03  0.41800000000E+01 0. -1.
        -11    1    1    2    0    0  0.35691333528E+02  0.39533945615E+02  0.81829150258E+01  0.53886586858E+02  0.00000000000E+00 0.  1.
         11    1    1    2    0    0 -0.28579849136E+02  0.45386346496E+02 -0.64414209806E+02  0.83820753098E+02  0.00000000000E+00 0. -1.
</event>
<event>
 6    1  0.4988969E-006  0.1168638E+03  0.7561462E-02  0.1248362E+00
         -4   -1    0    0    0  501 -0.00000000000E+00  0.00000000000E+00  0.12215330414E+04  0.12215330414E+04  0.00000000000E+00 0.  1.
          4   -1    0    0  501    0  0.00000000000E+00 -0.00000000000E+00 -0.30611580095E+02  0.30611580095E+02  0.00000000000E+00 0. -1.
          5    1    1    2  502    0 -0.33277013863E+02  0.16967608766E+02  0.72631795023E+02  0.81780862353E+02  0.41800000000E+01 0. -1.
         -5    1    1    2    0  502  0.90870025547E+01  0.60443747096E+02  0.95455495247E+03  0.95651902744E+03  0.41800000000E+01 0.  1.
        -11    1    1    2    0    0 -0.55859493821E+01  0.26345234912E+02  0.17625618214E+02  0.32185969777E+02  0.00000000000E+00 0.  1.
         11    1    1    2    0    0  0.29775960690E+02 -0.10375659077E+03  0.14610909557E+03  0.18165876189E+03  0.00000000000E+00 0. -1.
</event>
<event>
 6    1  0.4988969E-006  0.1315407E+03  0.7561462E-02  0.1225187E+00
         -1   -1    0    0    0  501 -0.00000000000E+00  0.00000000000E+00  0.55173044864E+02  0.55173044864E+02  0.00000000000E+00 0.  1.
          1   -1    0    0  501    0  0.00000000000E+00 -0.00000000000E+00 -0.36768600050E+03  0.36768600050E+03  0.00000000000E+00 0. -1.
          5    1    1    2  502    0 -0.85128290228E+01 -0.11333847922E+03 -0.74037635080E+02  0.13570970097E+03  0.41800000000E+01 0. -1.
         -5    1    1    2    0  502  0.23306911891E+01  0.33879588051E+02 -0.29641072056E+02  0.45269461678E+02  0.41800000000E+01 0. -1.
        -11    1    1    2    0    0  0.40296464708E+02  0.16540394456E+02 -0.12085515946E+03  0.12846540112E+03  0.00000000000E+00 0. -1.
         11    1    1    2    0    0 -0.34114326874E+02  0.62918496712E+02 -0.87979089034E+02  0.11341448159E+03  0.00000000000E+00 0.  1.
</event>
<event>
 6    1  0.4988969E-006  0.1348905E+03  0.7561462E-02  0.1220374E+00
          2   -1    0    0  501    0  0.00000000000E+00  0.00000000000E+00  0.11673000357E+04  0.11673000357E+04  0.00000000000E+00 0.  1.
         -2   -1    0    0    0  501 -0.00000000000E+00 -0.00000000000E+00 -0.16141795939E+02  0.16141795939E+02  0.00000000000E+00 0. -1.
          5    1    1    2  502    0  0.19817242621E+02  0.31453048364E+02  0.13079648167E+03  0.13604120469E+03  0.41800000000E+01 0.  1.
         -5    1    1    2    0  502 -0.10027501503E+03 -0.50768265217E+02  0.42770014257E+03  0.44224131393E+03  0.41800000000E+01 0.  1.
        -11    1    1    2    0    0 -0.12391013225E+02  0.23917192780E+02  0.88872040645E+02  0.92864465366E+02  0.00000000000E+00 0.  1.
         11    1    1    2    0    0  0.92848785639E+02 -0.46019759265E+01  0.50378957489E+03  0.51229484767E+03  0.00000000000E+00 0. -1.
</event>
<event>
 6    1  0.4988969E-006  0.1468110E+03  0.7561462E-02  0.1204447E+00
          1   -1    0    0  501    0  0.00000000000E+00  0.00000000000E+00  0.34263637084E+03  0.34263637084E+03  0.00000000000E+00 0. -1.
         -1   -1    0    0    0  501 -0.00000000000E+00 -0.00000000000E+00 -0.75390969504E+02  0.75390969504E+02  0.00000000000E+00 0.  1.
          5    1    1    2  502    0  0.17030659098E+02  0.33306509454E+02  0.52388953095E+02  0.64509237538E+02  0.41800000000E+01 0.  1.
         -5    1    1    2    0  502 -0.12305841620E+03  0.10549705761E+02  0.47164495021E+02  0.13227483540E+03  0.41800000000E+01 0.  1.
        -11    1    1    2    0    0  0.53814659331E+02 -0.57172999471E+02  0.53600709385E+02  0.95067373341E+02  0.00000000000E+00 0.  1.
         11    1    1    2    0    0  0.52213097775E+02  0.13316784256E+02  0.11409124384E+03  0.12617589406E+03  0.00000000000E+00 0. -1.
</event>
<event>
 6    1  0.4988969E-006  0.6279278E+02  0.7561462E-02  0.1386472E+00
          1   -1    0    0  501    0  0.00000000000E+00  0.00000000000E+00  0.69148035268E+02  0.69148035268E+02  0.00000000000E+00 0. -1.
         -1   -1    0    0    0  501 -0.00000000000E+00 -0.00000000000E+00 -0.18906289122E+03  0.18906289122E+03  0.00000000000E+00 0.  1.
          5    1    1    2  502    0  0.84178302976E+01  0.40344183143E+01 -0.12773936414E+03  0.12814817186E+03  0.41800000000E+01 0. -1.
         -5    1    1    2    0  502  0.17652747247E+02 -0.13689475280E+02  0.26682154753E+02  0.35048980029E+02  0.41800000000E+01 0. -1.
        -11    1    1    2    0    0 -0.19000108461E+02 -0.39043963155E+02 -0.13715377793E+02  0.45536213813E+02  0.00000000000E+00 0.  1.
         11    1    1    2    0    0 -0.70704690839E+01  0.48699020121E+02 -0.51422687701E+01  0.49477560791E+02  0.00000000000E+00 0. -1.
</event>
<event>
 6    1  0.4988969E-006  0.1066314E+03  0.7561462E-02  0.1266938E+00
         -2   -1    0    0    0  501 -0.00000000000E+00  0.00000000000E+00  0.27839357534E+02  0.27839357534E+02  0.00000000000E+00 0.  1.
          2   -1    0    0  501    0  0.00000000000E+00 -0.00000000000E+00 -0.61156574384E+03  0.61156574384E+03  0.00000000000E+00 0. -1.
          5    1    1    2  502    0 -0.37769723297E+01  0.31008145641E+02 -0.19544335043E+03  0.19796804349E+03  0.41800000000E+01 0. -1.
         -5    1    1    2    0  502 -0.62441510834E+02 -0.33681459994E+02 -0.55586814546E+02  0.90226101401E+02  0.41800000000E+01 0. -1.
        -11    1    1    2    0    0  0.68227145082E+02 -0.32412154899E+02 -0.25467205635E+03  0.26563762421E+03  0.00000000000E+00 0. -1.
         11    1    1    2    0    0 -0.20086619177E+01  0.35085469252E+02 -0.78024164980E+02  0.85573332272E+02  0.00000000000E+00 0.  1.
</event>
<event>
 6    1  0.4988969E-006  0.1337257E+03  0.7561462E-02  0.1222030E+00
          1   -1    0    0  501    0  0.00000000000E+00  0.00000000000E+00  0.19197447988E+03  0.19197447988E+03  0.00000000000E+00 0. -1.
         -1   -1    0    0    0  501 -0.00000000000E+00 -0.00000000000E+00 -0.13271227902E+03  0.13271227902E+03  0.00000000000E+00 0.  1.
          5    1    1    2  502    0  0.29480213156E+01  0.17483321373E+02  0.18102057600E+02  0.25681009428E+02  0.41800000000E+01 0. -1.
         -5    1    1    2    0  502 -0.80495272877E+02 -0.89860048761E+02 -0.51059296986E+02  0.13106807974E+03  0.41800000000E+01 0.  1.
        -11    1    1    2    0    0  0.27478580162E+02 -0.12334522861E+02 -0.39116854956E+01  0.30372917300E+02  0.00000000000E+00 0.  1.
         11    1    1    2    0    0  0.50068671400E+02  0.84711250249E+02  0.96131125736E+02  0.13756475243E+03  0.00000000000E+00 0. -1.
</event>
<event>
 6    1  0.4988969E-006  0.9949799E+02  0.7561462E-02  0.1281355E+00
          1   -1    0    0  501    0  0.00000000000E+00  0.00000000000E+00  0.58779461128E+02  0.58779461128E+02  0.00000000000E+00 0. -1.
         -1   -1    0    0    0  501 -0.00000000000E+00 -0.00000000000E+00 -0.21319723471E+03  0.21319723471E+03  0.00000000000E+00 0.  1.
          5    1    1    2  502    0 -0.43142964335E+02 -0.44216760068E+02 -0.78205173203E+02  0.99749479990E+02  0.41800000000E+01 0. -1.
         -5    1    1    2    0  502  0.46639722877E+02  0.39529412739E+02 -0.45986884355E+02  0.76616604951E+02  0.41800000000E+01 0. -1.
        -11    1    1    2    0    0  0.29331268576E+02  0.23833353042E+02 -0.41343362667E+02  0.56014513031E+02  0.00000000000E+00 0.  1.
         11    1    1    2    0    0 -0.32828027118E+02 -0.19146005713E+02  0.11117646645E+02  0.39596097865E+02  0.00000000000E+00 0. -1.
</event>
<event>
 6    1  0.4988969E-006  0.9501402E+02  0.7561462E-02  0.1291145E+00
         -1   -1    0    0    0  501 -0.00000000000E+00  0.00000000000E+00  0.91639645726E+02  0.91639645726E+02  0.00000000000E+00 0.  1.
          1   -1    0    0  501    0  0.00000000000E+00 -0.00000000000E+00 -0.20525521040E+03  0.20525521040E+03  0.00000000000E+00 0. -1.
          5    1    1    2  502    0  0.99214621759E+00 -0.12165922615E+01  0.46384211382E+02  0.46598625692E+02  0.41800000000E+01 0.  1.
         -5    1    1    2    0  502 -0.39878391578E+02 -0.62277476663E+02 -0.68031888739E+02  0.10057127075E+03  0.41800000000E+01 0.  1.
        -11    1    1    2    0    0 -0.19322498047E+02  0.47269387825E+02 -0.17850705221E+02  0.54096225682E+02  0.00000000000E+00 0.  1.
         11    1    1    2    0    0  0.58208743407E+02  0.16224681099E+02 -0.74117182099E+02  0.95628734009E+02  0.00000000000E+00 0. -1.
</event>
<event>
 6    1  0.4988969E-006  0.1150370E+03  0.7561462E-02  0.1251517E+00
         -1   -1    0    0    0  501 -0.00000000000E+00  0.00000000000E+00  0.81605945291E+02  0.81605945291E+02  0.00000000000E+00 0.  1.
          1   -1    0    0  501    0  0.00000000000E+00 -0.00000000000E+00 -0.27729428732E+03  0.27729428732E+03  0.00000000000E+00 0. -1.
          5    1    1    2  502    0 -0.58891275230E+02 -0.41586827790E+02 -0.26307086612E+02  0.76858192470E+02  0.41800000000E+01 0. -1.
         -5    1    1    2    0  502 -0.13445800779E+02  0.71380619537E+02  0.14087673796E+01  0.72769770026E+02  0.41800000000E+01 0. -1.
        -11    1    1    2    0    0  0.36443215453E+02 -0.32869524621E+02 -0.16579037615E+03  0.17290159752E+03  0.00000000000E+00 0. -1.
         11    1    1    2    0    0  0.35893860555E+02  0.30757328740E+01 -0.49996466444E+01  0.36370672592E+02  0.00000000000E+00 0.  1.
</event>
<event>
 6    1  0.4988969E-006  0.1056428E+03  0.7561462E-02  0.1268858E+00
         -2   -1    0    0    0  501 -0.00000000000E+00  0.00000000000E+00  0.10176799282E+03  0.10176799282E+03  0.00000000000E+00 0. -1.
          2   -1    0    0  501    0  0.00000000000E+00 -0.00000000000E+00 -0.13893915689E+03  0.13893915689E+03  0.00000000000E+00 0.  1.
          5    1    1    2  502    0 -0.18651564217E+02  0.77225645568E+02 -0.47079093098E+02  0.92442385236E+02  0.41800000000E+01 0. -1.
         -5    1    1    2    0  502  0.80219944486E+01 -0.28977990240E+02  0.30548254070E+02  0.43066745175E+02  0.41800000000E+01 0. -1.
        -11    1    1    2    0    0  0.46397859343E+02 -0.46306167756E+02 -0.22561391808E+02  0.69325600784E+02  0.00000000000E+00 0.  1.
         11    1    1    2    0    0 -0.35768289574E+02 -0.19414875726E+01  0.19210667629E+01  0.35872418522E+02  0.00000000000E+00 0. -1.
</event>
<event>
 6    1  0.4988969E-006  0.1169239E+03  0.7561462E-02  0.1248260E+00
         -1   -1    0    0    0  501 -0.00000000000E+00  0.00000000000E+00  0.14965326585E+03  0.14965326585E+03  0.00000000000E+00 0.  1.
          1   -1    0    0  501    0  0.00000000000E+00 -0.00000000000E+00 -0.12529178506E+03  0.12529178506E+03  0.00000000000E+00 0. -1.
          5    1    1    2  502    0  0.40693969284E+02  0.35805795668E+01  0.41051527116E+02  0.58064791094E+02  0.41800000000E+01 0.  1.
         -5    1    1    2    0  502 -0.69138576619E+02 -0.64786520386E+02  0.21627064955E+02  0.97276093359E+02  0.41800000000E+01 0.  1.
        -11    1    1    2    0    0  0.14721831920E+02 -0.14700641143E+02  0.15160560736E+02  0.25742645298E+02  0.00000000000E+00 0.  1.
         11    1    1    2    0    0  0.13722775414E+02  0.75906581962E+02 -0.53477672017E+02  0.93861521160E+02  0.00000000000E+00 0. -1.
</event>
<event>
 6    1  0.4988969E-006  0.7865548E+02  0.7561462E-02  0.1332911E+00
          1   -1    0    0  501    0  0.00000000000E+00  0.00000000000E+00  0.22193562188E+03  0.22193562188E+03  0.00000000000E+00 0. -1.
         -1   -1    0    0    0  501 -0.00000000000E+00 -0.00000000000E+00 -0.58350172932E+02  0.58350172932E+02  0.00000000000E+00 0.  1.
          5    1    1    2  502    0 -0.38293389214E+02 -0.27741156347E+02  0.86391354861E+02  0.98574307036E+02  0.41800000000E+01 0. -1.
         -5    1    1    2    0  502  0.26023026260E+02  0.12746799421E+02 -0.28284169877E+02  0.40708051499E+02  0.41800000000E+01 0. -1.
        -11    1    1    2    0    0 -0.25709726104E+02  0.30192254184E+02  0.87991655651E+02  0.96514733037E+02  0.00000000000E+00 0.  1.
         11    1    1    2    0    0  0.37980089058E+02 -0.15197897258E+02  0.17486608317E+02  0.44488703244E+02  0.00000000000E+00 0. -1.
</event>
<event>
 6    1  0.4988969E-006  0.1456484E+03  0.7561462E-02  0.1205925E+00
          1   -1    0    0  501    0  0.00000000000E+00  0.00000000000E+00  0.23049532094E+03  0.23049532094E+03  0.00000000000E+00 0. -1.
         -1   -1    0    0    0  501 -0.00000000000E+00 -0.00000000000E+00 -0.14175072043E+03  0.14175072043E+03  0.00000000000E+00 0.  1.
          5    1    1    2  502    0  0.13118653177E+02  0.13128745690E+03  0.36924510217E+02  0.13707438585E+03  0.41800000000E+01 0.  1.
         -5    1    1    2    0  502  0.22339485288E+02 -0.55605542180E+01  0.68251319759E+02  0.72150449860E+02  0.41800000000E+01 0.  1.
        -11    1    1    2    0    0 -0.39786338466E+02 -0.74290452683E+02  0.33983957016E+02  0.90867669844E+02  0.00000000000E+00 0. -1.
         11    1    1    2    0    0  0.43282000014E+01 -0.51436450001E+02 -0.50415186480E+02  0.72153535823E+02  0.00000000000E+00 0.  1.
</event>
<event>
 6    1  0.4988969E-006  0.1118174E+03  0.7561462E-02  0.1257241E+00
          3   -1    0    0  501    0  0.00000000000E+00  0.00000000000E+00  0.48949455402E+02  0.48949455402E+02  0.00000000000E+00 0. -1.
         -3   -1    0    0    0  501 -0.00000000000E+00 -0.00000000000E+00 -0.62412227715E+03  0.62412227715E+03  0.00000000000E+00 0.  1.
          5    1    1    2  502    0 -0.12655175201E+02 -0.88911252071E+02 -0.24857348452E+03  0.26433239266E+03  0.41800000000E+01 0. -1.
         -5    1    1    2    0  502  0.64294770133E+01  0.30034655935E+02 -0.29335971750E+03  0.29499290667E+03  0.41800000000E+01 0. -1.
        -11    1    1    2    0    0 -0.38675782940E+02  0.33429146171E+02 -0.35250512722E+02  0.62096075938E+02  0.00000000000E+00 0.  1.
         11    1    1    2    0    0  0.44901481128E+02  0.25447449965E+02  0.20108929937E+01  0.51650357287E+02  0.00000000000E+00 0. -1.
</event>
<event>
 6    1  0.4988969E-006  0.1384695E+03  0.7561462E-02  0.1215403E+00
         -3   -1    0    0    0  501 -0.00000000000E+00  0.00000000000E+00  0.75025121646E+02  0.75025121646E+02  0.00000000000E+00 0.  1.
          3   -1    0    0  501    0  0.00000000000E+00 -0.00000000000E+00 -0.30785938475E+03  0.30785938475E+03  0.00000000000E+00 0. -1.
          5    1    1    2  502    0 -0.83824125781E+02 -0.84235726595E+02 -0.39338898834E+02  0.12524840542E+03  0.41800000000E+01 0. -1.
         -5    1    1    2    0  502 -0.84306527873E+00  0.34922463110E+02 -0.36853220784E+02  0.50950186171E+02  0.41800000000E+01 0. -1.
        -11    1    1    2    0    0  0.12352499606E+02  0.48998725955E+02 -0.10884283410E+03  0.12000092469E+03  0.00000000000E+00 0. -1.
         11    1    1    2    0    0  0.72314691453E+02  0.31453753055E+00 -0.47799309386E+02  0.86684990117E+02  0.00000000000E+00 0.  1.
</event>
<event>
 6    1  0.4988969E-006  0.1438410E+03  0.7561462E-02  0.1208252E+00
          1   -1    0    0  501    0  0.00000000000E+00  0.00000000000E+00  0.77304709086E+02  0.77304709086E+02  0.00000000000E+00 0. -1.
         -1   -1    0    0    0  501 -0.00000000000E+00 -0.00000000000E+00 -0.52603489459E+03  0.52603489459E+03  0.00000000000E+00 0.  1.
          5    1    1    2  502    0  0.54774963646E+02 -0.17576644345E+02 -0.17826381356E+03  0.18736246875E+03  0.41800000000E+01 0. -1.
         -5    1    1    2    0  502 -0.13540812362E+03  0.14186582693E+02 -0.25383700720E+03  0.28807519452E+03  0.41800000000E+01 0.  1.
        -11    1    1    2    0    0  0.35523218630E+02  0.25329385689E+02 -0.50984000045E+02  0.67103242111E+02  0.00000000000E+00 0.  1.
         11    1    1    2    0    0  0.45109941346E+02 -0.21939324037E+02  0.34354635309E+02  0.60798698298E+02  0.00000000000E+00 0. -1.
</event>
<event>
 6    1  0.4988969E-006  0.9032243E+02  0.7561462E-02  0.1302073E+00
          2   -1    0    0  501    0  0.00000000000E+00  0.00000000000E+00  0.10448007907E+04  0.10448007907E+04  0.00000000000E+00 0. -1.
         -2   -1    0    0    0  501 -0.00000000000E+00 -0.00000000000E+00 -0.12132307192E+02  0.12132307192E+02  0.00000000000E+00 0.  1.
          5    1    1    2  502    0 -0.40579482823E+02 -0.33400184496E+02  0.55968892850E+03  0.56216673313E+03  0.41800000000E+01 0. -1.
         -5    1    1    2    0  502  0.13693582064E+02  0.32068181338E+02  0.49491835805E+02  0.60686049924E+02  0.41800000000E+01 0.  1.
        -11    1    1    2    0    0 -0.70599935177E+01  0.40419961422E+02  0.13937728132E+03  0.14529158041E+03  0.00000000000E+00 0. -1.
         11    1    1    2    0    0  0.33945894277E+02 -0.39087958264E+02  0.28411043789E+03  0.28878873444E+03  0.00000000000E+00 0.  1.
</event>
<event>
 6    1  0.4988969E-006  0.1320166E+03  0.7561462E-02  0.1224494E+00
         -2   -1    0    0    0  501 -0.00000000000E+00  0.00000000000E+00  0.32556649103E+03  0.32556649103E+03  0.00000000000E+00 0.  1.
          2   -1    0    0  501    0  0.00000000000E+00 -0.00000000000E+00 -0.70170141186E+02  0.70170141186E+02  0.00000000000E+00 0. -1.
          5    1    1    2  502    0 -0.42309284215E+02 -0.27311428274E+00  0.37265745781E+02  0.56536345220E+02  0.41800000000E+01 0. -1.
         -5    1    1    2    0  502  0.57148635963E+02  0.97379597211E+02  0.18502965250E+03  0.21679990140E+03  0.41800000000E+01 0. -1.
        -11    1    1    2    0    0  0.13063059096E+02 -0.83822715462E+01  0.24490205544E+02  0.28994415959E+02  0.00000000000E+00 0.  1.
         11    1    1    2    0    0 -0.27902410844E+02 -0.88724211382E+02  0.86107460235E+01  0.93405969634E+02  0.00000000000E+00 0. -1.
</event>
<event>
 6    1  0.4988969E-006  0.2294038E+03  0.7561462E-02  0.1127060E+00
          1   -1    0    0  501    0  0.00000000000E+00  0.00000000000E+00  0.13629483238E+04  0.13629483238E+04  0.00000000000E+00 0. -1.
         -1   -1    0    0    0  501 -0.00000000000E+00 -0.00000000000E+00 -0.39557947166E+02  0.39557947166E+02  0.00000000000E+00 0.  1.
          5    1    1    2  502    0  0.11751447487E+03  0.20602308819E+02  0.37834618091E+03  0.39673342681E+03  0.41800000000E+01 0. -1.
         -5    1    1    2    0  502  0.74661116004E+02 -0.91561026323E+02  0.27613808150E+03  0.30037878793E+03  0.41800000000E+01 0. -1.
        -11    1    1    2    0    0 -0.15727730261E+03  0.90253969987E+02  0.50066784212E+03  0.53249433532E+03  0.00000000000E+00 0. -1.
         11    1    1    2    0    0 -0.34898288264E+02 -0.19295252483E+02  0.16823827209E+03  0.17289972091E+03  0.00000000000E+00 0.  1.
</event>
<event>
 6    1  0.4988969E-006  0.1049165E+03  0.7561462E-02  0.1270284E+00
         -2   -1    0    0    0  501 -0.00000000000E+00  0.00000000000E+00  0.52236415937E+02  0.52236415937E+02  0.00000000000E+00 0.  1.
          2   -1    0    0  501    0  0.00000000000E+00 -0.00000000000E+00 -0.53998246405E+03  0.53998246405E+03  0.00000000000E+00 0. -1.
          5    1    1    2  502    0 -0.80441795209E+00  0.82488427956E+01 -0.68839957682E+02  0.69462958974E+02  0.41800000000E+01 0. -1.
         -5    1    1    2    0  502 -0.37749364713E+02 -0.77289764419E+02  0.62228461048E+00  0.86119578832E+02  0.41800000000E+01 0.  1.
        -11    1    1    2    0    0  0.48238265455E+02  0.37016099142E+01 -0.11049158076E+03  0.12061932510E+03  0.00000000000E+00 0.  1.
         11    1    1    2    0    0 -0.96844827900E+01  0.65339311709E+02 -0.30903679429E+03  0.31601701708E+03  0.00000000000E+00 0. -1.
</event>
<event>
 6    1  0.4988969E-006  0.1126589E+03  0.7561462E-02  0.1255724E+00
          1   -1    0    0  501    0  0.00000000000E+00  0.00000000000E+00  0.95311022263E+02  0.95311022263E+02  0.00000000000E+00 0. -1.
         -1   -1    0    0    0  501 -0.00000000000E+00 -0.00000000000E+00 -0.30282297314E+03  0.30282297314E+03  0.00000000000E+00 0.  1.
          5    1    1    2  502    0 -0.18467688303E+01  0.82198914587E+01 -0.16773174040E+03  0.16799519727E+03  0.41800000000E+01 0.  1.
         -5    1    1    2    0  502 -0.74996296981E+02  0.41213941046E+02 -0.49941865790E+02  0.99170035071E+02  0.41800000000E+01 0.  1.
        -11    1    1    2    0    0  0.65928830671E+02 -0.76537451710E+02  0.11797861184E+02  0.10170438416E+03  0.00000000000E+00 0. -1.
         11    1    1    2    0    0  0.10914235140E+02  0.27103619205E+02 -0.16362058709E+01  0.29264378899E+02  0.00000000000E+00 0.  1.
</event>
<event>
 6    1  0.4988969E-006  0.1084625E+03  0.7561462E-02  0.1263444E+00
          3   -1    0    0  501    0  0.00000000000E+00  0.00000000000E+00  0.38075126727E+02  0.38075126727E+02  0.00000000000E+00 0. -1.
         -3   -1    0    0    0  501 -0.00000000000E+00 -0.00000000000E+00 -0.46203426562E+03  0.46203426562E+03  0.00000000000E+00 0.  1.
          5    1    1    2  502    0 -0.34366647988E+02  0.64283419864E+02 -0.24112239250E+03  0.25193432701E+03  0.41800000000E+01 0.  1.
         -5    1    1    2    0  502  0.47815151791E+02  0.13083831533E+02 -0.33812509663E+02  0.60151754738E+02  0.41800000000E+01 0.  1.
        -11    1    1    2    0    0 -0.33227479017E+02 -0.55427708606E+02 -0.42181407784E+02  0.77172322797E+02  0.00000000000E+00 0. -1.
         11    1    1    2    0    0  0.19778975214E+02 -0.21939542790E+02 -0.10684282895E+03  0.11085098780E+03  0.00000000000E+00 0.  1.
</event>
<event>
 6    1  0.4988969E-006  0.2211208E+03  0.7561462E-02  0.1133050E+00
         -1   -1    0    0    0  501 -0.00000000000E+00  0.00000000000E+00  0.13265847627E+03  0.13265847627E+03  0.00000000000E+00 0.  1.
          1   -1    0    0  501    0  0.00000000000E+00 -0.00000000000E+00 -0.38880681351E+03  0.38880681351E+03  0.00000000000E+00 0. -1.
          5    1    1    2  502    0 -0.27389013508E+02  0.67559552237E+01 -0.70506077588E+00  0.28526663013E+02  0.41800000000E+01 0.  1.
         -5    1    1    2    0  502 -0.60470655150E+01 -0.20235529490E+03 -0.11815870942E+03  0.23444228584E+03  0.41800000000E+01 0.  1.
        -11    1    1    2    0    0  0.48167811273E+02  0.71178132699E+02 -0.90364856644E+02  0.12470874842E+03  0.00000000000E+00 0. -1.
         11    1    1    2    0    0 -0.14731732249E+02  0.12442120698E+03 -0.46919710404E+02  0.13378759250E+03  0.00000000000E+00 0.  1.
</event>
<event>
 6    1  0.4988969E-006  0.6896206E+02  0.7561462E-02  0.1363659E+00
         -3   -1    0    0    0  501 -0.00000000000E+00  0.00000000000E+00  0.18065537197E+03  0.18065537197E+03  0.00000000000E+00 0.  1.
          3   -1    0    0  501    0  0.00000000000E+00 -0.00000000000E+00 -0.84568847706E+02  0.84568847706E+02  0.00000000000E+00 0. -1.
          5    1    1    2  502    0 -0.17278881933E+02 -0.28592375136E+01 -0.22846392476E+02  0.29088916260E+02  0.41800000000E+01 0. -1.
         -5    1    1    2    0  502  0.28931132772E+02  0.11437185339E+01  0.13892235092E+03  0.14196904776E+03  0.41800000000E+01 0. -1.
        -11    1    1    2    0    0  0.14929555433E+02  0.40772547089E+02 -0.15402490269E+01  0.43447262154E+02  0.00000000000E+00 0. -1.
         11    1    1    2    0    0 -0.26581806272E+02 -0.39057028110E+02 -0.18449185153E+02  0.50718993506E+02  0.00000000000E+00 0.  1.
</event>
<event>
 6    1  0.4988969E-006  0.8470798E+02  0.7561462E-02  0.1316198E+00
          2   -1    0    0  501    0  0.00000000000E+00  0.00000000000E+00  0.43165516974E+03  0.43165516974E+03  0.00000000000E+00 0. -1.
         -2   -1    0    0    0  501 -0.00000000000E+00 -0.00000000000E+00 -0.49703727811E+02  0.49703727811E+02  0.00000000000E+00 0.  1.
          5    1    1    2  502    0  0.19917113606E+02  0.54345417067E+01 -0.18506938377E+02  0.28039344251E+02  0.41800000000E+01 0. -1.
         -5    1    1    2    0  502  0.15312517959E+02  0.56362710301E+02  0.17510685850E+03  0.18463778761E+03  0.41800000000E+01 0. -1.
        -11    1    1    2    0    0  0.12525024617E+02 -0.29767780371E+02 -0.37149559303E+01  0.32508427944E+02  0.00000000000E+00 0.  1.
         11    1    1    2    0    0 -0.47754656182E+02 -0.32029471637E+02  0.22906647773E+03  0.23617333774E+03  0.00000000000E+00 0. -1.
</event>
<event>
 6    1  0.4988969E-006  0.1134869E+03  0.7561462E-02  0.1254246E+00
          2   -1    0    0  501    0  0.00000000000E+00  0.00000000000E+00  0.37370740450E+02  0.37370740450E+02  0.00000000000E+00 0. -1.
         -2   -1    0    0    0  501 -0.00000000000E+00 -0.00000000000E+00 -0.37796297292E+03  0.37796297292E+03  0.00000000000E+00 0.  1.
          5    1    1    2  502    0 -0.10256437494E+02  0.47816954861E+02 -0.98970871103E+02  0.11047335158E+03  0.41800000000E+01 0.  1.
         -5    1    1    2    0  502  0.49486773437E+01 -0.79862713814E+02 -0.15362363718E+03  0.17326348942E+03  0.41800000000E+01 0.  1.
        -11    1    1    2    0    0  0.24687022269E+02  0.59352240227E+02 -0.55287438676E+02  0.84787017661E+02  0.00000000000E+00 0.  1.
         11    1    1    2    0    0 -0.19379262120E+02 -0.27306481275E+02 -0.32710285512E+02  0.46809854712E+02  0.00000000000E+00 0. -1.
</event>
<event>
 6    1  0.4988969E-006  0.4086081E+03  0.7561462E-02  0.1040839E+00
          2   -1    0    0  501    0  0.00000000000E+00  0.00000000000E+00  0.76214191394E+03  0.76214191394E+03  0.00000000000E+00 0. -1.
         -2   -1    0    0    0  501 -0.00000000000E+00 -0.00000000000E+00 -0.30808378023E+03  0.30808378023E+03  0.00000000000E+00 0.  1.
          5    1    1    2  502    0 -0.35942477691E+01  0.38606367276E+03  0.19799260861E+03  0.43390854279E+03  0.41800000000E+01 0. -1.
         -5    1    1    2    0  502 -0.82883879398E+02 -0.11239215557E+03 -0.10078540954E+03  0.17226986177E+03  0.41800000000E+01 0.  1.
        -11    1    1    2    0    0  0.16967296958E+02 -0.12329588253E+02  0.75357704571E+01  0.22286672002E+02  0.00000000000E+00 0.  1.
         11    1    1    2    0    0  0.69510830209E+02 -0.26134192894E+03  0.34931516419E+03  0.44176061761E+03  0.00000000000E+00 0. -1.
</event>
<event>
 6    1  0.4988969E-006  0.1149968E+03  0.7561462E-02  0.1251587E+00
          1   -1    0    0  501    0  0.00000000000E+00  0.00000000000E+00  0.20723292150E+02  0.20723292150E+02  0.00000000000E+00 0. -1.
         -1   -1    0    0    0  501 -0.00000000000E+00 -0.00000000000E+00 -0.77462594664E+03  0.77462594664E+03  0.00000000000E+00 0.  1.
          5    1    1    2  502    0  0.27827265444E+02 -0.28700945441E+02 -0.94681860741E+02  0.10286023588E+03  0.41800000000E+01 0. -1.
         -5    1    1    2    0  502 -0.84349744818E+02  0.32856925171E+02 -0.43459386660E+03  0.44394116532E+03  0.41800000000E+01 0. -1.
        -11    1    1    2    0    0  0.62475533141E+02  0.26563815385E+02 -0.19055619921E+03  0.20228814494E+03  0.00000000000E+00 0.  1.
         11    1    1    2    0    0 -0.59530537660E+01 -0.30719795115E+02 -0.34070727945E+02  0.46259692646E+02  0.00000000000E+00 0. -1.
</event>
<event>
 6    1  0.4988969E-006  0.8335244E+02  0.7561462E-02  0.1319798E+00
         -1   -1    0    0    0  501 -0.00000000000E+00  0.00000000000E+00  0.13237987057E+03  0.13237987057E+03  0.00000000000E+00 0.  1.
          1   -1    0    0  501    0  0.00000000000E+00 -0.00000000000E+00 -0.10177050472E+03  0.10177050472E+03  0.00000000000E+00 0. -1.
          5    1    1    2  502    0  0.66771362147E+02  0.85544139264E+00 -0.28860467170E+01  0.66969756224E+02  0.41800000000E+01 0.  1.
         -5    1    1    2    0  502 -0.45464573079E+02  0.33490989290E+02  0.40979990242E+02  0.69896393105E+02  0.41800000000E+01 0.  1.
        -11    1    1    2    0    0 -0.16710294342E+02 -0.12548826290E+02  0.39834669845E+02  0.44983418055E+02  0.00000000000E+00 0.  1.
         11    1    1    2    0    0 -0.45964947271E+01 -0.21797604393E+02 -0.47319247529E+02  0.52300807907E+02  0.00000000000E+00 0. -1.
</event>
<event>
 6    1  0.4988969E-006  0.2431501E+03  0.7561462E-02  0.1117712E+00
          1   -1    0    0  501    0  0.00000000000E+00  0.00000000000E+00  0.81306296244E+02  0.81306296244E+02  0.00000000000E+00 0. -1.
         -1   -1    0    0    0  501 -0.00000000000E+00 -0.00000000000E+00 -0.77165573418E+03  0.77165573418E+03  0.00000000000E+00 0.  1.
          5    1    1    2  502    0  0.18106978241E+03  0.66256801336E+02 -0.31004906065E+03  0.36513575864E+03  0.41800000000E+01 0. -1.
         -5    1    1    2    0  502 -0.10494877216E+03  0.63328354634E+02 -0.20421507122E+03  0.23821417462E+03  0.41800000000E+01 0.  1.
        -11    1    1    2    0    0 -0.23900524464E+02  0.67230134073E+01 -0.53563567877E+02  0.59038036745E+02  0.00000000000E+00 0.  1.
         11    1    1    2    0    0 -0.52220485787E+02 -0.13630816938E+03 -0.12252173819E+03  0.19057406042E+03  0.00000000000E+00 0. -1.
</event>
<event>
 6    1  0.4988969E-006  0.1173367E+03  0.7561462E-02  0.1247556E+00
         -1   -1    0    0    0  501 -0.00000000000E+00  0.00000000000E+00  0.39863543712E+03  0.39863543712E+03  0.00000000000E+00 0.  1.
          1   -1    0    0  501    0  0.00000000000E+00 -0.00000000000E+00 -0.37931577468E+02  0.37931577468E+02  0.00000000000E+00 0. -1.
          5    1    1    2  502    0 -0.59724720616E+02  0.55962942862E+02  0.83921448303E+02  0.11729951028E+03  0.41800000000E+01 0.  1.
         -5    1    1    2    0  502  0.44145391002E+02 -0.22695478837E+01  0.12397982203E+03  0.13169067949E+03  0.41800000000E+01 0.  1.
        -11    1    1    2    0    0  0.23516591371E+01 -0.79386236754E+02  0.10396154832E+03  0.13082701715E+03  0.00000000000E+00 0.  1.
         11    1    1    2    0    0  0.13227670477E+02  0.25692841775E+02  0.48841041001E+02  0.56749807672E+02  0.00000000000E+00 0. -1.
</event>
<event>
 6    1  0.4988969E-006  0.7055473E+02  0.7561462E-02  0.1358217E+00
          1   -1    0    0  501    0  0.00000000000E+00  0.00000000000E+00  0.65307717640E+02  0.65307717640E+02  0.00000000000E+00 0. -1.
         -1   -1    0    0    0  501 -0.00000000000E+00 -0.00000000000E+00 -0.17992788566E+03  0.17992788566E+03  0.00000000000E+00 0.  1.
          5    1    1    2  502    0  0.46664466913E+01 -0.21113538347E+02 -0.10281460281E+03  0.10514690760E+03  0.41800000000E+01 0.  1.
         -5    1    1    2    0  502 -0.65168651461E+01  0.26850289128E+02  0.28958456421E+02  0.40242665864E+02  0.41800000000E+01 0.  1.
        -11    1    1    2    0    0  0.93232217816E+00  0.42693106102E+02 -0.19553166163E+02  0.46966976060E+02  0.00000000000E+00 0. -1.
         11    1    1    2    0    0  0.91809627663E+00 -0.48429856883E+02 -0.21210855462E+02  0.52879053773E+02  0.00000000000E+00 0.  1.
</event>
<event>
 6    1  0.4988969E-006  0.9235582E+02  0.7561462E-02  0.1297245E+00
          2   -1    0    0  501    0  0.00000000000E+00  0.00000000000E+00  0.92186106751E+02  0.92186106751E+02  0.00000000000E+00 0. -1.
         -2   -1    0    0    0  501 -0.00000000000E+00 -0.00000000000E+00 -0.15362361118E+03  0.15362361118E+03  0.00000000000E+00 0.  1.
          5    1    1    2  502    0  0.31237754249E+01 -0.50486100081E+02  0.22651585873E+02  0.55580311414E+02  0.41800000000E+01 0. -1.
         -5    1    1    2    0  502 -0.29074861348E+02  0.18111801116E+02 -0.82019477206E+02  0.88983436342E+02  0.41800000000E+01 0. -1.
        -11    1    1    2    0    0 -0.33485185497E+02  0.44532371141E+01  0.82485535130E+01  0.34772512184E+02  0.00000000000E+00 0.  1.
         11    1    1    2    0    0  0.59436271420E+02  0.27921061851E+02 -0.10318166610E+02  0.66473457992E+02  0.00000000000E+00 0. -1.
</event>
<event>
 6    1  0.4988969E-006  0.8120642E+02  0.7561462E-02  0.1325662E+00
         -2   -1    0    0    0  501 -0.00000000000E+00  0.00000000000E+00  0.82682848014E+02  0.82682848014E+02  0.00000000000E+00 0. -1.
          2   -1    0    0  501    0  0.00000000000E+00 -0.00000000000E+00 -0.20920518306E+03  0.20920518306E+03  0.00000000000E+00 0.  1.
          5    1    1    2  502    0  0.21111506751E+02 -0.69768896721E+02 -0.72864421807E+02  0.10315081692E+03  0.41800000000E+01 0.  1.
         -5    1    1    2    0  502  0.14173723662E+02  0.10933095532E+02  0.39322621177E+02  0.43407003543E+02  0.41800000000E+01 0.  1.
        -11    1    1    2    0    0 -0.36049368262E+02  0.47371480677E+02 -0.10983654836E+03  0.12493070675E+03  0.00000000000E+00 0.  1.
         11    1    1    2    0    0  0.76413784807E+00  0.11464320512E+02  0.16856013944E+02  0.20399503855E+02  0.00000000000E+00 0. -1.
</event>
<event>
 6    1  0.4988969E-006  0.9708842E+02  0.7561462E-02  0.1286541E+00
          2   -1    0    0  501    0  0.00000000000E+00  0.00000000000E+00  0.54125039173E+03  0.54125039173E+03  0.00000000000E+00 0. -1.
         -2   -1    0    0    0  501 -0.00000000000E+00 -0.00000000000E+00 -0.37761797105E+02  0.37761797105E+02  0.00000000000E+00 0.  1.
          5    1    1    2  502    0 -0.39100622071E+01 -0.24858893868E+02  0.17151992001E+03  0.17340648359E+03  0.41800000000E+01 0.  1.
         -5    1    1    2    0  502  0.40300060765E+02 -0.48339084871E+02  0.13645358436E+02  0.64532396753E+02  0.41800000000E+01 0.  1.
        -11    1    1    2    0    0 -0.53984184344E+02  0.37301239883E+02  0.10339641269E+03  0.12246016827E+03  0.00000000000E+00 0.  1.
         11    1    1    2    0    0  0.17594185787E+02  0.35896738856E+02  0.21492690349E+03  0.21861314023E+03  0.00000000000E+00 0. -1.
</event>
<event>
 6    1  0.4988969E-006  0.1027870E+03  0.7561462E-02  0.1274542E+00
         -1   -1    0    0    0  501 -0.00000000000E+00  0.00000000000E+00  0.59498524192E+02  0.59498524192E+02  0.00000000000E+00 0.  1.
          1   -1    0    0  501    0  0.00000000000E+00 -0.00000000000E+00 -0.30307950946E+03  0.30307950946E+03  0.00000000000E+00 0. -1.
          5    1    1    2  502    0  0.28447075410E+02 -0.81582193931E+01  0.15743211111E+02  0.33780375059E+02  0.41800000000E+01 0.  1.
         -5    1    1    2    0  502  0.41570326293E+02  0.39333610942E+02 -0.16858728920E+03  0.17808529265E+03  0.41800000000E+01 0.  1.
        -11    1    1    2    0    0  0.10012097131E+02  0.20657352041E+02 -0.75191684435E+01  0.24155872503E+02  0.00000000000E+00 0.  1.
         11    1    1    2    0    0 -0.80029498833E+02 -0.51832743589E+02 -0.83217738730E+02  0.12655649344E+03  0.00000000000E+00 0. -1.
</event>
<event>
 6    1  0.4988969E-006  0.4341345E+03  0.7561462E-02  0.1032562E+00
         -1   -1    0    0    0  501 -0.00000000000E+00  0.00000000000E+00  0.19846175184E+03  0.19846175184E+03  0.00000000000E+00 0.  1.
          1   -1    0    0  501    0  0.00000000000E+00 -0.00000000000E+00 -0.13883513335E+04  0.13883513335E+04  0.00000000000E+00 0. -1.
          5    1    1    2  502    0 -0.25308836285E+02 -0.86895459138E+02 -0.46168348356E+02  0.10168749580E+03  0.41800000000E+01 0.  1.
         -5    1    1    2    0  502  0.13962139735E+03 -0.32109782135E+03 -0.11463368658E+03  0.36845121791E+03  0.41800000000E+01 0.  1.
        -11    1    1    2    0    0  0.31885564429E+01  0.62360636605E+02 -0.93963833065E+02  0.11281940354E+03  0.00000000000E+00 0. -1.
         11    1    1    2    0    0 -0.11750111751E+03  0.34563264389E+03 -0.93512371361E+03  0.10038549681E+04  0.00000000000E+00 0.  1.
</event>
<event>
 6    1  0.4988969E-006  0.1746340E+03  0.7561462E-02  0.1173100E+00
         -1   -1    0    0    0  501 -0.00000000000E+00  0.00000000000E+00  0.87620805404E+02  0.87620805404E+02  0.00000000000E+00 0.  1.
          1   -1    0    0  501    0  0.00000000000E+00 -0.00000000000E+00 -0.37402031844E+03  0.37402031844E+03  0.00000000000E+00 0. -1.
          5    1    1    2  502    0 -0.22157862367E+02 -0.23792168223E+02 -0.38949911546E+01  0.33010323984E+02  0.41800000000E+01 0. -1.
         -5    1    1    2    0  502  0.14536099764E+03 -0.38876078720E+02 -0.95347647359E+02  0.17818477878E+03  0.41800000000E+01 0. -1.
        -11    1    1    2    0    0 -0.11882973497E+03  0.16948814696E+02 -0.12680900222E+03  0.17460896677E+03  0.00000000000E+00 0.  1.
         11    1    1    2    0    0 -0.43734003085E+01  0.45719432248E+02 -0.60347872302E+02  0.75837054312E+02  0.00000000000E+00 0. -1.
</event>
<event>
 6    1  0.4988969E-006  0.8900067E+02  0.7561462E-02  0.1305290E+00
         -2   -1    0    0    0  501 -0.00000000000E+00  0.00000000000E+00  0.21855390911E+02  0.21855390911E+02  0.00000000000E+00 0.  1.
          2   -1    0    0  501    0  0.00000000000E+00 -0.00000000000E+00 -0.66693150073E+03  0.66693150073E+03  0.00000000000E+00 0. -1.
          5    1    1    2  502    0  0.39268015677E+02  0.37232458359E+01 -0.23013401659E+03  0.23352725238E+03  0.41800000000E+01 0.  1.
         -5    1    1    2    0  502 -0.44417335185E+02 -0.55410486014E+02 -0.94948968682E+02  0.11864232246E+03  0.41800000000E+01 0.  1.
        -11    1    1    2    0    0  0.11308900830E+02 -0.33674374860E+01  0.65408816736E-01  0.11799794554E+02  0.00000000000E+00 0.  1.
         11    1    1    2    0    0 -0.61595813229E+01  0.55054677664E+02 -0.32005853337E+03  0.32481752224E+03  0.00000000000E+00 0. -1.
</event>
<event>
 6    1  0.4988969E-006  0.1441259E+03  0.7561462E-02  0.1207883E+00
         -1   -1    0    0    0  501 -0.00000000000E+00  0.00000000000E+00  0.16084043638E+04  0.16084043638E+04  0.00000000000E+00 0.  1.
          1   -1    0    0  501    0  0.00000000000E+00 -0.00000000000E+00 -0.18030796741E+02  0.18030796741E+02  0.00000000000E+00 0. -1.
          5    1    1    2  502    0 -0.42672209231E+01 -0.12895889030E+03  0.70840200819E+03  0.72006908153E+03  0.41800000000E+01 0. -1.
         -5    1    1    2    0  502  0.13883870823E+02  0.16143063670E+02  0.45355657863E+03  0.45407532722E+03  0.41800000000E+01 0. -1.
        -11    1    1    2    0    0  0.33482934677E+02  0.64762760959E+02  0.29782134459E+03  0.30661519110E+03  0.00000000000E+00 0.  1.
         11    1    1    2    0    0 -0.43099584577E+02  0.48053065668E+02  0.13059363566E+03  0.14567556070E+03  0.00000000000E+00 0. -1.
</event>
<event>
 6    1  0.4988969E-006  0.1122846E+03  0.7561462E-02  0.1256397E+00
          2   -1    0    0  501    0  0.00000000000E+00  0.00000000000E+00  0.41398454669E+03  0.41398454669E+03  0.00000000000E+00 0. -1.
         -2   -1    0    0    0  501 -0.00000000000E+00 -0.00000000000E+00 -0.85289924744E+02  0.85289924744E+02  0.00000000000E+00 0.  1.
          5    1    1    2  502    0  0.61498498891E+02  0.57001995634E+02  0.71654261349E+02  0.11037707389E+03  0.41800000000E+01 0. -1.
         -5    1    1    2    0  502  0.32466907194E+02 -0.25530347094E+02 -0.40963162311E+02  0.58321108974E+02  0.41800000000E+01 0.  1.
        -11    1    1    2    0    0 -0.44518792560E+02 -0.14500571536E+02  0.25921472433E+02  0.53517400899E+02  0.00000000000E+00 0.  1.
         11    1    1    2    0    0 -0.49446613525E+02 -0.16971077004E+02  0.27208205047E+03  0.27705888766E+03  0.00000000000E+00 0. -1.
</event>
<event>
 6    1  0.4988969E-006  0.1052274E+03  0.7561462E-02  0.1269672E+00
          1   -1    0    0  501    0  0.00000000000E+00  0.00000000000E+00  0.70454157162E+03  0.70454157162E+03  0.00000000000E+00 0. -1.
         -1   -1    0    0    0  501 -0.00000000000E+00 -0.00000000000E+00 -0.28181140597E+02  0.28181140597E+02  0.00000000000E+00 0.  1.
          5    1    1    2  502    0 -0.25773240097E+02  0.21895240189E+02  0.22280531297E+01  0.34148178117E+02  0.41800000000E+01 0.  1.
         -5    1    1    2    0  502  0.30283442903E+02  0.55384515711E+02  0.24964680518E+03  0.25753743657E+03  0.41800000000E+01 0.  1.
        -11    1    1    2    0    0  0.33861727803E+02 -0.64191609602E+02  0.33536495200E+03  0.34312800875E+03  0.00000000000E+00 0. -1.
         11    1    1    2    0    0 -0.38371930609E+02 -0.13088146297E+02  0.89120620705E+02  0.97909088787E+02  0.00000000000E+00 0.  1.
</event>
<event>
 6    1  0.4988969E-006  0.2736252E+03  0.7561462E-02  0.1099223E+00
         -2   -1    0    0    0  501 -0.00000000000E+00  0.00000000000E+00  0.20994712313E+03  0.20994712313E+03  0.00000000000E+00 0.  1.
          2   -1    0    0  501    0  0.00000000000E+00 -0.00000000000E+00 -0.37737651323E+03  0.37737651323E+03  0.00000000000E+00 0. -1.
          5    1    1    2  502    0 -0.10825427313E+03  0.21294331467E+02 -0.95771303883E+01  0.11082251590E+03  0.41800000000E+01 0.  1.
         -5    1    1    2    0  502 -0.72743358504E+02  0.15588969750E+03 -0.17605550666E+02  0.17297578388E+03  0.41800000000E+01 0.  1.
        -11    1    1    2    0    0  0.18178344491E+03 -0.14488994682E+03 -0.10310467213E+03  0.25430078833E+03  0.00000000000E+00 0. -1.
         11    1    1    2    0    0 -0.78581327473E+00 -0.32294082152E+02 -0.37142036917E+02  0.49224548255E+02  0.00000000000E+00 0.  1.
</event>
<event>
 6    1  0.4988969E-006  0.1034837E+03  0.7561462E-02  0.1273136E+00
         -3   -1    0    0    0  501 -0.00000000000E+00  0.00000000000E+00  0.63599116265E+03  0.63599116265E+03  0.00000000000E+00 0.  1.
          3   -1    0    0  501    0  0.00000000000E+00 -0.00000000000E+00 -0.36352739218E+02  0.36352739218E+02  0.00000000000E+00 0. -1.
          5    1    1    2  502    0  0.38717341366E+02 -0.70263615669E+02  0.43037717124E+03  0.43781045000E+03  0.41800000000E+01 0. -1.
         -5    1    1    2    0  502 -0.18352097333E+01  0.43836489417E+02  0.10541699847E+03  0.11425944935E+03  0.41800000000E+01 0. -1.
        -11    1    1    2    0    0 -0.36250936571E+02  0.48459888274E+02  0.90229109624E+01  0.61187450478E+02  0.00000000000E+00 0. -1.
         11    1    1    2    0    0 -0.63119506197E+00 -0.22032762021E+02  0.54821342758E+02  0.59086552034E+02  0.00000000000E+00 0.  1.
</event>
<event>
 6    1  0.4988969E-006  0.7077076E+02  0.7561462E-02  0.1357491E+00
          1   -1    0    0  501    0  0.00000000000E+00  0.00000000000E+00  0.10644605724E+03  0.10644605724E+03  0.00000000000E+00 0. -1.
         -1   -1    0    0    0  501 -0.00000000000E+00 -0.00000000000E+00 -0.16111527965E+03  0.16111527965E+03  0.00000000000E+00 0.  1.
          5    1    1    2  502    0 -0.39738886714E+01 -0.64600523619E+02 -0.39003439105E+01  0.64974645252E+02  0.41800000000E+01 0. -1.
         -5    1    1    2    0  502  0.77877793392E+01  0.28910484134E+02 -0.91556229931E+02  0.96418261958E+02  0.41800000000E+01 0. -1.
        -11    1    1    2    0    0  0.10512900762E+02  0.28592900768E+02 -0.24411149260E+02  0.39038177019E+02  0.00000000000E+00 0.  1.
         11    1    1    2    0    0 -0.14326791430E+02  0.70971387173E+01  0.65198500690E+02  0.67130252665E+02  0.00000000000E+00 0. -1.
</event>
<event>
 6    1  0.4988969E-006  0.1412054E+03  0.7561462E-02  0.1211716E+00
          2   -1    0    0  501    0  0.00000000000E+00  0.00000000000E+00  0.59840760996E+03  0.59840760996E+03  0.00000000000E+00 0. -1.
         -2   -1    0    0    0  501 -0.00000000000E+00 -0.00000000000E+00 -0.45737242804E+02  0.45737242804E+02  0.00000000000E+00 0.  1.
          5    1    1    2  502    0  0.91148085422E+02  0.23609715376E+02  0.11235480007E+03  0.14665082896E+03  0.41800000000E+01 0.  1.
         -5    1    1    2    0  502 -0.28346698815E+02  0.62444034754E+02  0.56469176028E+02  0.88932744540E+02  0.41800000000E+01 0.  1.
        -11    1    1    2    0    0 -0.52239111913E+02 -0.25759130032E+02  0.82060622286E+02  0.10063003192E+03  0.00000000000E+00 0.  1.
         11    1    1    2    0    0 -0.10562274694E+02 -0.60294620099E+02  0.30178576878E+03  0.30793124735E+03  0.00000000000E+00 0. -1.
</event>
<event>
 6    1  0.4988969E-006  0.1003644E+03  0.7561462E-02  0.1279532E+00
         -2   -1    0    0    0  501 -0.00000000000E+00  0.00000000000E+00  0.15165070796E+03  0.15165070796E+03  0.00000000000E+00 0.  1.
          2   -1    0    0  501    0  0.00000000000E+00 -0.00000000000E+00 -0.80684285150E+02  0.80684285150E+02  0.00000000000E+00 0. -1.
          5    1    1    2  502    0  0.43472608680E+02 -0.46458982109E+02  0.32882600912E+02  0.71742892099E+02  0.41800000000E+01 0.  1.
         -5    1    1    2    0  502 -0.22422533716E+02  0.59276396877E+02  0.24492260803E+02  0.68072053621E+02  0.41800000000E+01 0.  1.
        -11    1    1    2    0    0  0.19360391279E+02  0.14916319134E+02  0.31912246078E+02  0.40195929853E+02  0.00000000000E+00 0.  1.
         11    1    1    2    0    0 -0.40410466244E+02 -0.27733733902E+02 -0.18320684980E+02  0.52324117540E+02  0.00000000000E+00 0. -1.
</event>
<event>
 6    1  0.4988969E-006  0.1104099E+03  0.7561462E-02  0.1259813E+00
         -1   -1    0    0    0  501 -0.00000000000E+00  0.00000000000E+00  0.34090862629E+02  0.34090862629E+02  0.00000000000E+00 0.  1.
          1   -1    0    0  501    0  0.00000000000E+00 -0.00000000000E+00 -0.43209189544E+03  0.43209189544E+03  0.00000000000E+00 0. -1.
          5    1    1    2  502    0  0.40325537660E+02 -0.21738731879E+02 -0.65037869900E+02  0.79662528032E+02  0.41800000000E+01 0. -1.
         -5    1    1    2    0  502 -0.82280188094E+02  0.22842763811E+02 -0.97010314488E+02  0.12930697865E+03  0.41800000000E+01 0. -1.
        -11    1    1    2    0    0 -0.12603138622E+02 -0.26348820982E+02 -0.14685718292E+03  0.14973353547E+03  0.00000000000E+00 0. -1.
         11    1    1    2    0    0  0.54557789055E+02  0.25244789051E+02 -0.89095665507E+02  0.10747971591E+03  0.00000000000E+00 0.  1.
</event>
<event>
 6    1  0.4988969E-006  0.8295726E+02  0.7561462E-02  0.1320863E+00
          1   -1    0    0  501    0  0.00000000000E+00  0.00000000000E+00  0.16301174339E+03  0.16301174339E+03  0.00000000000E+00 0. -1.
         -1   -1    0    0    0  501 -0.00000000000E+00 -0.00000000000E+00 -0.97195571315E+02  0.97195571315E+02  0.00000000000E+00 0.  1.
          5    1    1    2  502    0  0.19476893898E+02  0.56095783405E+01 -0.55543387590E+02  0.59273578178E+02  0.41800000000E+01 0. -1.
         -5    1    1    2    0  502  0.33282601511E+02  0.23414018015E+02  0.68984801245E+02  0.80201764356E+02  0.41800000000E+01 0. -1.
        -11    1    1    2    0    0 -0.14363681361E+02 -0.55723657640E+02  0.45714645525E+02  0.73493334245E+02  0.00000000000E+00 0. -1.
         11    1    1    2    0    0 -0.38395814049E+02  0.26700061284E+02  0.66601128933E+01  0.47238637923E+02  0.00000000000E+00 0.  1.
</event>
<event>
 6    1  0.4988969E-006  0.8894243E+02  0.7561462E-02  0.1305433E+00
          1   -1    0    0  501    0  0.00000000000E+00  0.00000000000E+00  0.89825135597E+02  0.89825135597E+02  0.00000000000E+00 0. -1.
         -1   -1    0    0    0  501 -0.00000000000E+00 -0.00000000000E+00 -0.20833136190E+03  0.20833136190E+03  0.00000000000E+00 0.  1.
          5    1    1    2  502    0 -0.94623832653E+01 -0.46291328230E+02  0.82583288441E+00  0.47440258919E+02  0.41800000000E+01 0.  1.
         -5    1    1    2    0  502 -0.52940244115E+02  0.35917068682E+02 -0.12213572196E+03  0.13793952388E+03  0.41800000000E+01 0.  1.
        -11    1    1    2    0    0  0.32396465678E+02 -0.47432865959E+01 -0.44195670331E+02  0.55002609321E+02  0.00000000000E+00 0.  1.
         11    1    1    2    0    0  0.30006161703E+02  0.15117546144E+02  0.46999333095E+02  0.57774105384E+02  0.00000000000E+00 0. -1.
</event>
<event>
 6    1  0.4988969E-006  0.1331643E+03  0.7561462E-02  0.1222835E+00
         -1   -1    0    0    0  501 -0.00000000000E+00  0.00000000000E+00  0.43106429044E+02  0.43106429044E+02  0.00000000000E+00 0.  1.
          1   -1    0    0  501    0  0.00000000000E+00 -0.00000000000E+00 -0.63453953945E+03  0.63453953945E+03  0.00000000000E+00 0. -1.
          5    1    1    2  502    0 -0.69300716809E+02 -0.60455939258E+02 -0.48256453005E+02  0.10394069270E+03  0.41800000000E+01 0. -1.
         -5    1    1    2    0  502 -0.56651169135E+01 -0.27490131461E+02 -0.17274962297E+03  0.17506486087E+03  0.41800000000E+01 0. -1.
        -11    1    1    2    0    0  0.30979243937E+01  0.72266914487E+02 -0.21120657776E+03  0.22324946261E+03  0.00000000000E+00 0.  1.
         11    1    1    2    0    0  0.71867909328E+02  0.15679156232E+02 -0.15922045668E+03  0.17539095232E+03  0.00000000000E+00 0. -1.
</event>
<event>
 6    1  0.4988969E-006  0.1222869E+03  0.7561462E-02  0.1239371E+00
          4   -1    0    0  501    0  0.00000000000E+00  0.00000000000E+00  0.80059389073E+02  0.80059389073E+02  0.00000000000E+00 0. -1.
         -4   -1    0    0    0  501 -0.00000000000E+00 -0.00000000000E+00 -0.20991373503E+03  0.20991373503E+03  0.00000000000E+00 0.  1.
          5    1    1    2  502    0 -0.84088133887E+02  0.52698889435E+02 -0.79361027711E+02  0.12713627463E+03  0.41800000000E+01 0.  1.
         -5    1    1    2    0  502  0.17526092617E+02 -0.37948955424E+02 -0.19820225677E+02  0.46449982628E+02  0.41800000000E+01 0.  1.
        -11    1    1    2    0    0  0.43440227994E+02  0.30052742311E+02 -0.38502114183E+02  0.65365384762E+02  0.00000000000E+00 0.  1.
         11    1    1    2    0    0  0.23121813275E+02 -0.44802676322E+02  0.78290216098E+01  0.51021482085E+02  0.00000000000E+00 0. -1.
</event>
<event>
 6    1  0.4988969E-006  0.1251618E+03  0.7561462E-02  0.1234817E+00
         -2   -1    0    0    0  501 -0.00000000000E+00  0.00000000000E+00  0.14047965372E+02  0.14047965372E+02  0.00000000000E+00 0.  1.
          2   -1    0    0  501    0  0.00000000000E+00 -0.00000000000E+00 -0.13685565344E+04  0.13685565344E+04  0.00000000000E+00 0. -1.
          5    1    1    2  502    0  0.39376387700E+02  0.23064478622E+02 -0.15378742422E+03  0.16046966794E+03  0.41800000000E+01 0.  1.
         -5    1    1    2    0  502  0.65529309032E+01 -0.92280757779E+02 -0.75198502216E+03  0.75766590600E+03  0.41800000000E+01 0.  1.
        -11    1    1    2    0    0 -0.17199825701E+02  0.79528149302E+02 -0.38862789734E+03  0.39705440826E+03  0.00000000000E+00 0. -1.
         11    1    1    2    0    0 -0.28729492902E+02 -0.10311870145E+02 -0.60108225338E+02  0.67414517587E+02  0.00000000000E+00 0.  1.
</event>
<event>
 6    1  0.4988969E-006  0.1374154E+03  0.7561462E-02  0.1216850E+00
          2   -1    0    0  501    0  0.00000000000E+00  0.00000000000E+00  0.13788817987E+03  0.13788817987E+03  0.00000000000E+00 0. -1.
         -2   -1    0    0    0  501 -0.00000000000E+00 -0.00000000000E+00 -0.26890353379E+03  0.26890353379E+03  0.00000000000E+00 0.  1.
          5    1    1    2  502    0  0.87878396812E+02  0.18652516272E+02 -0.18998826868E+03  0.21019881928E+03  0.41800000000E+01 0. -1.
         -5    1    1    2    0  502  0.24112567297E+02 -0.33359360013E+02  0.30691091143E+01  0.41486800707E+02  0.41800000000E+01 0. -1.
        -11    1    1    2    0    0 -0.80143906105E+02 -0.32580068957E+02  0.43188211892E+02  0.96693992706E+02  0.00000000000E+00 0. -1.
         11    1    1    2    0    0 -0.31847058003E+02  0.47286912697E+02  0.12715593746E+02  0.58412100974E+02  0.00000000000E+00 0.  1.
</event>
<event>
 6    1  0.4988969E-006  0.3029628E+03  0.7561462E-02  0.1083769E+00
         -1   -1    0    0    0  501 -0.00000000000E+00  0.00000000000E+00  0.27658747718E+03  0.27658747718E+03  0.00000000000E+00 0.  1.
          1   -1    0    0  501    0  0.00000000000E+00 -0.00000000000E+00 -0.41501565784E+03  0.41501565784E+03  0.00000000000E+00 0. -1.
          5    1    1    2  502    0  0.22615417189E+03  0.37068777289E+02  0.58850995340E+02  0.23664470365E+03  0.41800000000E+01 0. -1.
         -5    1    1    2    0  502 -0.13475164933E+03 -0.16255728167E+03 -0.37752393974E+02  0.21453576036E+03  0.41800000000E+01 0.  1.
        -11    1    1    2    0    0 -0.31182829856E+02  0.60467313973E+01  0.60875058533E+00  0.31769520231E+02  0.00000000000E+00 0.  1.
         11    1    1    2    0    0 -0.60219692699E+02  0.11944177299E+03 -0.16013553262E+03  0.20865315078E+03  0.00000000000E+00 0. -1.
</event>
<event>
 6    1  0.4988969E-006  0.8787090E+02  0.7561462E-02  0.1308091E+00
          2   -1    0    0  501    0  0.00000000000E+00  0.00000000000E+00  0.13539697851E+03  0.13539697851E+03  0.00000000000E+00 0. -1.
         -2   -1    0    0    0  501 -0.00000000000E+00 -0.00000000000E+00 -0.13475669522E+03  0.13475669522E+03  0.00000000000E+00 0.  1.
          5    1    1    2  502    0 -0.20276257076E+02 -0.24947573663E+02  0.48320262566E+02  0.58187869931E+02  0.41800000000E+01 0.  1.
         -5    1    1    2    0  502 -0.63401441288E+01 -0.44891040325E+02 -0.78308966971E+02  0.90582391429E+02  0.41800000000E+01 0.  1.
        -11    1    1    2    0    0  0.46750058260E+02  0.57784882627E+02  0.51135970376E+02  0.90219443990E+02  0.00000000000E+00 0. -1.
         11    1    1    2    0    0 -0.20133657056E+02  0.12053731360E+02 -0.20506982681E+02  0.31163968374E+02  0.00000000000E+00 0.  1.
</event>
<event>
 6    1  0.4988969E-006  0.9970251E+02  0.7561462E-02  0.1280923E+00
         -1   -1    0    0    0  501 -0.00000000000E+00  0.00000000000E+00  0.69966453016E+02  0.69966453016E+02  0.00000000000E+00 0.  1.
          1   -1    0    0  501    0  0.00000000000E+00 -0.00000000000E+00 -0.37554698638E+03  0.37554698638E+03  0.00000000000E+00 0. -1.
          5    1    1    2  502    0 -0.26901779945E+02 -0.31024702140E+02 -0.73171093839E+02  0.84010233190E+02  0.41800000000E+01 0. -1.
         -5    1    1    2    0  502 -0.42026196829E+02  0.17055934503E+02  0.42991499757E+02  0.62632639838E+02  0.41800000000E+01 0. -1.
        -11    1    1    2    0    0  0.55930955823E+02  0.49536337604E+02 -0.14548376625E+03  0.16354707826E+03  0.00000000000E+00 0.  1.
         11    1    1    2    0    0  0.12997020952E+02 -0.35567569967E+02 -0.12991717303E+03  0.13532348811E+03  0.00000000000E+00 0. -1.
</event>
<event>
 6    1  0.4988969E-006  0.2057943E+03  0.7561462E-02  0.1144940E+00
          1   -1    0    0  501    0  0.00000000000E+00  0.00000000000E+00  0.40462209293E+03  0.40462209293E+03  0.00000000000E+00 0. -1.
         -1   -1    0    0    0  501 -0.00000000000E+00 -0.00000000000E+00 -0.16636772291E+03  0.16636772291E+03  0.00000000000E+00 0.  1.
          5    1    1    2  502    0  0.80437831493E+01 -0.17047584451E+03 -0.60494453294E+02  0.18111810315E+03  0.41800000000E+01 0.  1.
         -5    1    1    2    0  502 -0.22283551852E+02 -0.28275775584E+02  0.41284085159E+02  0.54935637390E+02  0.41800000000E+01 0.  1.
        -11    1    1    2    0    0  0.31424665192E+02  0.12272796867E+03  0.10844121519E+03  0.16676078984E+03  0.00000000000E+00 0.  1.
         11    1    1    2    0    0 -0.17184896490E+02  0.76023651424E+02  0.14902352296E+03  0.16817528546E+03  0.00000000000E+00 0. -1.
</event>
<event>
 6    1  0.4988969E-006  0.9250159E+02  0.7561462E-02  0.1296904E+00
          2   -1    0    0  501    0  0.00000000000E+00  0.00000000000E+00  0.12846541427E+03  0.12846541427E+03  0.00000000000E+00 0. -1.
         -2   -1    0    0    0  501 -0.00000000000E+00 -0.00000000000E+00 -0.13580142910E+03  0.13580142910E+03  0.00000000000E+00 0.  1.
          5    1    1    2  502    0 -0.16681872454E+02 -0.53903319726E+02 -0.88494199199E+02  0.10503593879E+03  0.41800000000E+01 0. -1.
         -5    1    1    2    0  502  0.31813912015E+02  0.72238823190E+01  0.27177557252E+02  0.42666163310E+02  0.41800000000E+01 0. -1.
        -11    1    1    2    0    0 -0.48701023924E+02  0.35064423790E+02  0.54462417671E+02  0.81039857388E+02  0.00000000000E+00 0. -1.
         11    1    1    2    0    0  0.33568984363E+02  0.11615013617E+02 -0.48179055896E+00  0.35524883879E+02  0.00000000000E+00 0.  1.
</event>
<event>
 6    1  0.4988969E-006  0.1188259E+03  0.7561462E-02  0.1245047E+00
         -1   -1    0    0    0  501 -0.00000000000E+00  0.00000000000E+00  0.52431791517E+03  0.52431791517E+03  0.00000000000E+00 0.  1.
          1   -1    0    0  501    0  0.00000000000E+00 -0.00000000000E+00 -0.29804469399E+02  0.29804469399E+02  0.00000000000E+00 0. -1.
          5    1    1    2  502    0  0.34918911656E+02  0.50658822499E+02  0.86164452202E+02  0.10595957678E+03  0.41800000000E+01 0. -1.
         -5    1    1    2    0  502  0.45570936201E+01 -0.79864634747E+02  0.23446706965E+03  0.24777289226E+03  0.41800000000E+01 0.  1.
        -11    1    1    2    0    0 -0.21142118002E+02  0.58005557259E+02  0.13621601960E+03  0.14955413007E+03  0.00000000000E+00 0. -1.
         11    1    1    2    0    0 -0.18333887274E+02 -0.28799745010E+02  0.37665904317E+02  0.50835785459E+02  0.00000000000E+00 0.  1.
</event>
<event>
 6    1  0.4988969E-006  0.1100744E+03  0.7561462E-02  0.1260432E+00
         -1   -1    0    0    0  501 -0.00000000000E+00  0.00000000000E+00  0.72458847920E+02  0.72458847920E+02  0.00000000000E+00 0.  1.
          1   -1    0    0  501    0  0.00000000000E+00 -0.00000000000E+00 -0.17728138604E+03  0.17728138604E+03  0.00000000000E+00 0. -1.
          5    1    1    2  502    0  0.41535542467E+02 -0.48265482547E+02 -0.11913711149E+02  0.64916615799E+02  0.41800000000E+01 0. -1.
         -5    1    1    2    0  502 -0.14952110383E+02  0.57339179624E+02 -0.49086906178E+02  0.77060650678E+02  0.41800000000E+01 0. -1.
        -11    1    1    2    0    0 -0.61529902436E+02 -0.69277709655E+01 -0.18735730840E+02  0.64691193485E+02  0.00000000000E+00 0.  1.
         11    1    1    2    0    0  0.34946470352E+02 -0.21459261117E+01 -0.25086189953E+02  0.43071773998E+02  0.00000000000E+00 0. -1.
</event>
<event>
 6    1  0.4988969E-006  0.9184279E+02  0.7561462E-02  0.1298449E+00
         -2   -1    0    0    0  501 -0.00000000000E+00  0.00000000000E+00  0.57864614730E+02  0.57864614730E+02  0.00000000000E+00 0.  1.
          2   -1    0    0  501    0  0.00000000000E+00 -0.00000000000E+00 -0.31475681238E+03  0.31475681238E+03  0.00000000000E+00 0. -1.
          5    1    1    2  502    0 -0.41305316412E+02  0.31394391596E+02  0.19907843650E+02  0.55727296959E+02  0.41800000000E+01 0.  1.
         -5    1    1    2    0  502 -0.16735275489E+00 -0.50379604975E+02 -0.70403658370E+02  0.86673410664E+02  0.41800000000E+01 0.  1.
        -11    1    1    2    0    0  0.51769441844E+01  0.39197831101E+02 -0.17139816704E+03  0.17589940984E+03  0.00000000000E+00 0. -1.
         11    1    1    2    0    0  0.36295724982E+02 -0.20212617723E+02 -0.34998215890E+02  0.54321309655E+02  0.00000000000E+00 0.  1.
</event>
<event>
 6    1  0.4988969E-006  0.1382608E+03  0.7561462E-02  0.1215688E+00
          1   -1    0    0  501    0  0.00000000000E+00  0.00000000000E+00  0.50411749500E+02  0.50411749500E+02  0.00000000000E+00 0. -1.
         -1   -1    0    0    0  501 -0.00000000000E+00 -0.00000000000E+00 -0.54411770219E+03  0.54411770219E+03  0.00000000000E+00 0.  1.
          5    1    1    2  502    0 -0.54160110693E+02 -0.10709930731E+03 -0.24926075185E+03  0.27668027401E+03  0.41800000000E+01 0. -1.
         -5    1    1    2    0  502  0.33106080976E+02  0.86532886072E+01 -0.14462754191E+03  0.14867915214E+03  0.41800000000E+01 0. -1.
        -11    1    1    2    0    0 -0.15103916868E+02 -0.19718000029E+01 -0.48324379714E+02  0.50668155430E+02  0.00000000000E+00 0.  1.
         11    1    1    2    0    0  0.36157946586E+02  0.10041781870E+03 -0.51493279216E+02  0.11850187011E+03  0.00000000000E+00 0. -1.
</event>
<event>
 6    1  0.4988969E-006  0.1248005E+03  0.7561462E-02  0.1235381E+00
         -2   -1    0    0    0  501 -0.00000000000E+00  0.00000000000E+00  0.87610628854E+02  0.87610628854E+02  0.00000000000E+00 0.  1.
          2   -1    0    0  501    0  0.00000000000E+00 -0.00000000000E+00 -0.27921010377E+03  0.27921010377E+03  0.00000000000E+00 0. -1.
          5    1    1    2  502    0 -0.61748765067E+02  0.56376536028E+02 -0.38442757955E+02  0.92122428545E+02  0.41800000000E+01 0. -1.
         -5    1    1    2    0  502 -0.21935348483E+02 -0.50025751923E+02  0.22770345239E+02  0.59327029176E+02  0.41800000000E+01 0. -1.
        -11    1    1    2    0    0  0.55717800362E+02  0.31525080898E+02 -0.14643000439E+03  0.15981254703E+03  0.00000000000E+00 0.  1.
         11    1    1    2    0    0  0.27966313187E+02 -0.37875865003E+02 -0.29497057801E+02  0.55558727865E+02  0.00000000000E+00 0. -1.
</event>
<event>
 6    1  0.4988969E-006  0.1181345E+03  0.7561462E-02  0.1246207E+00
          1   -1    0    0  501    0  0.00000000000E+00  0.00000000000E+00  0.56344794701E+03  0.56344794701E+03  0.00000000000E+00 0. -1.
         -1   -1    0    0    0  501 -0.00000000000E+00 -0.00000000000E+00 -0.43176120812E+02  0.43176120812E+02  0.00000000000E+00 0.  1.
          5    1    1    2  502    0  0.41010272916E+00 -0.23648949429E+02 -0.62276310987E+01  0.24813238048E+02  0.41800000000E+01 0. -1.
         -5    1    1    2    0  502 -0.65889095634E+02 -0.70250864880E+02  0.29173757401E+03  0.30725370857E+03  0.41800000000E+01 0. -1.
        -11    1    1    2    0    0  0.15082491303E+02  0.10420034959E+02 -0.20580474869E+01  0.18447065672E+02  0.00000000000E+00 0.  1.
         11    1    1    2    0    0  0.50396501602E+02  0.83479779349E+02  0.23681993078E+03  0.25611005554E+03  0.00000000000E+00 0. -1.
</event>
<event>
 6    1  0.4988969E-006  0.6445443E+02  0.7561462E-02  0.1380036E+00
          3   -1    0    0  501    0  0.00000000000E+00  0.00000000000E+00  0.15155132564E+02  0.15155132564E+02  0.00000000000E+00 0. -1.
         -3   -1    0    0    0  501 -0.00000000000E+00 -0.00000000000E+00 -0.79149225398E+03  0.79149225398E+03  0.00000000000E+00 0.  1.
          5    1    1    2  502    0 -0.37454222872E+01  0.22670695784E+02 -0.47206964935E+03  0.47264702990E+03  0.41800000000E+01 0. -1.
         -5    1    1    2    0  502  0.13541415617E+02 -0.11228929202E+02 -0.23666433935E+01  0.18235465141E+02  0.41800000000E+01 0. -1.
        -11    1    1    2    0    0  0.32365411633E+02 -0.27385912043E+02 -0.95320472318E+02  0.10432401685E+03  0.00000000000E+00 0. -1.
         11    1    1    2    0    0 -0.42161404963E+02  0.15944145461E+02 -0.20658035635E+03  0.21144087465E+03  0.00000000000E+00 0.  1.
</event>
<event>
 6    1  0.4988969E-006  0.1309063E+03  0.7561462E-02  0.1226117E+00
         -1   -1    0    0    0  501 -0.00000000000E+00  0.00000000000E+00  0.41480666450E+02  0.41480666450E+02  0.00000000000E+00 0.  1.
          1   -1    0    0  501    0  0.00000000000E+00 -0.00000000000E+00 -0.42454063308E+03  0.42454063308E+03  0.00000000000E+00 0. -1.
          5    1    1    2  502    0 -0.29649934378E+02  0.22432497349E+02 -0.38950517180E+02  0.54008802380E+02  0.41800000000E+01 0.  1.
         -5    1    1    2    0  502  0.90137642980E+02 -0.52595656139E+02 -0.13331646960E+03  0.16935717048E+03  0.41800000000E+01 0.  1.
        -11    1    1    2    0    0 -0.57443305710E+02  0.63990011575E+02 -0.14394474790E+03  0.16767392582E+03  0.00000000000E+00 0.  1.
         11    1    1    2    0    0 -0.30444028920E+01 -0.33826852785E+02 -0.66848231952E+02  0.74981400850E+02  0.00000000000E+00 0. -1.
</event>
<event>
 6    1  0.4988969E-006  0.1777866E+03  0.7561462E-02  0.1169963E+00
          2   -1    0    0  501    0  0.00000000000E+00  0.00000000000E+00  0.60449270194E+03  0.60449270194E+03  0.00000000000E+00 0. -1.
         -2   -1    0    0    0  501 -0.00000000000E+00 -0.00000000000E+00 -0.57686628303E+02  0.57686628303E+02  0.00000000000E+00 0.  1.
          5    1    1    2  502    0  0.72428658411E+01 -0.48759856276E+02  0.14788503943E+03  0.15594050140E+03  0.41800000000E+01 0. -1.
         -5    1    1    2    0  502  0.13401815938E+03 -0.52073249886E+01  0.15556661166E+03  0.20544202671E+03  0.41800000000E+01 0. -1.
        -11    1    1    2    0    0 -0.31925094853E+02  0.53825400137E+02  0.12423168436E+03  0.13910390641E+03  0.00000000000E+00 0.  1.
         11    1    1    2    0    0 -0.10933593037E+03  0.14178112719E+00  0.11912273819E+03  0.16169289571E+03  0.00000000000E+00 0. -1.
</event>
<event>
 6    1  0.4988969E-006  0.2832502E+03  0.7561462E-02  0.1093927E+00
          1   -1    0    0  501    0  0.00000000000E+00  0.00000000000E+00  0.63715685742E+03  0.63715685742E+03  0.00000000000E+00 0. -1.
         -1   -1    0    0    0  501 -0.00000000000E+00 -0.00000000000E+00 -0.14066061099E+03  0.14066061099E+03  0.00000000000E+00 0.  1.
          5    1    1    2  502    0  0.43000381046E+02  0.23243098149E+03  0.18657382717E+03  0.30116516949E+03  0.41800000000E+01 0.  1.
         -5    1    1    2    0  502 -0.26611128963E+02  0.42752177098E+02  0.11750468315E+03  0.12790904500E+03  0.41800000000E+01 0.  1.
        -11    1    1    2    0    0  0.15084627330E+02 -0.13737674759E+03  0.47080362156E+02  0.14600163445E+03  0.00000000000E+00 0.  1.
         11    1    1    2    0    0 -0.31473879412E+02 -0.13780641099E+03  0.14533737396E+03  0.20274161947E+03  0.00000000000E+00 0. -1.
</event>
<event>
 6    1  0.4988969E-006  0.1051991E+03  0.7561462E-02  0.1269728E+00
         -2   -1    0    0    0  501 -0.00000000000E+00  0.00000000000E+00  0.26039338555E+02  0.26039338555E+02  0.00000000000E+00 0. -1.
          2   -1    0    0  501    0  0.00000000000E+00 -0.00000000000E+00 -0.56617074614E+03  0.56617074614E+03  0.00000000000E+00 0.  1.
          5    1    1    2  502    0  0.45472417200E+02 -0.72200130669E+01 -0.35970062369E+02  0.58576335678E+02  0.41800000000E+01 0.  1.
         -5    1    1    2    0  502 -0.25250732984E+02  0.58363825245E+02 -0.25561178492E+03  0.26343650583E+03  0.41800000000E+01 0.  1.
        -11    1    1    2    0    0  0.29671737254E+02 -0.98263054849E+00 -0.11835073547E+03  0.12201751572E+03  0.00000000000E+00 0.  1.
         11    1    1    2    0    0 -0.49893421470E+02 -0.50161181630E+02 -0.13019882482E+03  0.14817972747E+03  0.00000000000E+00 0. -1.
</event>
<event>
 6    1  0.4988969E-006  0.8046323E+02  0.7561462E-02  0.1327742E+00
          1   -1    0    0  501    0  0.00000000000E+00  0.00000000000E+00  0.20488435128E+02  0.20488435128E+02  0.00000000000E+00 0. -1.
         -1   -1    0    0    0  501 -0.00000000000E+00 -0.00000000000E+00 -0.13947444279E+04  0.13947444279E+04  0.00000000000E+00 0.  1.
          5    1    1    2  502    0 -0.66527670605E+01  0.23512785299E+02 -0.58993088733E+02  0.63990368809E+02  0.41800000000E+01 0. -1.
         -5    1    1    2    0  502 -0.26055199200E+02 -0.40201317874E+02 -0.11962439536E+04  0.11972101270E+04  0.41800000000E+01 0.  1.
        -11    1    1    2    0    0  0.30081183996E+02  0.47988550589E+02 -0.40976039540E+02  0.69905753945E+02  0.00000000000E+00 0. -1.
         11    1    1    2    0    0  0.26267822645E+01 -0.31300018014E+02 -0.78042910915E+02  0.84126613249E+02  0.00000000000E+00 0.  1.
</event>
<event>
 6    1  0.4988969E-006  0.1397055E+03  0.7561462E-02  0.1213726E+00
          1   -1    0    0  501    0  0.00000000000E+00  0.00000000000E+00  0.58396963694E+03  0.58396963694E+03  0.00000000000E+00 0. -1.
         -1   -1    0    0    0  501 -0.00000000000E+00 -0.00000000000E+00 -0.13694214712E+03  0.13694214712E+03  0.00000000000E+00 0.  1.
          5    1    1    2  502    0  0.87751704308E+02 -0.60995699250E+02 -0.27278924222E+02  0.11037413213E+03  0.41800000000E+01 0. -1.
         -5    1    1    2    0  502 -0.38159661280E+02 -0.41024392655E+02 -0.44478471213E+02  0.71658686446E+02  0.41800000000E+01 0.  1.
        -11    1    1    2    0    0 -0.34492778689E+02  0.91741001205E+02  0.50861555355E+03  0.51797291859E+03  0.00000000000E+00 0. -1.
         11    1    1    2    0    0 -0.15099264338E+02  0.10279090700E+02  0.10169331708E+02  0.20906046889E+02  0.00000000000E+00 0.  1.
</event>
<event>
 6    1  0.4988969E-006  0.8149260E+02  0.7561462E-02  0.1324868E+00
          2   -1    0    0  501    0  0.00000000000E+00  0.00000000000E+00  0.24788108321E+03  0.24788108321E+03  0.00000000000E+00 0.  1.
         -2   -1    0    0    0  501 -0.00000000000E+00 -0.00000000000E+00 -0.11427966902E+03  0.11427966902E+03  0.00000000000E+00 0. -1.
          5    1    1    2  502    0  0.29693254942E+02  0.34907642867E+02  0.40487647568E+02  0.61294003990E+02  0.41800000000E+01 0.  1.
         -5    1    1    2    0  502  0.30473116144E+01  0.28312008524E+02 -0.84391594347E+02  0.89164283943E+02  0.41800000000E+01 0.  1.
        -11    1    1    2    0    0 -0.39507894140E+02 -0.19706936726E+02  0.20571737261E+02  0.48707632137E+02  0.00000000000E+00 0. -1.
         11    1    1    2    0    0  0.67673275827E+01 -0.43512714665E+02  0.15693362371E+03  0.16299483216E+03  0.00000000000E+00 0.  1.
</event>
<event>
 6    1  0.4988969E-006  0.1762581E+03  0.7561462E-02  0.1171474E+00
         -1   -1    0    0    0  501 -0.00000000000E+00  0.00000000000E+00  0.24090326845E+03  0.24090326845E+03  0.00000000000E+00 0.  1.
          1   -1    0    0  501    0  0.00000000000E+00 -0.00000000000E+00 -0.16516661347E+03  0.16516661347E+03  0.00000000000E+00 0. -1.
          5    1    1    2  502    0  0.19665417213E+02  0.93087970550E+02  0.76747101950E+02  0.12230980726E+03  0.41800000000E+01 0. -1.
         -5    1    1    2    0  502 -0.30752091945E+02  0.74962092155E+02 -0.37259829423E+02  0.89279189668E+02  0.41800000000E+01 0. -1.
        -11    1    1    2    0    0  0.29614880208E+02 -0.64753254698E+02  0.52256288406E+02  0.88321825172E+02  0.00000000000E+00 0.  1.
         11    1    1    2    0    0 -0.18528205476E+02 -0.10329680801E+03 -0.16006905963E+02  0.10615905982E+03  0.00000000000E+00 0. -1.
</event>
<event>
 6    1  0.4988969E-006  0.1262201E+03  0.7561462E-02  0.1233175E+00
         -1   -1    0    0    0  501 -0.00000000000E+00  0.00000000000E+00  0.11289837962E+03  0.11289837962E+03  0.00000000000E+00 0.  1.
          1   -1    0    0  501    0  0.00000000000E+00 -0.00000000000E+00 -0.47657204381E+03  0.47657204381E+03  0.00000000000E+00 0. -1.
          5    1    1    2  502    0  0.17016440561E+02 -0.45284186125E+02 -0.49220153946E+02  0.69139805588E+02  0.41800000000E+01 0. -1.
         -5    1    1    2    0  502 -0.82843320340E+02  0.38714636066E+02  0.72783192446E+02  0.11694744235E+03  0.41800000000E+01 0.  1.
        -11    1    1    2    0    0  0.44320878705E+02 -0.40851395690E+02 -0.18622154152E+03  0.19573359279E+03  0.00000000000E+00 0. -1.
         11    1    1    2    0    0  0.21506001074E+02  0.47420945749E+02 -0.20101516116E+03  0.20764958270E+03  0.00000000000E+00 0.  1.
</event>
<event>
 6    1  0.4988969E-006  0.8874531E+02  0.7561462E-02  0.1305919E+00
         -1   -1    0    0    0  501 -0.00000000000E+00  0.00000000000E+00  0.49295717735E+02  0.49295717735E+02  0.00000000000E+00 0.  1.
          1   -1    0    0  501    0  0.00000000000E+00 -0.00000000000E+00 -0.25632987034E+03  0.25632987034E+03  0.00000000000E+00 0. -1.
          5    1    1    2  502    0 -0.29935464530E+01  0.37625374316E+02  0.14806988794E+02  0.40759654439E+02  0.41800000000E+01 0. -1.
         -5    1    1    2    0  502  0.25472676638E+01 -0.49281772807E+02 -0.98350791843E+02  0.11011599502E+03  0.41800000000E+01 0. -1.
        -11    1    1    2    0    0  0.70129170831E+01 -0.38638388335E+02 -0.34273232643E+02  0.52122553036E+02  0.00000000000E+00 0.  1.
         11    1    1    2    0    0 -0.65666382939E+01  0.50294786826E+02 -0.89217116912E+02  0.10262738558E+03  0.00000000000E+00 0. -1.
</event>
<event>
 6    1  0.4988969E-006  0.1128228E+03  0.7561462E-02  0.1255430E+00
          2   -1    0    0  501    0  0.00000000000E+00  0.00000000000E+00  0.33685675179E+03  0.33685675179E+03  0.00000000000E+00 0. -1.
         -2   -1    0    0    0  501 -0.00000000000E+00 -0.00000000000E+00 -0.43777865781E+02  0.43777865781E+02  0.00000000000E+00 0.  1.
          5    1    1    2  502    0 -0.35752124372E+02  0.71924901970E+02  0.71327093116E+02  0.10750084899E+03  0.41800000000E+01 0. -1.
         -5    1    1    2    0  502  0.41128496062E+02 -0.30198487762E+02  0.35586473748E+02  0.62348788002E+02  0.41800000000E+01 0. -1.
        -11    1    1    2    0    0  0.38070272779E+02 -0.31437138554E+02  0.12983776089E+03  0.13890818372E+03  0.00000000000E+00 0. -1.
         11    1    1    2    0    0 -0.43446644469E+02 -0.10289275653E+02  0.56327558253E+02  0.71876796867E+02  0.00000000000E+00 0.  1.
</event>
<event>
 6    1  0.4988969E-006  0.1121967E+03  0.7561462E-02  0.1256555E+00
         -2   -1    0    0    0  501 -0.00000000000E+00  0.00000000000E+00  0.35918150864E+03  0.35918150864E+03  0.00000000000E+00 0.  1.
          2   -1    0    0  501    0  0.00000000000E+00 -0.00000000000E+00 -0.37912109332E+02  0.37912109332E+02  0.00000000000E+00 0. -1.
          5    1    1    2  502    0 -0.16924196962E+02 -0.75375270597E+02  0.14686657025E+03  0.16599735455E+03  0.41800000000E+01 0.  1.
         -5    1    1    2    0  502 -0.34459659795E+01  0.51237920239E+02  0.88040728520E+02  0.10200902622E+03  0.41800000000E+01 0.  1.
        -11    1    1    2    0    0  0.61418130130E+01 -0.34563185483E+02  0.25904131990E+02  0.43627510954E+02  0.00000000000E+00 0.  1.
         11    1    1    2    0    0  0.14228349928E+02  0.58700535842E+02  0.60457968548E+02  0.85459726250E+02  0.00000000000E+00 0. -1.
</event>
<event>
 6    1  0.4988969E-006  0.1430146E+03  0.7561462E-02  0.1209329E+00
          1   -1    0    0  501    0  0.00000000000E+00  0.00000000000E+00  0.74810164256E+03  0.74810164256E+03  0.00000000000E+00 0.  1.
         -1   -1    0    0    0  501 -0.00000000000E+00 -0.00000000000E+00 -0.28056328614E+02  0.28056328614E+02  0.00000000000E+00 0. -1.
          5    1    1    2  502    0  0.34122684104E+02  0.50318989191E+02  0.18891936074E+03  0.19850530347E+03  0.41800000000E+01 0.  1.
         -5    1    1    2    0  502  0.57890605082E+02 -0.72072571407E+02  0.18118352007E+03  0.20344708907E+03  0.41800000000E+01 0.  1.
        -11    1    1    2    0    0 -0.87317961928E+02  0.52208283558E+02  0.26768299150E+03  0.28636395599E+03  0.00000000000E+00 0. -1.
         11    1    1    2    0    0 -0.46953272585E+01 -0.30454701342E+02  0.82259441636E+02  0.87841622652E+02  0.00000000000E+00 0.  1.
</event>
<event>
 6    1  0.4988969E-006  0.9275744E+02  0.7561462E-02  0.1296308E+00
         -1   -1    0    0    0  501 -0.00000000000E+00  0.00000000000E+00  0.38677620927E+02  0.38677620927E+02  0.00000000000E+00 0.  1.
          1   -1    0    0  501    0  0.00000000000E+00 -0.00000000000E+00 -0.38064192191E+03  0.38064192191E+03  0.00000000000E+00 0. -1.
          5    1    1    2  502    0  0.21769932315E+02  0.40721024269E+02 -0.18000872570E+02  0.49735657066E+02  0.41800000000E+01 0. -1.
         -5    1    1    2    0  502  0.27612886386E+02 -0.57167269554E+02 -0.17388644645E+03  0.18516084052E+03  0.41800000000E+01 0. -1.
        -11    1    1    2    0    0 -0.10218225996E+02  0.31844641529E+02 -0.13599438622E+03  0.14004630099E+03  0.00000000000E+00 0. -1.
         11    1    1    2    0    0 -0.39164592705E+02 -0.15398396245E+02 -0.14082595742E+02  0.44376744264E+02  0.00000000000E+00 0.  1.
</event>
<event>
 6    1  0.4988969E-006  0.1267205E+03  0.7561462E-02  0.1232405E+00
          3   -1    0    0  501    0  0.00000000000E+00  0.00000000000E+00  0.10067084835E+03  0.10067084835E+03  0.00000000000E+00 0. -1.
         -3   -1    0    0    0  501 -0.00000000000E+00 -0.00000000000E+00 -0.17454938015E+03  0.17454938015E+03  0.00000000000E+00 0.  1.
          5    1    1    2  502    0  0.87263884331E+01  0.28410786938E+02 -0.21256127110E+02  0.36777955479E+02  0.41800000000E+01 0. -1.
         -5    1    1    2    0  502 -0.63072484440E+02 -0.83530901093E+02 -0.57606543836E+02  0.11954721253E+03  0.41800000000E+01 0.  1.
        -11    1    1    2    0    0  0.52460857194E+02 -0.10103390969E+02 -0.35683479879E+00  0.53426092667E+02  0.00000000000E+00 0.  1.
         11    1    1    2    0    0  0.18852388127E+01  0.65223505124E+02  0.53409739416E+01  0.65468967830E+02  0.00000000000E+00 0. -1.
</event>
<event>
 6    1  0.4988969E-006  0.1194267E+03  0.7561462E-02  0.1244046E+00
         -2   -1    0    0    0  501 -0.00000000000E+00  0.00000000000E+00  0.79843461455E+02  0.79843461455E+02  0.00000000000E+00 0.  1.
          2   -1    0    0  501    0  0.00000000000E+00 -0.00000000000E+00 -0.22148536562E+03  0.22148536562E+03  0.00000000000E+00 0. -1.
          5    1    1    2  502    0 -0.23464397481E+02  0.11791272525E+02 -0.67114719342E+02  0.72190511906E+02  0.41800000000E+01 0. -1.
         -5    1    1    2    0  502  0.66150565303E+02 -0.75061729626E+02 -0.33640058351E+02  0.10563752397E+03  0.41800000000E+01 0. -1.
        -11    1    1    2    0    0 -0.58319176278E+02  0.13369791711E+02 -0.49211542964E+01  0.60034118731E+02  0.00000000000E+00 0. -1.
         11    1    1    2    0    0  0.15633008457E+02  0.49900665391E+02 -0.35965972177E+02  0.63466672471E+02  0.00000000000E+00 0.  1.
</event>
<event>
 6    1  0.4988969E-006  0.1115577E+03  0.7561462E-02  0.1257712E+00
          3   -1    0    0  501    0  0.00000000000E+00  0.00000000000E+00  0.18753385218E+03  0.18753385218E+03  0.00000000000E+00 0. -1.
         -3   -1    0    0    0  501 -0.00000000000E+00 -0.00000000000E+00 -0.28571791796E+03  0.28571791796E+03  0.00000000000E+00 0.  1.
          5    1    1    2  502    0  0.63285311841E+02  0.39820750062E+02 -0.59849071321E+02  0.95865043515E+02  0.41800000000E+01 0. -1.
         -5    1    1    2    0  502  0.30803158305E+02 -0.35218231138E+02 -0.17915969871E+03  0.18521562679E+03  0.41800000000E+01 0.  1.
        -11    1    1    2    0    0 -0.44636439510E+02  0.16361387164E+02  0.12857118997E+03  0.13707901959E+03  0.00000000000E+00 0. -1.
         11    1    1    2    0    0 -0.49452030636E+02 -0.20963906088E+02  0.12253514279E+02  0.55092080236E+02  0.00000000000E+00 0.  1.
</event>
<event>
 6    1  0.4988969E-006  0.1620044E+03  0.7561462E-02  0.1186452E+00
          2   -1    0    0  501    0  0.00000000000E+00  0.00000000000E+00  0.53941221227E+03  0.53941221227E+03  0.00000000000E+00 0. -1.
         -2   -1    0    0    0  501 -0.00000000000E+00 -0.00000000000E+00 -0.77807894533E+02  0.77807894533E+02  0.00000000000E+00 0.  1.
          5    1    1    2  502    0 -0.31286670033E+02 -0.86027036765E+02  0.18485805534E+02  0.93481036487E+02  0.41800000000E+01 0.  1.
         -5    1    1    2    0  502  0.77909098520E+02 -0.33341783716E+02  0.48415331424E+02  0.97688376435E+02  0.41800000000E+01 0.  1.
        -11    1    1    2    0    0 -0.58829979923E+02  0.50342419700E+02  0.12211591389E+03  0.14459468242E+03  0.00000000000E+00 0. -1.
         11    1    1    2    0    0  0.12207551436E+02  0.69026400782E+02  0.27258726689E+03  0.28145601146E+03  0.00000000000E+00 0.  1.
</event>
<event>
 6    1  0.4988969E-006  0.1055016E+03  0.7561462E-02  0.1269134E+00
         -1   -1    0    0    0  501 -0.00000000000E+00  0.00000000000E+00  0.21453516553E+03  0.21453516553E+03  0.00000000000E+00 0.  1.
          1   -1    0    0  501    0  0.00000000000E+00 -0.00000000000E+00 -0.80886247917E+02  0.80886247917E+02  0.00000000000E+00 0. -1.
          5    1    1    2  502    0 -0.26410604942E+02 -0.12170115067E+02 -0.66465848076E+01  0.30121109604E+02  0.41800000000E+01 0.  1.
         -5    1    1    2    0  502  0.68067512040E+02  0.37980085040E+02  0.14146508266E+03  0.16157201202E+03  0.41800000000E+01 0.  1.
        -11    1    1    2    0    0 -0.21522023524E+02  0.34121889951E+02 -0.32263657575E+01  0.40471104586E+02  0.00000000000E+00 0.  1.
         11    1    1    2    0    0 -0.20134883573E+02 -0.59931859925E+02  0.20567855151E+01  0.63257187238E+02  0.00000000000E+00 0. -1.
</event>
<event>
 6    1  0.4988969E-006  0.9950334E+02  0.7561462E-02  0.1281344E+00
          1   -1    0    0  501    0  0.00000000000E+00  0.00000000000E+00  0.64161945638E+03  0.64161945638E+03  0.00000000000E+00 0. -1.
         -1   -1    0    0    0  501 -0.00000000000E+00 -0.00000000000E+00 -0.22399542920E+02  0.22399542920E+02  0.00000000000E+00 0.  1.
          5    1    1    2  502    0 -0.67909709930E+02  0.23553101122E+02  0.30636681108E+03  0.31471347700E+03  0.41800000000E+01 0. -1.
         -5    1    1    2    0  502  0.27660907762E+02 -0.11022750370E+02  0.12682123450E+02  0.32633349494E+02  0.41800000000E+01 0.  1.
        -11    1    1    2    0    0  0.65974929901E+02  0.44324941319E+01  0.24165382911E+03  0.25053724574E+03  0.00000000000E+00 0.  1.
         11    1    1    2    0    0 -0.25726127734E+02 -0.16962844883E+02  0.58517149824E+02  0.66134927067E+02  0.00000000000E+00 0. -1.
</event>
<event>
 6    1  0.4988969E-006  0.9850117E+02  0.7561462E-02  0.1283480E+00
         -3   -1    0    0    0  501 -0.00000000000E+00  0.00000000000E+00  0.21141037304E+03  0.21141037304E+03  0.00000000000E+00 0.  1.
          3   -1    0    0  501    0  0.00000000000E+00 -0.00000000000E+00 -0.66373202233E+02  0.66373202233E+02  0.00000000000E+00 0. -1.
          5    1    1    2  502    0 -0.13412447240E+02 -0.57031623730E+02  0.11774338528E+03  0.13158068636E+03  0.41800000000E+01 0.  1.
         -5    1    1    2    0  502  0.33317589293E+02  0.23676136625E+02 -0.47991719991E+01  0.41365754600E+02  0.41800000000E+01 0.  1.
        -11    1    1    2    0    0  0.35662204013E+02  0.11534433031E+02  0.24211064694E+02  0.44620752952E+02  0.00000000000E+00 0.  1.
         11    1    1    2    0    0 -0.55567346066E+02  0.21821054074E+02  0.78818928372E+01  0.60216381363E+02  0.00000000000E+00 0. -1.
</event>
<event>
 6    1  0.4988969E-006  0.1013109E+03  0.7561462E-02  0.1277563E+00
         -2   -1    0    0    0  501 -0.00000000000E+00  0.00000000000E+00  0.27091005321E+03  0.27091005321E+03  0.00000000000E+00 0.  1.
          2   -1    0    0  501    0  0.00000000000E+00 -0.00000000000E+00 -0.53658851776E+02  0.53658851776E+02  0.00000000000E+00 0. -1.
          5    1    1    2  502    0 -0.35490585640E+02 -0.26882717990E+02  0.38456521594E+02  0.58979985154E+02  0.41800000000E+01 0.  1.
         -5    1    1    2    0  502  0.63257547085E+02  0.53835276146E+02  0.13098772237E+03  0.15516123882E+03  0.41800000000E+01 0.  1.
        -11    1    1    2    0    0  0.20863776467E+02 -0.10780177972E+02  0.53922743666E+02  0.58814723413E+02  0.00000000000E+00 0.  1.
         11    1    1    2    0    0 -0.48630737912E+02 -0.16172380184E+02 -0.61157862022E+01  0.51612957594E+02  0.00000000000E+00 0. -1.
</event>
<event>
 6    1  0.4988969E-006  0.6480315E+02  0.7561462E-02  0.1378714E+00
          2   -1    0    0  501    0  0.00000000000E+00  0.00000000000E+00  0.18037352260E+02  0.18037352260E+02  0.00000000000E+00 0. -1.
         -2   -1    0    0    0  501 -0.00000000000E+00 -0.00000000000E+00 -0.73044702837E+03  0.73044702837E+03  0.00000000000E+00 0.  1.
          5    1    1    2  502    0 -0.34630228488E+01  0.13498219197E+02  0.21979456348E+01  0.14713864678E+02  0.41800000000E+01 0. -1.
         -5    1    1    2    0  502  0.85380199445E+01  0.17622616218E+02 -0.47349172611E+03  0.47391490954E+03  0.41800000000E+01 0. -1.
        -11    1    1    2    0    0 -0.46611361060E+02 -0.73800909584E+01 -0.14508356410E+03  0.15256580644E+03  0.00000000000E+00 0.  1.
         11    1    1    2    0    0  0.41536363964E+02 -0.23740744456E+02 -0.96032331530E+02  0.10728979997E+03  0.00000000000E+00 0. -1.
</event>
<event>
 6    1  0.4988969E-006  0.8695307E+02  0.7561462E-02  0.1310403E+00
         -1   -1    0    0    0  501 -0.00000000000E+00  0.00000000000E+00  0.43175021888E+03  0.43175021888E+03  0.00000000000E+00 0.  1.
          1   -1    0    0  501    0  0.00000000000E+00 -0.00000000000E+00 -0.31130989994E+02  0.31130989994E+02  0.00000000000E+00 0. -1.
          5    1    1    2  502    0  0.18590947455E+02 -0.42005260188E+02  0.25739601166E+03  0.26149616523E+03  0.41800000000E+01 0. -1.
         -5    1    1    2    0  502 -0.11661763875E+02  0.48126779006E+02  0.49951701309E+02  0.70461538855E+02  0.41800000000E+01 0. -1.
        -11    1    1    2    0    0 -0.31740942126E+02  0.23464483112E+02  0.81500877082E+02  0.90556404190E+02  0.00000000000E+00 0.  1.
         11    1    1    2    0    0  0.24811758545E+02 -0.29586001930E+02  0.11770638837E+02  0.40367100601E+02  0.00000000000E+00 0. -1.
</event>
<event>
 6    1  0.4988969E-006  0.1391880E+03  0.7561462E-02  0.1214426E+00
         -2   -1    0    0    0  501 -0.00000000000E+00  0.00000000000E+00  0.25391508714E+03  0.25391508714E+03  0.00000000000E+00 0.  1.
          2   -1    0    0  501    0  0.00000000000E+00 -0.00000000000E+00 -0.11277977338E+03  0.11277977338E+03  0.00000000000E+00 0. -1.
          5    1    1    2  502    0  0.79434016480E+01  0.58863168462E+01  0.55865623650E+02  0.56887491258E+02  0.41800000000E+01 0. -1.
         -5    1    1    2    0  502  0.40581162038E+02 -0.12766684729E+03  0.37223371256E+02  0.13909962752E+03  0.41800000000E+01 0.  1.
        -11    1    1    2    0    0 -0.12052562861E+02  0.65156688584E+02  0.73268020346E+02  0.98786948248E+02  0.00000000000E+00 0.  1.
         11    1    1    2    0    0 -0.36472000826E+02  0.56623841855E+02 -0.25221701488E+02  0.71920793492E+02  0.00000000000E+00 0. -1.
</event>
<event>
 6    1  0.4988969E-006  0.2117039E+03  0.7561462E-02  0.1140224E+00
          2   -1    0    0  501    0  0.00000000000E+00  0.00000000000E+00  0.85723257298E+03  0.85723257298E+03  0.00000000000E+00 0. -1.
         -2   -1    0    0    0  501 -0.00000000000E+00 -0.00000000000E+00 -0.74092081550E+02  0.74092081550E+02  0.00000000000E+00 0.  1.
          5    1    1    2  502    0 -0.21797859478E+02 -0.17090523406E+02  0.30708946313E+02  0.41566145500E+02  0.41800000000E+01 0.  1.
         -5    1    1    2    0  502 -0.49013124791E+02  0.18557263155E+03  0.12263231305E+03  0.22780615573E+03  0.41800000000E+01 0.  1.
        -11    1    1    2    0    0 -0.16803092923E+02 -0.68244849631E+02  0.19863057336E+03  0.21069838183E+03  0.00000000000E+00 0. -1.
         11    1    1    2    0    0  0.87614077192E+02 -0.10023725852E+03  0.43116865870E+03  0.45125397147E+03  0.00000000000E+00 0.  1.
</event>
<event>
 6    1  0.4988969E-006  0.1139007E+03  0.7561462E-02  0.1253512E+00
          2   -1    0    0  501    0  0.00000000000E+00  0.00000000000E+00  0.18950511081E+02  0.18950511081E+02  0.00000000000E+00 0. -1.
         -2   -1    0    0    0  501 -0.00000000000E+00 -0.00000000000E+00 -0.73014170918E+03  0.73014170918E+03  0.00000000000E+00 0.  1.
          5    1    1    2  502    0  0.69682715883E+02 -0.13707193237E+02 -0.23726465674E+03  0.24770054052E+03  0.41800000000E+01 0.  1.
         -5    1    1    2    0  502 -0.40606716426E+02  0.45326238892E+02 -0.18678064470E+03  0.19648881644E+03  0.41800000000E+01 0.  1.
        -11    1    1    2    0    0 -0.57201942789E+02 -0.58232378114E+01 -0.22271620995E+03  0.23001843955E+03  0.00000000000E+00 0.  1.
         11    1    1    2    0    0  0.28125943333E+02 -0.25795807843E+02 -0.64429686704E+02  0.74884423743E+02  0.00000000000E+00 0. -1.
</event>
<event>
 6    1  0.4988969E-006  0.8068261E+02  0.7561462E-02  0.1327125E+00
         -4   -1    0    0    0  501 -0.00000000000E+00  0.00000000000E+00  0.59719835108E+02  0.59719835108E+02  0.00000000000E+00 0.  1.
          4   -1    0    0  501    0  0.00000000000E+00 -0.00000000000E+00 -0.18064151626E+03  0.18064151626E+03  0.00000000000E+00 0. -1.
          5    1    1    2  502    0  0.33092273374E+02 -0.40909495193E+02 -0.35993976098E+02  0.63888371941E+02  0.41800000000E+01 0. -1.
         -5    1    1    2    0  502 -0.63089502681E+02  0.98791363793E+01  0.16099402011E+02  0.65988982636E+02  0.41800000000E+01 0.  1.
        -11    1    1    2    0    0  0.11696051049E+02  0.48922857893E+01 -0.32773329846E+02  0.35140051502E+02  0.00000000000E+00 0. -1.
         11    1    1    2    0    0  0.18301178258E+02  0.26138073024E+02 -0.68253777224E+02  0.75343945294E+02  0.00000000000E+00 0.  1.
</event>
<event>
 6    1  0.4988969E-006  0.1228377E+03  0.7561462E-02  0.1238488E+00
          2   -1    0    0  501    0  0.00000000000E+00  0.00000000000E+00  0.14687993810E+03  0.14687993810E+03  0.00000000000E+00 0. -1.
         -2   -1    0    0    0  501 -0.00000000000E+00 -0.00000000000E+00 -0.15482308054E+03  0.15482308054E+03  0.00000000000E+00 0.  1.
          5    1    1    2  502    0  0.76329152100E+02 -0.14406229699E+02  0.52758086978E+02  0.93992377648E+02  0.41800000000E+01 0. -1.
         -5    1    1    2    0  502  0.22106875137E+02 -0.18917735469E+02 -0.62348527864E+02  0.68930442987E+02  0.41800000000E+01 0. -1.
        -11    1    1    2    0    0 -0.83078148439E+02 -0.17925641119E+02 -0.32738165666E+01  0.85053073034E+02  0.00000000000E+00 0. -1.
         11    1    1    2    0    0 -0.15357878797E+02  0.51249606287E+02  0.49211150129E+01  0.53727124980E+02  0.00000000000E+00 0.  1.
</event>
<event>
 6    1  0.4988969E-006  0.1715017E+03  0.7561462E-02  0.1176291E+00
          1   -1    0    0  501    0  0.00000000000E+00  0.00000000000E+00  0.49888758190E+03  0.49888758190E+03  0.00000000000E+00 0. -1.
         -1   -1    0    0    0  501 -0.00000000000E+00 -0.00000000000E+00 -0.85222088216E+02  0.85222088216E+02  0.00000000000E+00 0.  1.
          5    1    1    2  502    0 -0.42823154246E+02 -0.30901444210E+02 -0.11227737949E+02  0.54150312033E+02  0.41800000000E+01 0.  1.
         -5    1    1    2    0  502 -0.11238474793E+03  0.60211061340E+02  0.11851383830E+03  0.17412267441E+03  0.41800000000E+01 0.  1.
        -11    1    1    2    0    0  0.13728647895E+03 -0.38138209857E+02  0.18858813890E+03  0.23636325114E+03  0.00000000000E+00 0.  1.
         11    1    1    2    0    0  0.17921423226E+02  0.88285927271E+01  0.11779125444E+03  0.11947343254E+03  0.00000000000E+00 0. -1.
</event>
<event>
 6    1  0.4988969E-006  0.1162571E+03  0.7561462E-02  0.1249403E+00
          2   -1    0    0  501    0  0.00000000000E+00  0.00000000000E+00  0.11664973003E+03  0.11664973003E+03  0.00000000000E+00 0. -1.
         -2   -1    0    0    0  501 -0.00000000000E+00 -0.00000000000E+00 -0.12491101001E+03  0.12491101001E+03  0.00000000000E+00 0.  1.
          5    1    1    2  502    0 -0.66989714677E+02  0.14625998404E+02 -0.27716238995E+02  0.74075664060E+02  0.41800000000E+01 0. -1.
         -5    1    1    2    0  502  0.55836562460E+02  0.27934531276E+02 -0.66518871554E+01  0.62926780847E+02  0.41800000000E+01 0. -1.
        -11    1    1    2    0    0  0.41160478855E+02 -0.55054888231E+02  0.17441646719E+02  0.70918522108E+02  0.00000000000E+00 0. -1.
         11    1    1    2    0    0 -0.30007326638E+02  0.12494358551E+02  0.86651994589E+01  0.33639773025E+02  0.00000000000E+00 0.  1.
</event>
<event>
 6    1  0.4988969E-006  0.7965920E+02  0.7561462E-02  0.1330021E+00
          1   -1    0    0  501    0  0.00000000000E+00  0.00000000000E+00  0.33531417755E+03  0.33531417755E+03  0.00000000000E+00 0. -1.
         -1   -1    0    0    0  501 -0.00000000000E+00 -0.00000000000E+00 -0.38748890409E+02  0.38748890409E+02  0.00000000000E+00 0.  1.
          5    1    1    2  502    0 -0.16473747916E+02  0.71134845885E+01  0.13723383310E+03  0.13846509806E+03  0.41800000000E+01 0. -1.
         -5    1    1    2    0  502  0.40961753005E+02 -0.19554582426E+02 -0.47141543504E+01  0.45825130162E+02  0.41800000000E+01 0. -1.
        -11    1    1    2    0    0  0.12318870910E+02 -0.33936766320E+02  0.66317638363E+02  0.75508197216E+02  0.00000000000E+00 0.  1.
         11    1    1    2    0    0 -0.36806876000E+02  0.46377864158E+02  0.97727970028E+02  0.11426464252E+03  0.00000000000E+00 0. -1.
</event>
<event>
 6    1  0.4988969E-006  0.2092066E+03  0.7561462E-02  0.1142196E+00
          1   -1    0    0  501    0  0.00000000000E+00  0.00000000000E+00  0.36456246847E+03  0.36456246847E+03  0.00000000000E+00 0. -1.
         -1   -1    0    0    0  501 -0.00000000000E+00 -0.00000000000E+00 -0.15192936994E+03  0.15192936994E+03  0.00000000000E+00 0.  1.
          5    1    1    2  502    0  0.34916648684E+02 -0.16588356993E+03  0.17789236124E+02  0.17050061715E+03  0.41800000000E+01 0.  1.
         -5    1    1    2    0  502  0.46473296774E+02  0.25591795226E+01 -0.19773901998E+02  0.50742450799E+02  0.41800000000E+01 0.  1.
        -11    1    1    2    0    0 -0.81038247031E+02  0.65263410585E+02  0.12224236417E+03  0.16052945475E+03  0.00000000000E+00 0.  1.
         11    1    1    2    0    0 -0.35169842603E+00  0.98060979822E+02  0.92375400235E+02  0.13471931570E+03  0.00000000000E+00 0. -1.
</event>
<event>
 6    1  0.4988969E-006  0.1281453E+03  0.7561462E-02  0.1230234E+00
         -1   -1    0    0    0  501 -0.00000000000E+00  0.00000000000E+00  0.23703288750E+03  0.23703288750E+03  0.00000000000E+00 0.  1.
          1   -1    0    0  501    0  0.00000000000E+00 -0.00000000000E+00 -0.80300408390E+02  0.80300408390E+02  0.00000000000E+00 0. -1.
          5    1    1    2  502    0 -0.70667887302E+02 -0.64512845991E+02  0.10010625488E+03  0.13854454973E+03  0.41800000000E+01 0.  1.
         -5    1    1    2    0  502  0.30752306067E+01  0.47097825812E+02  0.44506272180E+02  0.65007252694E+02  0.41800000000E+01 0.  1.
        -11    1    1    2    0    0  0.89391796057E+02  0.93187652496E+01  0.10008654506E+02  0.90431774024E+02  0.00000000000E+00 0.  1.
         11    1    1    2    0    0 -0.21799139362E+02  0.80962549290E+01  0.21112975457E+01  0.23349719444E+02  0.00000000000E+00 0. -1.
</event>
<event>
 6    1  0.4988969E-006  0.2827921E+03  0.7561462E-02  0.1094174E+00
         -1   -1    0    0    0  501 -0.00000000000E+00  0.00000000000E+00  0.12454938033E+03  0.12454938033E+03  0.00000000000E+00 0.  1.
          1   -1    0    0  501    0  0.00000000000E+00 -0.00000000000E+00 -0.78095693302E+03  0.78095693302E+03  0.00000000000E+00 0. -1.
          5    1    1    2  502    0  0.63178521814E+02  0.80187953105E+02 -0.35850691783E+02  0.10827916671E+03  0.41800000000E+01 0. -1.
         -5    1    1    2    0  502  0.18666722685E+03 -0.57250289405E+00 -0.11166475481E+03  0.21755797206E+03  0.41800000000E+01 0. -1.
        -11    1    1    2    0    0 -0.97772989231E+02 -0.77247333207E+02 -0.25218260620E+03  0.28128770819E+03  0.00000000000E+00 0.  1.
         11    1    1    2    0    0 -0.15207275944E+03 -0.23681170045E+01 -0.25670949990E+03  0.29838146638E+03  0.00000000000E+00 0. -1.
</event>
<event>
 6    1  0.4988969E-006  0.1789906E+03  0.7561462E-02  0.1168784E+00
         -4   -1    0    0    0  501 -0.00000000000E+00  0.00000000000E+00  0.34426584328E+03  0.34426584328E+03  0.00000000000E+00 0. -1.
          4   -1    0    0  501    0  0.00000000000E+00 -0.00000000000E+00 -0.13889132226E+03  0.13889132226E+03  0.00000000000E+00 0.  1.
          5    1    1    2  502    0  0.32261324470E+02 -0.37931374281E+02  0.26646038213E+02  0.56630962944E+02  0.41800000000E+01 0. -1.
         -5    1    1    2    0  502 -0.93693389969E+02 -0.99010775117E+02  0.20783360665E+03  0.24858371903E+03  0.41800000000E+01 0. -1.
        -11    1    1    2    0    0  0.78747363655E+02  0.80574390798E+02 -0.36691854785E+02  0.11848912162E+03  0.00000000000E+00 0. -1.
         11    1    1    2    0    0 -0.17315298156E+02  0.56367758601E+02  0.75867309359E+01  0.59453361942E+02  0.00000000000E+00 0.  1.
</event>
<event>
 6    1  0.4988969E-006  0.7677509E+02  0.7561462E-02  0.1338461E+00
          3   -1    0    0  501    0  0.00000000000E+00  0.00000000000E+00  0.73756214795E+02  0.73756214795E+02  0.00000000000E+00 0. -1.
         -3   -1    0    0    0  501 -0.00000000000E+00 -0.00000000000E+00 -0.19011012000E+03  0.19011012000E+03  0.00000000000E+00 0.  1.
          5    1    1    2  502    0  0.13775242009E+02  0.39053851184E+02  0.34433314360E+02  0.54019312496E+02  0.41800000000E+01 0.  1.
         -5    1    1    2    0  502  0.21215184159E+02 -0.69581417812E+01 -0.86698536355E+02  0.89624820123E+02  0.41800000000E+01 0.  1.
        -11    1    1    2    0    0  0.11179838349E+01 -0.49231725593E+02 -0.63361049110E+02  0.80247337881E+02  0.00000000000E+00 0.  1.
         11    1    1    2    0    0 -0.36108410002E+02  0.17136016190E+02 -0.72763409704E+00  0.39974864292E+02  0.00000000000E+00 0. -1.
</event>
<event>
 6    1  0.4988969E-006  0.1170585E+03  0.7561462E-02  0.1248030E+00
          2   -1    0    0  501    0  0.00000000000E+00  0.00000000000E+00  0.59895570466E+03  0.59895570466E+03  0.00000000000E+00 0.  1.
         -2   -1    0    0    0  501 -0.00000000000E+00 -0.00000000000E+00 -0.53727002858E+02  0.53727002858E+02  0.00000000000E+00 0. -1.
          5    1    1    2  502    0  0.74925052177E+02  0.18960174960E+02  0.14304611489E+03  0.16264352143E+03  0.41800000000E+01 0. -1.
         -5    1    1    2    0  502  0.28441652123E+02 -0.34445316953E+02 -0.12075598655E+02  0.46461811398E+02  0.41800000000E+01 0. -1.
        -11    1    1    2    0    0 -0.21830774828E+02 -0.13089333241E+02  0.58330186524E+01  0.26113932697E+02  0.00000000000E+00 0. -1.
         11    1    1    2    0    0 -0.81535929472E+02  0.28574475234E+02  0.40842516692E+03  0.41746344200E+03  0.00000000000E+00 0.  1.
</event>
<event>
 6    1  0.4988969E-006  0.1745141E+03  0.7561462E-02  0.1173221E+00
          2   -1    0    0  501    0  0.00000000000E+00  0.00000000000E+00  0.32244598979E+03  0.32244598979E+03  0.00000000000E+00 0. -1.
         -2   -1    0    0    0  501 -0.00000000000E+00 -0.00000000000E+00 -0.13808319656E+03  0.13808319656E+03  0.00000000000E+00 0.  1.
          5    1    1    2  502    0 -0.83847483393E+02  0.10707009911E+02 -0.29107867837E+02  0.89497379305E+02  0.41800000000E+01 0. -1.
         -5    1    1    2    0  502  0.79949691288E+02  0.10383253999E+03  0.27231714186E+02  0.13391112035E+03  0.41800000000E+01 0.  1.
        -11    1    1    2    0    0  0.36019896416E+02 -0.59218914429E+02  0.14580872841E+03  0.16144503103E+03  0.00000000000E+00 0.  1.
         11    1    1    2    0    0 -0.32122104312E+02 -0.55320635468E+02  0.40430218463E+02  0.75675655656E+02  0.00000000000E+00 0. -1.
</event>
<event>
 6    1  0.4988969E-006  0.1438677E+03  0.7561462E-02  0.1208217E+00
          2   -1    0    0  501    0  0.00000000000E+00  0.00000000000E+00  0.27786034456E+03  0.27786034456E+03  0.00000000000E+00 0. -1.
         -2   -1    0    0    0  501 -0.00000000000E+00 -0.00000000000E+00 -0.87026398440E+02  0.87026398440E+02  0.00000000000E+00 0.  1.
          5    1    1    2  502    0 -0.11844186164E+03 -0.97719749381E+01  0.83629531850E+02  0.14537997483E+03  0.41800000000E+01 0. -1.
         -5    1    1    2    0  502  0.51487385051E+02 -0.27547113598E+02 -0.49658387538E+00  0.58544968037E+02  0.41800000000E+01 0.  1.
        -11    1    1    2    0    0 -0.14994766880E+02 -0.76121645392E+01  0.45988398302E+02  0.48966527967E+02  0.00000000000E+00 0. -1.
         11    1    1    2    0    0  0.81949243472E+02  0.44931253075E+02  0.61712599847E+02  0.11199527217E+03  0.00000000000E+00 0.  1.
</event>
<event>
 6    1  0.4988969E-006  0.1469183E+03  0.7561462E-02  0.1204312E+00
         -2   -1    0    0    0  501 -0.00000000000E+00  0.00000000000E+00  0.37037177352E+02  0.37037177352E+02  0.00000000000E+00 0.  1.
          2   -1    0    0  501    0  0.00000000000E+00 -0.00000000000E+00 -0.67494936440E+03  0.67494936440E+03  0.00000000000E+00 0. -1.
          5    1    1    2  502    0  0.98643004290E+02 -0.13392300125E+02 -0.12353500526E+03  0.15870780045E+03  0.41800000000E+01 0. -1.
         -5    1    1    2    0  502  0.70145808758E+01  0.55078403267E+02 -0.18333105723E+03  0.19160006210E+03  0.41800000000E+01 0. -1.
        -11    1    1    2    0    0 -0.43507882723E+02  0.22664945622E+02 -0.68099747091E+02  0.83929799076E+02  0.00000000000E+00 0.  1.
         11    1    1    2    0    0 -0.62149702442E+02 -0.64351048764E+02 -0.26294637746E+03  0.27774888012E+03  0.00000000000E+00 0. -1.
</event>
<event>
 6    1  0.4988969E-006  0.3840880E+03  0.7561462E-02  0.1049433E+00
         -1   -1    0    0    0  501 -0.00000000000E+00  0.00000000000E+00  0.12514570244E+03  0.12514570244E+03  0.00000000000E+00 0.  1.
          1   -1    0    0  501    0  0.00000000000E+00 -0.00000000000E+00 -0.15252756689E+04  0.15252756689E+04  0.00000000000E+00 0. -1.
          5    1    1    2  502    0  0.52218608385E+02 -0.16706236437E+03 -0.23786829558E+03  0.29535642043E+03  0.41800000000E+01 0. -1.
         -5    1    1    2    0  502  0.11637570824E+03 -0.17333462844E+03 -0.11727974571E+03  0.23949991657E+03  0.41800000000E+01 0. -1.
        -11    1    1    2    0    0 -0.13343647541E+03  0.31109804484E+03 -0.84220009892E+03  0.90768292542E+03  0.00000000000E+00 0.  1.
         11    1    1    2    0    0 -0.35157841215E+02  0.29298947968E+02 -0.20278182625E+03  0.20788210892E+03  0.00000000000E+00 0. -1.
</event>
<event>
 6    1  0.4988969E-006  0.1217511E+03  0.7561462E-02  0.1240236E+00
          4   -1    0    0  501    0  0.00000000000E+00  0.00000000000E+00  0.41886439072E+02  0.41886439072E+02  0.00000000000E+00 0. -1.
         -4   -1    0    0    0  501 -0.00000000000E+00 -0.00000000000E+00 -0.43842956973E+03  0.43842956973E+03  0.00000000000E+00 0.  1.
          5    1    1    2  502    0 -0.89358918219E+01 -0.59889468556E+02 -0.20364684028E+03  0.21249966250E+03  0.41800000000E+01 0.  1.
         -5    1    1    2    0  502  0.64387396295E+02  0.40236206051E+01 -0.52724958788E+02  0.83422538942E+02  0.41800000000E+01 0.  1.
        -11    1    1    2    0    0 -0.55059817429E+02 -0.68108155945E+01 -0.50725091286E+02  0.75173170682E+02  0.00000000000E+00 0.  1.
         11    1    1    2    0    0 -0.39168704400E+00  0.62676663546E+02 -0.89446240304E+02  0.10922063668E+03  0.00000000000E+00 0. -1.
</event>
<event>
 6    1  0.4988969E-006  0.1847326E+03  0.7561462E-02  0.1163300E+00
         -1   -1    0    0    0  501 -0.00000000000E+00  0.00000000000E+00  0.49725497592E+03  0.49725497592E+03  0.00000000000E+00 0.  1.
          1   -1    0    0  501    0  0.00000000000E+00 -0.00000000000E+00 -0.80979926107E+02  0.80979926107E+02  0.00000000000E+00 0. -1.
          5    1    1    2  502    0  0.12611865056E+03 -0.11848086555E+03  0.25234327242E+03  0.30600364223E+03  0.41800000000E+01 0.  1.
         -5    1    1    2    0  502 -0.66071175169E+01  0.21405419073E+02  0.58106767073E+02  0.62415661073E+02  0.41800000000E+01 0.  1.
        -11    1    1    2    0    0 -0.64726213600E+02  0.99550646283E+02  0.98907838619E+02  0.15453987978E+03  0.00000000000E+00 0.  1.
         11    1    1    2    0    0 -0.54785319447E+02 -0.24751998060E+01  0.69171717057E+01  0.55275718949E+02  0.00000000000E+00 0. -1.
</event>
<event>
 6    1  0.4988969E-006  0.9144407E+02  0.7561462E-02  0.1299392E+00
          3   -1    0    0  501    0  0.00000000000E+00  0.00000000000E+00  0.38656337563E+03  0.38656337563E+03  0.00000000000E+00 0. -1.
         -3   -1    0    0    0  501 -0.00000000000E+00 -0.00000000000E+00 -0.39113024485E+02  0.39113024485E+02  0.00000000000E+00 0.  1.
          5    1    1    2  502    0  0.47213129033E+02  0.12448681279E+02  0.17582248993E+03  0.18252416164E+03  0.41800000000E+01 0.  1.
         -5    1    1    2    0  502  0.15675852739E+01 -0.43218574616E+02  0.34897914246E+01  0.43588456724E+02  0.41800000000E+01 0.  1.
        -11    1    1    2    0    0  0.16728765168E+02  0.16277022841E+02  0.60110919635E+01  0.24102412393E+02  0.00000000000E+00 0. -1.
         11    1    1    2    0    0 -0.65509479475E+02  0.14492870496E+02  0.16212697783E+03  0.17546136935E+03  0.00000000000E+00 0.  1.
</event>
<event>
 6    1  0.4988969E-006  0.1500943E+03  0.7561462E-02  0.1200357E+00
         -1   -1    0    0    0  501 -0.00000000000E+00  0.00000000000E+00  0.44440041253E+02  0.44440041253E+02  0.00000000000E+00 0.  1.
          1   -1    0    0  501    0  0.00000000000E+00 -0.00000000000E+00 -0.58030317925E+03  0.58030317925E+03  0.00000000000E+00 0. -1.
          5    1    1    2  502    0 -0.98902095848E+02  0.53575733228E+02 -0.11208576112E+03  0.15884795875E+03  0.41800000000E+01 0. -1.
         -5    1    1    2    0  502 -0.16953635187E+02 -0.35501489036E+02 -0.14399155516E+03  0.14932790037E+03  0.41800000000E+01 0. -1.
        -11    1    1    2    0    0  0.32073132123E+02  0.36104136842E+02 -0.87946293238E+02  0.10033316997E+03  0.00000000000E+00 0.  1.
         11    1    1    2    0    0  0.83782598912E+02 -0.54178381034E+02 -0.19183952848E+03  0.21623419142E+03  0.00000000000E+00 0. -1.
</event>
<event>
 6    1  0.4988969E-006  0.1053474E+03  0.7561462E-02  0.1269437E+00
          1   -1    0    0  501    0  0.00000000000E+00  0.00000000000E+00  0.46114811664E+02  0.46114811664E+02  0.00000000000E+00 0. -1.
         -1   -1    0    0    0  501 -0.00000000000E+00 -0.00000000000E+00 -0.31441460458E+03  0.31441460458E+03  0.00000000000E+00 0.  1.
          5    1    1    2  502    0  0.54409610106E+02  0.14547395523E+01 -0.26999126146E+02  0.60901126030E+02  0.41800000000E+01 0. -1.
         -5    1    1    2    0  502 -0.56712422778E+02  0.48063780117E+02 -0.95255790092E+02  0.12090311742E+03  0.41800000000E+01 0. -1.
        -11    1    1    2    0    0  0.17707620840E+02 -0.60299316628E+02 -0.14702880198E+03  0.15989695442E+03  0.00000000000E+00 0.  1.
         11    1    1    2    0    0 -0.15404808169E+02  0.10780796958E+02  0.98392530767E+00  0.18828218364E+02  0.00000000000E+00 0. -1.
</event>
<event>
 6    1  0.4988969E-006  0.1982968E+03  0.7561462E-02  0.1151184E+00
          2   -1    0    0  501    0  0.00000000000E+00  0.00000000000E+00  0.10563819061E+04  0.10563819061E+04  0.00000000000E+00 0. -1.
         -2   -1    0    0    0  501 -0.00000000000E+00 -0.00000000000E+00 -0.36005404440E+03  0.36005404440E+03  0.00000000000E+00 0.  1.
          5    1    1    2  502    0 -0.49426840828E+02  0.12946413185E+03  0.52791490509E+03  0.54581644666E+03  0.41800000000E+01 0. -1.
         -5    1    1    2    0  502 -0.66873180735E+02 -0.69395617669E+02 -0.33150561583E+03  0.34525529653E+03  0.41800000000E+01 0.  1.
        -11    1    1    2    0    0  0.70510259195E+02  0.16368740595E+02  0.22932908223E+03  0.24048172546E+03  0.00000000000E+00 0.  1.
         11    1    1    2    0    0  0.45789762369E+02 -0.76437254780E+02  0.27058949025E+03  0.28488248189E+03  0.00000000000E+00 0. -1.
</event>
<event>
 6    1  0.4988969E-006  0.1602919E+03  0.7561462E-02  0.1188368E+00
         -1   -1    0    0    0  501 -0.00000000000E+00  0.00000000000E+00  0.59625880094E+02  0.59625880094E+02  0.00000000000E+00 0.  1.
          1   -1    0    0  501    0  0.00000000000E+00 -0.00000000000E+00 -0.82521888414E+03  0.82521888414E+03  0.00000000000E+00 0. -1.
          5    1    1    2  502    0  0.10199279085E+03  0.10937272090E+03 -0.12608930315E+03  0.19565506953E+03  0.41800000000E+01 0. -1.
         -5    1    1    2    0  502  0.13173653727E+02 -0.22476912510E+02  0.11469132478E+01  0.26411068863E+02  0.41800000000E+01 0.  1.
        -11    1    1    2    0    0 -0.27309107347E+02 -0.15649220004E+02 -0.36798081630E+02  0.48422972260E+02  0.00000000000E+00 0.  1.
         11    1    1    2    0    0 -0.87857337233E+02 -0.71246588388E+02 -0.60385253252E+03  0.61435565359E+03  0.00000000000E+00 0. -1.
</event>
<event>
 6    1  0.4988969E-006  0.1195946E+03  0.7561462E-02  0.1243767E+00
          2   -1    0    0  501    0  0.00000000000E+00  0.00000000000E+00  0.27300087786E+03  0.27300087786E+03  0.00000000000E+00 0.  1.
         -2   -1    0    0    0  501 -0.00000000000E+00 -0.00000000000E+00 -0.55116302617E+02  0.55116302617E+02  0.00000000000E+00 0. -1.
          5    1    1    2  502    0  0.40618717376E+02  0.49893597739E+02  0.44343909032E+02  0.78250277730E+02  0.41800000000E+01 0.  1.
         -5    1    1    2    0  502 -0.13361637474E+02 -0.60812826301E+02  0.47035710776E+02  0.78144505161E+02  0.41800000000E+01 0. -1.
        -11    1    1    2    0    0 -0.19340758921E+02 -0.48580527765E+02  0.80948634962E+02  0.96368117839E+02  0.00000000000E+00 0. -1.
         11    1    1    2    0    0 -0.79163209809E+01  0.59499756327E+02  0.45556320470E+02  0.75354279743E+02  0.00000000000E+00 0.  1.
</event>
<event>
 6    1  0.4988969E-006  0.1168678E+03  0.7561462E-02  0.1248355E+00
          2   -1    0    0  501    0  0.00000000000E+00  0.00000000000E+00  0.54497859816E+03  0.54497859816E+03  0.00000000000E+00 0.  1.
         -2   -1    0    0    0  501 -0.00000000000E+00 -0.00000000000E+00 -0.42553828603E+02  0.42553828603E+02  0.00000000000E+00 0. -1.
          5    1    1    2  502    0  0.27402641651E+02 -0.51870684121E+02  0.13247341190E+02  0.60286292714E+02  0.41800000000E+01 0.  1.
         -5    1    1    2    0  502  0.59404112994E+02  0.11574438764E+01  0.18744448225E+03  0.19668018365E+03  0.41800000000E+01 0.  1.
        -11    1    1    2    0    0 -0.15544859195E+01  0.26762861873E+02  0.15540304924E+02  0.30986582245E+02  0.00000000000E+00 0.  1.
         11    1    1    2    0    0 -0.85252268725E+02  0.23950378371E+02  0.28619264119E+03  0.29957936815E+03  0.00000000000E+00 0. -1.
</event>
<event>
 6    1  0.4988969E-006  0.1277642E+03  0.7561462E-02  0.1230811E+00
         -1   -1    0    0    0  501 -0.00000000000E+00  0.00000000000E+00  0.27363394154E+02  0.27363394154E+02  0.00000000000E+00 0.  1.
          1   -1    0    0  501    0  0.00000000000E+00 -0.00000000000E+00 -0.93047602620E+03  0.93047602620E+03  0.00000000000E+00 0. -1.
          5    1    1    2  502    0  0.20305389458E+02 -0.23853128298E+02 -0.15902065901E+03  0.16213057380E+03  0.41800000000E+01 0. -1.
         -5    1    1    2    0  502  0.52072791795E+02  0.10319946986E+03 -0.17880364155E+03  0.21295520857E+03  0.41800000000E+01 0.  1.
        -11    1    1    2    0    0 -0.68425580879E+02 -0.68973678701E+02 -0.56312466279E+03  0.57144449801E+03  0.00000000000E+00 0. -1.
         11    1    1    2    0    0 -0.39526003744E+01 -0.10372662863E+02 -0.21636687066E+01  0.11309139970E+02  0.00000000000E+00 0.  1.
</event>
<event>
 6    1  0.4988969E-006  0.1155682E+03  0.7561462E-02  0.1250592E+00
          1   -1    0    0  501    0  0.00000000000E+00  0.00000000000E+00  0.40004935162E+02  0.40004935162E+02  0.00000000000E+00 0. -1.
         -1   -1    0    0    0  501 -0.00000000000E+00 -0.00000000000E+00 -0.82080000153E+03  0.82080000153E+03  0.00000000000E+00 0.  1.
          5    1    1    2  502    0 -0.44469384210E+02  0.31636619523E+02 -0.35746080866E+03  0.36162702326E+03  0.41800000000E+01 0.  1.
         -5    1    1    2    0  502  0.78285208607E+02  0.57499400374E+01 -0.37578350318E+03  0.38391711262E+03  0.41800000000E+01 0.  1.
        -11    1    1    2    0    0  0.26581754504E+02  0.33740760081E+00 -0.33348426376E+02  0.42647638366E+02  0.00000000000E+00 0.  1.
         11    1    1    2    0    0 -0.60397578901E+02 -0.37723967161E+02 -0.14202328152E+02  0.72613162446E+02  0.00000000000E+00 0. -1.
</event>
<event>
 6    1  0.4988969E-006  0.7508961E+02  0.7561462E-02  0.1343594E+00
         -2   -1    0    0    0  501 -0.00000000000E+00  0.00000000000E+00  0.57733870033E+02  0.57733870033E+02  0.00000000000E+00 0. -1.
          2   -1    0    0  501    0  0.00000000000E+00 -0.00000000000E+00 -0.25437037674E+03  0.25437037674E+03  0.00000000000E+00 0.  1.
          5    1    1    2  502    0  0.49751352841E+01  0.16516951379E+02 -0.94021970227E+02  0.95682626110E+02  0.41800000000E+01 0. -1.
         -5    1    1    2    0  502 -0.40611529426E+02 -0.46103976805E+02  0.93892829398E+01  0.62293691765E+02  0.41800000000E+01 0. -1.
        -11    1    1    2    0    0  0.24627677290E+01 -0.15040773951E+02  0.11228428895E+02  0.18930602774E+02  0.00000000000E+00 0. -1.
         11    1    1    2    0    0  0.33173626413E+02  0.44627799377E+02 -0.12323224831E+03  0.13519732612E+03  0.00000000000E+00 0.  1.
</event>
<event>
 6    1  0.4988969E-006  0.1259382E+03  0.7561462E-02  0.1233610E+00
          2   -1    0    0  501    0  0.00000000000E+00  0.00000000000E+00  0.22123388403E+03  0.22123388403E+03  0.00000000000E+00 0. -1.
         -2   -1    0    0    0  501 -0.00000000000E+00 -0.00000000000E+00 -0.74257535834E+02  0.74257535834E+02  0.00000000000E+00 0.  1.
          5    1    1    2  502    0 -0.28475132572E+02 -0.30050373340E+02  0.96517439588E+01  0.42714010281E+02  0.41800000000E+01 0.  1.
         -5    1    1    2    0  502  0.94104915740E+02  0.25792100058E+02  0.62655475578E+02  0.11603511801E+03  0.41800000000E+01 0.  1.
        -11    1    1    2    0    0 -0.22101550592E+02 -0.43002918122E+02  0.19789662495E+02  0.52243279446E+02  0.00000000000E+00 0. -1.
         11    1    1    2    0    0 -0.43528232576E+02  0.47261191404E+02  0.54879466166E+02  0.84499012129E+02  0.00000000000E+00 0.  1.
</event>
<event>
 6    1  0.4988969E-006  0.1085161E+03  0.7561462E-02  0.1263343E+00
          2   -1    0    0  501    0  0.00000000000E+00  0.00000000000E+00  0.61512893361E+03  0.61512893361E+03  0.00000000000E+00 0.  1.
         -2   -1    0    0    0  501 -0.00000000000E+00 -0.00000000000E+00 -0.38191800224E+02  0.38191800224E+02  0.00000000000E+00 0. -1.
          5    1    1    2  502    0 -0.15068158935E+02  0.22574697956E+02 -0.43977633529E+01  0.27811492661E+02  0.41800000000E+01 0.  1.
         -5    1    1    2    0  502 -0.49193311557E+02 -0.76137710743E+02  0.19462149235E+03  0.21473688687E+03  0.41800000000E+01 0.  1.
        -11    1    1    2    0    0  0.65467495548E+02  0.24751508491E+02  0.37175625029E+03  0.37828737723E+03  0.00000000000E+00 0.  1.
         11    1    1    2    0    0 -0.12060250564E+01  0.28811504297E+02  0.14957154103E+02  0.32484977068E+02  0.00000000000E+00 0. -1.
</event>
<event>
 6    1  0.4988969E-006  0.1213580E+03  0.7561462E-02  0.1240873E+00
          1   -1    0    0  501    0  0.00000000000E+00  0.00000000000E+00  0.30103224262E+03  0.30103224262E+03  0.00000000000E+00 0. -1.
         -1   -1    0    0    0  501 -0.00000000000E+00 -0.00000000000E+00 -0.58671843900E+02  0.58671843900E+02  0.00000000000E+00 0.  1.
          5    1    1    2  502    0  0.10143651325E+03 -0.22611888309E+01  0.12748337263E+03  0.16298454495E+03  0.41800000000E+01 0.  1.
         -5    1    1    2    0  502 -0.25092809755E+02 -0.87090141988E+01 -0.61662590251E+01  0.27586068587E+02  0.41800000000E+01 0.  1.
        -11    1    1    2    0    0 -0.82209621020E+02  0.35142829232E+02  0.74570439907E+02  0.11642246666E+03  0.00000000000E+00 0.  1.
         11    1    1    2    0    0  0.58659175203E+01 -0.24172626202E+02  0.46472845213E+02  0.52711006328E+02  0.00000000000E+00 0. -1.
</event>
<event>
 6    1  0.4988969E-006  0.1006108E+03  0.7561462E-02  0.1279017E+00
         -1   -1    0    0    0  501 -0.00000000000E+00  0.00000000000E+00  0.41133613780E+02  0.41133613780E+02  0.00000000000E+00 0.  1.
          1   -1    0    0  501    0  0.00000000000E+00 -0.00000000000E+00 -0.46482547689E+03  0.46482547689E+03  0.00000000000E+00 0. -1.
          5    1    1    2  502    0  0.20194858308E+02 -0.28843625299E+02  0.88803949927E+01  0.36552986714E+02  0.41800000000E+01 0. -1.
         -5    1    1    2    0  502 -0.17526525636E+02  0.68646492229E+02 -0.10260942759E+03  0.12476252252E+03  0.41800000000E+01 0. -1.
        -11    1    1    2    0    0  0.39834661362E+02 -0.55799590319E+01 -0.90407525042E+02  0.98951790145E+02  0.00000000000E+00 0.  1.
         11    1    1    2    0    0 -0.42502994035E+02 -0.34222907898E+02 -0.23955530547E+03  0.24569179129E+03  0.00000000000E+00 0. -1.
</event>
<event>
 6    1  0.4988969E-006  0.7880391E+02  0.7561462E-02  0.1332480E+00
         -1   -1    0    0    0  501 -0.00000000000E+00  0.00000000000E+00  0.63839317182E+02  0.63839317182E+02  0.00000000000E+00 0.  1.
          1   -1    0    0  501    0  0.00000000000E+00 -0.00000000000E+00 -0.22130616696E+03  0.22130616696E+03  0.00000000000E+00 0. -1.
          5    1    1    2  502    0 -0.36332804070E+02  0.93175947067E+01 -0.86211408582E+02  0.94110411711E+02  0.41800000000E+01 0.  1.
         -5    1    1    2    0  502  0.99409163339E+01 -0.43072323359E+02  0.25700260058E+02  0.51303241848E+02  0.41800000000E+01 0.  1.
        -11    1    1    2    0    0 -0.18427732649E+02 -0.14325573660E+01 -0.77262822287E+02  0.79442918243E+02  0.00000000000E+00 0. -1.
         11    1    1    2    0    0  0.44819620385E+02  0.35187286019E+02 -0.19692878963E+02  0.60288912336E+02  0.00000000000E+00 0.  1.
</event>
<event>
 6    1  0.4988969E-006  0.1133270E+03  0.7561462E-02  0.1254530E+00
         -2   -1    0    0    0  501 -0.00000000000E+00  0.00000000000E+00  0.38405876746E+02  0.38405876746E+02  0.00000000000E+00 0. -1.
          2   -1    0    0  501    0  0.00000000000E+00 -0.00000000000E+00 -0.37513047774E+03  0.37513047774E+03  0.00000000000E+00 0.  1.
          5    1    1    2  502    0 -0.39430080822E+01  0.80019760923E+02 -0.10537894344E+03  0.13244207629E+03  0.41800000000E+01 0.  1.
         -5    1    1    2    0  502  0.23619894011E+02 -0.43836139294E+02 -0.42723176392E+02  0.65743811133E+02  0.41800000000E+01 0.  1.
        -11    1    1    2    0    0  0.24566771946E+02 -0.45070584633E+02 -0.59568293014E+02  0.78633742221E+02  0.00000000000E+00 0. -1.
         11    1    1    2    0    0 -0.44243657875E+02  0.88869630041E+01 -0.12905418815E+03  0.13671672484E+03  0.00000000000E+00 0.  1.
</event>
<event>
 6    1  0.4988969E-006  0.1574440E+03  0.7561462E-02  0.1191613E+00
          1   -1    0    0  501    0  0.00000000000E+00  0.00000000000E+00  0.39279075663E+03  0.39279075663E+03  0.00000000000E+00 0. -1.
         -1   -1    0    0    0  501 -0.00000000000E+00 -0.00000000000E+00 -0.68976154097E+02  0.68976154097E+02  0.00000000000E+00 0.  1.
          5    1    1    2  502    0  0.60762137286E+01  0.60171933236E+02  0.11080272386E+03  0.12630240670E+03  0.41800000000E+01 0. -1.
         -5    1    1    2    0  502  0.10541545887E+03 -0.99922271080E+01  0.81754877779E+02  0.13384168264E+03  0.41800000000E+01 0. -1.
        -11    1    1    2    0    0 -0.87630628963E+02  0.54135866696E+01  0.52446400161E+02  0.10226954064E+03  0.00000000000E+00 0.  1.
         11    1    1    2    0    0 -0.23861043635E+02 -0.55593292798E+02  0.78810600729E+02  0.99353280745E+02  0.00000000000E+00 0. -1.
</event>
<event>
 6    1  0.4988969E-006  0.2385144E+03  0.7561462E-02  0.1120786E+00
          2   -1    0    0  501    0  0.00000000000E+00  0.00000000000E+00  0.10647393111E+04  0.10647393111E+04  0.00000000000E+00 0. -1.
         -2   -1    0    0    0  501 -0.00000000000E+00 -0.00000000000E+00 -0.58104314357E+02  0.58104314357E+02  0.00000000000E+00 0.  1.
          5    1    1    2  502    0 -0.15168857044E+03  0.41913398554E+01  0.22810186940E+03  0.27399803823E+03  0.41800000000E+01 0. -1.
         -5    1    1    2    0  502 -0.52998693546E+02 -0.85799410276E+02  0.17995485372E+03  0.20632891726E+03  0.41800000000E+01 0. -1.
        -11    1    1    2    0    0  0.13112039306E+03  0.30236035296E+02  0.44224476110E+03  0.46226313289E+03  0.00000000000E+00 0.  1.
         11    1    1    2    0    0  0.73566870932E+02  0.51372035124E+02  0.15633351255E+03  0.18025353710E+03  0.00000000000E+00 0. -1.
</event>
<event>
 6    1  0.4988969E-006  0.8927249E+02  0.7561462E-02  0.1304623E+00
          1   -1    0    0  501    0  0.00000000000E+00  0.00000000000E+00  0.30050053811E+02  0.30050053811E+02  0.00000000000E+00 0. -1.
         -1   -1    0    0    0  501 -0.00000000000E+00 -0.00000000000E+00 -0.54396987639E+03  0.54396987639E+03  0.00000000000E+00 0.  1.
          5    1    1    2  502    0 -0.26408851107E+02 -0.59547795188E+02 -0.11839891401E+03  0.13520037932E+03  0.41800000000E+01 0.  1.
         -5    1    1    2    0  502 -0.15274235259E+02  0.47110413598E+02 -0.28725809752E+03  0.29152595137E+03  0.41800000000E+01 0.  1.
        -11    1    1    2    0    0  0.40007488753E+01 -0.15916015136E+02 -0.97567411552E+02  0.98937987276E+02  0.00000000000E+00 0.  1.
         11    1    1    2    0    0  0.37682337490E+02  0.28353396726E+02 -0.10695399499E+02  0.48355612240E+02  0.00000000000E+00 0. -1.
</event>
<event>
 6    1  0.4988969E-006  0.1724064E+03  0.7561462E-02  0.1175361E+00
         -1   -1    0    0    0  501 -0.00000000000E+00  0.00000000000E+00  0.35277775238E+02  0.35277775238E+02  0.00000000000E+00 0.  1.
          1   -1    0    0  501    0  0.00000000000E+00 -0.00000000000E+00 -0.85247319148E+03  0.85247319148E+03  0.00000000000E+00 0. -1.
          5    1    1    2  502    0 -0.23415556319E+02  0.25039520561E+02 -0.10724403320E+03  0.11266774571E+03  0.41800000000E+01 0.  1.
         -5    1    1    2    0  502  0.14236543265E+03  0.37513760937E+02 -0.31200327360E+03  0.34501987451E+03  0.41800000000E+01 0.  1.
        -11    1    1    2    0    0 -0.97116246337E+02 -0.40144582538E+00 -0.24358136388E+03  0.26222815885E+03  0.00000000000E+00 0.  1.
         11    1    1    2    0    0 -0.21833629991E+02 -0.62151835672E+02 -0.15436674556E+03  0.16783518765E+03  0.00000000000E+00 0. -1.
</event>
<event>
 6    1  0.4988969E-006  0.1116431E+03  0.7561462E-02  0.1257557E+00
         -2   -1    0    0    0  501 -0.00000000000E+00  0.00000000000E+00  0.10235767298E+03  0.10235767298E+03  0.00000000000E+00 0.  1.
          2   -1    0    0  501    0  0.00000000000E+00 -0.00000000000E+00 -0.18555642743E+03  0.18555642743E+03  0.00000000000E+00 0. -1.
          5    1    1    2  502    0 -0.13524174822E+02 -0.81908438422E+01 -0.63692834861E+02  0.65758975357E+02  0.41800000000E+01 0. -1.
         -5    1    1    2    0  502 -0.34377104300E+02  0.75524938446E+02  0.29219051186E+02  0.88073985828E+02  0.41800000000E+01 0. -1.
        -11    1    1    2    0    0 -0.27533308727E+02 -0.25802745639E+02 -0.69404398011E+01  0.38367101488E+02  0.00000000000E+00 0.  1.
         11    1    1    2    0    0  0.75434587849E+02 -0.41531348965E+02 -0.41784530977E+02  0.95714037737E+02  0.00000000000E+00 0. -1.
</event>
<event>
 6    1  0.4988969E-006  0.1136918E+03  0.7561462E-02  0.1253882E+00
         -2   -1    0    0    0  501 -0.00000000000E+00  0.00000000000E+00  0.17480722253E+02  0.17480722253E+02  0.00000000000E+00 0.  1.
          2   -1    0    0  501    0  0.00000000000E+00 -0.00000000000E+00 -0.74736490869E+03  0.74736490869E+03  0.00000000000E+00 0. -1.
          5    1    1    2  502    0 -0.46062261974E+01  0.70639370284E+02 -0.23476960394E+03  0.24524554488E+03  0.41800000000E+01 0. -1.
         -5    1    1    2    0  502 -0.28917604962E+02 -0.52250916121E+02 -0.20655503638E+03  0.21505543835E+03  0.41800000000E+01 0. -1.
        -11    1    1    2    0    0  0.61368827012E+02 -0.27581939485E+02 -0.18255433877E+03  0.19455843060E+03  0.00000000000E+00 0.  1.
         11    1    1    2    0    0 -0.27844995852E+02  0.91934853217E+01 -0.10600520736E+03  0.10998621711E+03  0.00000000000E+00 0. -1.
</event>
<event>
 6    1  0.4988969E-006  0.7052437E+02  0.7561462E-02  0.1358319E+00
          2   -1    0    0  501    0  0.00000000000E+00  0.00000000000E+00  0.34151744098E+02  0.34151744098E+02  0.00000000000E+00 0. -1.
         -2   -1    0    0    0  501 -0.00000000000E+00 -0.00000000000E+00 -0.21999963046E+03  0.21999963046E+03  0.00000000000E+00 0.  1.
          5    1    1    2  502    0 -0.23773224943E+02 -0.64235018761E+02 -0.39874216947E+02  0.79364535131E+02  0.41800000000E+01 0. -1.
         -5    1    1    2    0  502  0.84074174811E+01  0.29529878400E+02 -0.12248175776E+03  0.12634061806E+03  0.41800000000E+01 0.  1.
        -11    1    1    2    0    0  0.24743685183E+01  0.25454652400E+02 -0.19285595754E+02  0.32031172815E+02  0.00000000000E+00 0.  1.
         11    1    1    2    0    0  0.12891438943E+02  0.92504879612E+01 -0.42063158982E+01  0.16415048553E+02  0.00000000000E+00 0. -1.
</event>
<event>
 6    1  0.4988969E-006  0.1193569E+03  0.7561462E-02  0.1244162E+00
         -2   -1    0    0    0  501 -0.00000000000E+00  0.00000000000E+00  0.18735524382E+02  0.18735524382E+02  0.00000000000E+00 0.  1.
          2   -1    0    0  501    0  0.00000000000E+00 -0.00000000000E+00 -0.88307342396E+03  0.88307342396E+03  0.00000000000E+00 0. -1.
          5    1    1    2  502    0 -0.13638831532E+02  0.46359782480E+02 -0.19951687878E+03  0.20532828464E+03  0.41800000000E+01 0.  1.
         -5    1    1    2    0  502  0.70408630886E+02 -0.39471960027E+02 -0.15232562184E+03  0.17244123173E+03  0.41800000000E+01 0.  1.
        -11    1    1    2    0    0 -0.19977054958E+02  0.42988821705E+02 -0.22471943039E+03  0.22966485128E+03  0.00000000000E+00 0.  1.
         11    1    1    2    0    0 -0.36792744396E+02 -0.49876644157E+02 -0.28777596857E+03  0.29437458069E+03  0.00000000000E+00 0. -1.
</event>
<event>
 6    1  0.4988969E-006  0.1415249E+03  0.7561462E-02  0.1211292E+00
          1   -1    0    0  501    0  0.00000000000E+00  0.00000000000E+00  0.78304773744E+02  0.78304773744E+02  0.00000000000E+00 0. -1.
         -1   -1    0    0    0  501 -0.00000000000E+00 -0.00000000000E+00 -0.32141054342E+03  0.32141054342E+03  0.00000000000E+00 0.  1.
          5    1    1    2  502    0  0.10018764877E+03  0.71500173059E+02 -0.14037095023E+03  0.18673862960E+03  0.41800000000E+01 0. -1.
         -5    1    1    2    0  502 -0.36030000086E+02  0.20947710656E+02 -0.23012120959E+02  0.47791187461E+02  0.41800000000E+01 0. -1.
        -11    1    1    2    0    0 -0.30242801869E+02 -0.72755415231E+02 -0.94712620697E+02  0.12320088486E+03  0.00000000000E+00 0.  1.
         11    1    1    2    0    0 -0.33914846819E+02 -0.19692468485E+02  0.14989922212E+02  0.41984615250E+02  0.00000000000E+00 0. -1.
</event>
<event>
 6    1  0.4988969E-006  0.1172498E+03  0.7561462E-02  0.1247704E+00
         -1   -1    0    0    0  501 -0.00000000000E+00  0.00000000000E+00  0.18872287576E+02  0.18872287576E+02  0.00000000000E+00 0.  1.
          1   -1    0    0  501    0  0.00000000000E+00 -0.00000000000E+00 -0.74517773599E+03  0.74517773599E+03  0.00000000000E+00 0. -1.
          5    1    1    2  502    0 -0.32865343066E+02 -0.52055717036E+02 -0.15031519545E+03  0.16248710360E+03  0.41800000000E+01 0.  1.
         -5    1    1    2    0  502 -0.92227404364E+01  0.70034520669E+02 -0.21579924673E+03  0.22710499844E+03  0.41800000000E+01 0.  1.
        -11    1    1    2    0    0  0.50938388069E+02  0.25987502772E+02 -0.18648097584E+03  0.19505184959E+03  0.00000000000E+00 0. -1.
         11    1    1    2    0    0 -0.88503045662E+01 -0.43966306405E+02 -0.17371003039E+03  0.17940607194E+03  0.00000000000E+00 0.  1.
</event>
<event>
 6    1  0.4988969E-006  0.1423977E+03  0.7561462E-02  0.1210139E+00
         -1   -1    0    0    0  501 -0.00000000000E+00  0.00000000000E+00  0.30058969202E+02  0.30058969202E+02  0.00000000000E+00 0.  1.
          1   -1    0    0  501    0  0.00000000000E+00 -0.00000000000E+00 -0.94207453090E+03  0.94207453090E+03  0.00000000000E+00 0. -1.
          5    1    1    2  502    0 -0.89276218470E+01  0.33772284892E+02 -0.11000707634E+02  0.36861329698E+02  0.41800000000E+01 0.  1.
         -5    1    1    2    0  502  0.37167891245E+02  0.87020435552E+02 -0.38638335006E+03  0.39782354625E+03  0.41800000000E+01 0.  1.
        -11    1    1    2    0    0 -0.59685050884E+02 -0.10223874278E+03 -0.39850575213E+03  0.41571853496E+03  0.00000000000E+00 0.  1.
         11    1    1    2    0    0  0.31444781485E+02 -0.18553977668E+02 -0.11612575187E+03  0.12173008920E+03  0.00000000000E+00 0. -1.
</event>
<event>
 6    1  0.4988969E-006  0.1213461E+03  0.7561462E-02  0.1240893E+00
          1   -1    0    0  501    0  0.00000000000E+00  0.00000000000E+00  0.19193230654E+03  0.19193230654E+03  0.00000000000E+00 0. -1.
         -1   -1    0    0    0  501 -0.00000000000E+00 -0.00000000000E+00 -0.35751535541E+03  0.35751535541E+03  0.00000000000E+00 0.  1.
          5    1    1    2  502    0  0.50643886302E+01 -0.49175249410E+01  0.24226154888E+02  0.25577510911E+02  0.41800000000E+01 0. -1.
         -5    1    1    2    0  502  0.94777216118E+02  0.36346229720E+02 -0.32070168384E+03  0.33640869716E+03  0.41800000000E+01 0.  1.
        -11    1    1    2    0    0  0.14281469809E+02  0.81393162698E+00  0.68821859829E+01  0.15874109377E+02  0.00000000000E+00 0.  1.
         11    1    1    2    0    0 -0.11412307456E+03 -0.32242636406E+02  0.12401029410E+03  0.17158734450E+03  0.00000000000E+00 0. -1.
</event>
<event>
 6    1  0.4988969E-006  0.1614392E+03  0.7561462E-02  0.1187081E+00
         -1   -1    0    0    0  501 -0.00000000000E+00  0.00000000000E+00  0.64260773056E+02  0.64260773056E+02  0.00000000000E+00 0.  1.
          1   -1    0    0  501    0  0.00000000000E+00 -0.00000000000E+00 -0.82816689524E+03  0.82816689524E+03  0.00000000000E+00 0. -1.
          5    1    1    2  502    0  0.10642243035E+03  0.99845598994E+02 -0.47671804997E+02  0.15357392588E+03  0.41800000000E+01 0.  1.
         -5    1    1    2    0  502 -0.10355395402E+02 -0.15864546248E+02 -0.42191387669E+02  0.46438170023E+02  0.41800000000E+01 0.  1.
        -11    1    1    2    0    0 -0.11236990187E+03 -0.85380999443E+02 -0.62421454657E+03  0.63996930400E+03  0.00000000000E+00 0. -1.
         11    1    1    2    0    0  0.16302866926E+02  0.13999466964E+01 -0.49828382950E+02  0.52446268392E+02  0.00000000000E+00 0.  1.
</event>
<event>
 6    1  0.4988969E-006  0.1782897E+03  0.7561462E-02  0.1169469E+00
         -1   -1    0    0    0  501 -0.00000000000E+00  0.00000000000E+00  0.33228528074E+02  0.33228528074E+02  0.00000000000E+00 0.  1.
          1   -1    0    0  501    0  0.00000000000E+00 -0.00000000000E+00 -0.11813867282E+04  0.11813867282E+04  0.00000000000E+00 0. -1.
          5    1    1    2  502    0 -0.60696061843E+02 -0.88638599330E+02 -0.28697609062E+03  0.30645319740E+03  0.41800000000E+01 0.  1.
         -5    1    1    2    0  502  0.58215751711E+02 -0.69002194349E+02 -0.16043572927E+03  0.18413981698E+03  0.41800000000E+01 0.  1.
        -11    1    1    2    0    0  0.10044224290E+02  0.10983783234E+03 -0.62115288669E+03  0.63086935613E+03  0.00000000000E+00 0. -1.
         11    1    1    2    0    0 -0.75639141574E+01  0.47802961339E+02 -0.79593493554E+02  0.93152885765E+02  0.00000000000E+00 0.  1.
</event>
<event>
 6    1  0.4988969E-006  0.1294612E+03  0.7561462E-02  0.1228257E+00
         -1   -1    0    0    0  501 -0.00000000000E+00  0.00000000000E+00  0.17266646454E+03  0.17266646454E+03  0.00000000000E+00 0.  1.
          1   -1    0    0  501    0  0.00000000000E+00 -0.00000000000E+00 -0.18005465413E+03  0.18005465413E+03  0.00000000000E+00 0. -1.
          5    1    1    2  502    0  0.45076895129E+02 -0.37017625564E+01 -0.39194411305E+02  0.59994198037E+02  0.41800000000E+01 0.  1.
         -5    1    1    2    0  502  0.67542363455E+02 -0.54207393527E+02  0.90322334387E+02  0.12520386920E+03  0.41800000000E+01 0.  1.
        -11    1    1    2    0    0 -0.35699967063E+02  0.15063150679E+02 -0.68714992877E+02  0.78886858239E+02  0.00000000000E+00 0. -1.
         11    1    1    2    0    0 -0.76919291521E+02  0.42846005404E+02  0.10198880202E+02  0.88636193198E+02  0.00000000000E+00 0.  1.
</event>
<event>
 6    1  0.4988969E-006  0.1445285E+03  0.7561462E-02  0.1207362E+00
          2   -1    0    0  501    0  0.00000000000E+00  0.00000000000E+00  0.67868333443E+03  0.67868333443E+03  0.00000000000E+00 0. -1.
         -2   -1    0    0    0  501 -0.00000000000E+00 -0.00000000000E+00 -0.48326038787E+02  0.48326038787E+02  0.00000000000E+00 0.  1.
          5    1    1    2  502    0  0.58562362658E+02  0.55593521943E+02  0.22700820922E+02  0.83982079473E+02  0.41800000000E+01 0. -1.
         -5    1    1    2    0  502  0.11372658938E+02  0.51744782437E+02  0.17435499821E+03  0.18227451188E+03  0.41800000000E+01 0. -1.
        -11    1    1    2    0    0 -0.90766203445E+02 -0.82691547248E+02  0.36739160385E+03  0.38736673354E+03  0.00000000000E+00 0.  1.
         11    1    1    2    0    0  0.20831181849E+02 -0.24646757131E+02  0.65909872675E+02  0.73386048335E+02  0.00000000000E+00 0. -1.
</event>
<event>
 6    1  0.4988969E-006  0.9366866E+02  0.7561462E-02  0.1294203E+00
          1   -1    0    0  501    0  0.00000000000E+00  0.00000000000E+00  0.14621610153E+03  0.14621610153E+03  0.00000000000E+00 0. -1.
         -1   -1    0    0    0  501 -0.00000000000E+00 -0.00000000000E+00 -0.10724570352E+03  0.10724570352E+03  0.00000000000E+00 0.  1.
          5    1    1    2  502    0  0.68479543658E+02 -0.16485598858E+02 -0.10464276724E+02  0.71331594379E+02  0.41800000000E+01 0.  1.
         -5    1    1    2    0  502 -0.54973652833E+02 -0.44589011388E+01 -0.27338937781E+02  0.61699872157E+02  0.41800000000E+01 0.  1.
        -11    1    1    2    0    0  0.22110782903E+02  0.66762272310E+01 -0.10291542649E+02  0.25285857326E+02  0.00000000000E+00 0.  1.
         11    1    1    2    0    0 -0.35616673728E+02  0.14268272766E+02  0.87065155167E+02  0.95144481182E+02  0.00000000000E+00 0. -1.
</event>
<event>
 6    1  0.4988969E-006  0.1339940E+03  0.7561462E-02  0.1221647E+00
          1   -1    0    0  501    0  0.00000000000E+00  0.00000000000E+00  0.39320405972E+03  0.39320405972E+03  0.00000000000E+00 0. -1.
         -1   -1    0    0    0  501 -0.00000000000E+00 -0.00000000000E+00 -0.58778240718E+02  0.58778240718E+02  0.00000000000E+00 0.  1.
          5    1    1    2  502    0  0.10317965346E+03 -0.46840495105E+02  0.69848102470E+02  0.13317771093E+03  0.41800000000E+01 0. -1.
         -5    1    1    2    0  502 -0.27450556391E+02  0.19192108233E+02  0.76434964846E+01  0.34608748938E+02  0.41800000000E+01 0. -1.
        -11    1    1    2    0    0 -0.89909221486E+02  0.43240687944E+02  0.20039546847E+03  0.22385658129E+03  0.00000000000E+00 0.  1.
         11    1    1    2    0    0  0.14180124420E+02 -0.15592301072E+02  0.56538751581E+02  0.60339259289E+02  0.00000000000E+00 0. -1.
</event>
<event>
 6    1  0.4988969E-006  0.1086766E+03  0.7561462E-02  0.1263040E+00
          1   -1    0    0  501    0  0.00000000000E+00  0.00000000000E+00  0.29848201411E+02  0.29848201411E+02  0.00000000000E+00 0. -1.
         -1   -1    0    0    0  501 -0.00000000000E+00 -0.00000000000E+00 -0.51298881808E+03  0.51298881808E+03  0.00000000000E+00 0.  1.
          5    1    1    2  502    0  0.38303149271E+02 -0.25293906608E+02 -0.20072319868E+03  0.20594705107E+03  0.41800000000E+01 0.  1.
         -5    1    1    2    0  502 -0.77532441729E+02 -0.78029973652E+01 -0.13419956033E+03  0.15523904368E+03  0.41800000000E+01 0.  1.
        -11    1    1    2    0    0 -0.22703246595E+02  0.19246823622E+02 -0.92600759080E+02  0.97266531796E+02  0.00000000000E+00 0.  1.
         11    1    1    2    0    0  0.61932539053E+02  0.13850080351E+02 -0.55617098579E+02  0.84384392950E+02  0.00000000000E+00 0. -1.
</event>
<event>
 6    1  0.4988969E-006  0.1151933E+03  0.7561462E-02  0.1251244E+00
          4   -1    0    0  501    0  0.00000000000E+00  0.00000000000E+00  0.43801347523E+03  0.43801347523E+03  0.00000000000E+00 0. -1.
         -4   -1    0    0    0  501 -0.00000000000E+00 -0.00000000000E+00 -0.48398727685E+02  0.48398727685E+02  0.00000000000E+00 0.  1.
          5    1    1    2  502    0 -0.79209691068E+02 -0.74883587445E+02  0.17219112488E+03  0.20383567577E+03  0.41800000000E+01 0. -1.
         -5    1    1    2    0  502  0.39324434475E+01  0.19050065726E+02 -0.92530463164E+01  0.21942205490E+02  0.41800000000E+01 0. -1.
        -11    1    1    2    0    0  0.42901190626E+02  0.54016402818E+02  0.61850345427E+02  0.92648524867E+02  0.00000000000E+00 0.  1.
         11    1    1    2    0    0  0.32376056994E+02  0.18171189006E+01  0.16482632355E+03  0.16798579679E+03  0.00000000000E+00 0. -1.
</event>
<event>
 6    1  0.4988969E-006  0.2400377E+03  0.7561462E-02  0.1119768E+00
         -1   -1    0    0    0  501 -0.00000000000E+00  0.00000000000E+00  0.13116287931E+03  0.13116287931E+03  0.00000000000E+00 0.  1.
          1   -1    0    0  501    0  0.00000000000E+00 -0.00000000000E+00 -0.56205234936E+03  0.56205234936E+03  0.00000000000E+00 0. -1.
          5    1    1    2  502    0 -0.13088237628E+03  0.13269604227E+02 -0.78166231378E+02  0.15308073342E+03  0.41800000000E+01 0.  1.
         -5    1    1    2    0  502 -0.82232705237E+02 -0.83116233305E+02 -0.59727379428E+01  0.11714807744E+03  0.41800000000E+01 0.  1.
        -11    1    1    2    0    0  0.41032899966E+02 -0.92617439900E+01 -0.12215409449E+03  0.12919404623E+03  0.00000000000E+00 0. -1.
         11    1    1    2    0    0  0.17208218155E+03  0.79108373067E+02 -0.22459640625E+03  0.29379237158E+03  0.00000000000E+00 0.  1.
</event>
<event>
 6    1  0.4988969E-006  0.1525547E+03  0.7561462E-02  0.1197368E+00
         -2   -1    0    0    0  501 -0.00000000000E+00  0.00000000000E+00  0.65225878991E+03  0.65225878991E+03  0.00000000000E+00 0.  1.
          2   -1    0    0  501    0  0.00000000000E+00 -0.00000000000E+00 -0.39179094610E+02  0.39179094610E+02  0.00000000000E+00 0. -1.
          5    1    1    2  502    0 -0.77843012214E+02 -0.30210959734E+02  0.25660632877E+03  0.26988241329E+03  0.41800000000E+01 0.  1.
         -5    1    1    2    0  502 -0.21749999183E+02  0.76847191019E+02  0.16270846715E+03  0.18130105050E+03  0.41800000000E+01 0.  1.
        -11    1    1    2    0    0  0.59370240268E+02  0.20884569888E+02  0.96421384843E+02  0.11514371083E+03  0.00000000000E+00 0. -1.
         11    1    1    2    0    0  0.40222771129E+02 -0.67520801173E+02  0.97343514546E+02  0.12511070990E+03  0.00000000000E+00 0.  1.
</event>
<event>
 6    1  0.4988969E-006  0.9548751E+02  0.7561462E-02  0.1290082E+00
         -2   -1    0    0    0  501 -0.00000000000E+00  0.00000000000E+00  0.25168567297E+02  0.25168567297E+02  0.00000000000E+00 0. -1.
          2   -1    0    0  501    0  0.00000000000E+00 -0.00000000000E+00 -0.59771822418E+03  0.59771822418E+03  0.00000000000E+00 0.  1.
          5    1    1    2  502    0 -0.49666345669E+02  0.47262138801E+02 -0.25521416770E+03  0.26429566673E+03  0.41800000000E+01 0. -1.
         -5    1    1    2    0  502  0.22962347169E+02 -0.21924907505E+01  0.13939604849E+01  0.23483865292E+02  0.41800000000E+01 0. -1.
        -11    1    1    2    0    0  0.26516803975E+02  0.20349983078E+02 -0.15945998530E+03  0.16292559534E+03  0.00000000000E+00 0.  1.
         11    1    1    2    0    0  0.18719452501E+00 -0.65419631128E+02 -0.15926946436E+03  0.17218166412E+03  0.00000000000E+00 0. -1.
</event>
<event>
 6    1  0.4988969E-006  0.8207278E+02  0.7561462E-02  0.1323270E+00
          2   -1    0    0  501    0  0.00000000000E+00  0.00000000000E+00  0.78599755501E+03  0.78599755501E+03  0.00000000000E+00 0.  1.
         -2   -1    0    0    0  501 -0.00000000000E+00 -0.00000000000E+00 -0.15395305943E+02  0.15395305943E+02  0.00000000000E+00 0. -1.
          5    1    1    2  502    0 -0.14324733591E+02 -0.25983665447E+02  0.17702689642E+02  0.34802391916E+02  0.41800000000E+01 0. -1.
         -5    1    1    2    0  502 -0.98477177976E+01  0.46848379892E+02  0.38752456480E+03  0.39049264906E+03  0.41800000000E+01 0. -1.
        -11    1    1    2    0    0  0.27808165620E+02 -0.49760718477E+02  0.19162564089E+03  0.19992450932E+03  0.00000000000E+00 0. -1.
         11    1    1    2    0    0 -0.36357142316E+01  0.28896004032E+02  0.17374935374E+03  0.17617331067E+03  0.00000000000E+00 0.  1.
</event>
<event>
 6    1  0.4988969E-006  0.1535907E+03  0.7561462E-02  0.1196129E+00
          1   -1    0    0  501    0  0.00000000000E+00  0.00000000000E+00  0.30628330640E+03  0.30628330640E+03  0.00000000000E+00 0. -1.
         -1   -1    0    0    0  501 -0.00000000000E+00 -0.00000000000E+00 -0.10415705160E+03  0.10415705160E+03  0.00000000000E+00 0.  1.
          5    1    1    2  502    0 -0.91571540677E+01 -0.84831222876E+02 -0.19582976247E+02  0.87642199904E+02  0.41800000000E+01 0. -1.
         -5    1    1    2    0  502 -0.75652150452E+02  0.87357956029E+01  0.29753801101E+02  0.81867716914E+02  0.41800000000E+01 0. -1.
        -11    1    1    2    0    0  0.99473283190E+02  0.41262372377E+02  0.14627947770E+03  0.18164581757E+03  0.00000000000E+00 0.  1.
         11    1    1    2    0    0 -0.14663978671E+02  0.34833054897E+02  0.45675952239E+02  0.59284623612E+02  0.00000000000E+00 0. -1.
</event>
<event>
 6    1  0.4988969E-006  0.1312519E+03  0.7561462E-02  0.1225610E+00
          1   -1    0    0  501    0  0.00000000000E+00  0.00000000000E+00  0.97887784585E+02  0.97887784585E+02  0.00000000000E+00 0. -1.
         -1   -1    0    0    0  501 -0.00000000000E+00 -0.00000000000E+00 -0.25478180163E+03  0.25478180163E+03  0.00000000000E+00 0.  1.
          5    1    1    2  502    0 -0.83320109764E+00  0.73952511762E+02 -0.12635217616E+03  0.14646505740E+03  0.41800000000E+01 0.  1.
         -5    1    1    2    0  502 -0.64570359067E+02 -0.21121192918E+02 -0.44272937932E+02  0.81197299792E+02  0.41800000000E+01 0.  1.
        -11    1    1    2    0    0  0.82956653086E+02 -0.58955727481E+02 -0.20578484226E+00  0.10177242476E+03  0.00000000000E+00 0.  1.
         11    1    1    2    0    0 -0.17553092921E+02  0.61244086372E+01  0.13936881887E+02  0.23234804260E+02  0.00000000000E+00 0. -1.
</event>
<event>
 6    1  0.4988969E-006  0.1662236E+03  0.7561462E-02  0.1181844E+00
         -2   -1    0    0    0  501 -0.00000000000E+00  0.00000000000E+00  0.61809401319E+02  0.61809401319E+02  0.00000000000E+00 0.  1.
          2   -1    0    0  501    0  0.00000000000E+00 -0.00000000000E+00 -0.58786654682E+03  0.58786654682E+03  0.00000000000E+00 0. -1.
          5    1    1    2  502    0 -0.80044819403E+02  0.33337620590E+02 -0.12272127592E+03  0.15032150220E+03  0.41800000000E+01 0. -1.
         -5    1    1    2    0  502  0.10699855878E+02  0.91054627908E+02 -0.42529658691E+02  0.10115174960E+03  0.41800000000E+01 0. -1.
        -11    1    1    2    0    0  0.78768250955E+02 -0.97364154069E+02 -0.20842753359E+03  0.24315890404E+03  0.00000000000E+00 0.  1.
         11    1    1    2    0    0 -0.94232874305E+01 -0.27028094429E+02 -0.15237867730E+03  0.15504379229E+03  0.00000000000E+00 0. -1.
</event>
<event>
 6    1  0.4988969E-006  0.1141526E+03  0.7561462E-02  0.1253067E+00
          1   -1    0    0  501    0  0.00000000000E+00  0.00000000000E+00  0.24955592429E+02  0.24955592429E+02  0.00000000000E+00 0.  1.
         -1   -1    0    0    0  501 -0.00000000000E+00 -0.00000000000E+00 -0.85534304134E+03  0.85534304134E+03  0.00000000000E+00 0. -1.
          5    1    1    2  502    0 -0.20773599257E+02  0.28985581093E+02 -0.15180601068E+02  0.38982424067E+02  0.41800000000E+01 0.  1.
         -5    1    1    2    0  502  0.20025575093E+02  0.47405317876E+02 -0.36214592304E+03  0.36580791380E+03  0.41800000000E+01 0.  1.
        -11    1    1    2    0    0 -0.17200194287E+02  0.29077838252E+02 -0.69032810748E+02  0.76856335593E+02  0.00000000000E+00 0.  1.
         11    1    1    2    0    0  0.17948218451E+02 -0.10546873722E+03 -0.38402811405E+03  0.39865196031E+03  0.00000000000E+00 0. -1.
</event>
<event>
 6    1  0.4988969E-006  0.1815823E+03  0.7561462E-02  0.1166280E+00
         -2   -1    0    0    0  501 -0.00000000000E+00  0.00000000000E+00  0.16672496674E+03  0.16672496674E+03  0.00000000000E+00 0.  1.
          2   -1    0    0  501    0  0.00000000000E+00 -0.00000000000E+00 -0.27362773469E+03  0.27362773469E+03  0.00000000000E+00 0. -1.
          5    1    1    2  502    0  0.15519788237E+03  0.33823356333E+02  0.17842565244E+02  0.15989443911E+03  0.41800000000E+01 0. -1.
         -5    1    1    2    0  502 -0.66764430039E+00 -0.33413111609E+02  0.28813515590E+02  0.44323502309E+02  0.41800000000E+01 0. -1.
        -11    1    1    2    0    0 -0.13775702897E+03  0.25132667914E+02 -0.15026853571E+03  0.20540029906E+03  0.00000000000E+00 0. -1.
         11    1    1    2    0    0 -0.16773209099E+02 -0.25542912638E+02 -0.32903130674E+01  0.30734460946E+02  0.00000000000E+00 0.  1.
</event>
<event>
 6    1  0.4988969E-006  0.9782568E+02  0.7561462E-02  0.1284936E+00
         -2   -1    0    0    0  501 -0.00000000000E+00  0.00000000000E+00  0.73904047820E+03  0.73904047820E+03  0.00000000000E+00 0.  1.
          2   -1    0    0  501    0  0.00000000000E+00 -0.00000000000E+00 -0.34409143038E+02  0.34409143038E+02  0.00000000000E+00 0. -1.
          5    1    1    2  502    0 -0.17986809008E+02  0.59815879083E+01  0.44431101029E+03  0.44473480969E+03  0.41800000000E+01 0.  1.
         -5    1    1    2    0  502 -0.68451367429E+02  0.16488301161E+02  0.11149743002E+03  0.13193408612E+03  0.41800000000E+01 0.  1.
        -11    1    1    2    0    0  0.27539331935E+02  0.19188683419E+02  0.10968511065E+03  0.11470590165E+03  0.00000000000E+00 0.  1.
         11    1    1    2    0    0  0.58898844503E+02 -0.41658572488E+02  0.39137784200E+02  0.82074823774E+02  0.00000000000E+00 0. -1.
</event>
<event>
 6    1  0.4988969E-006  0.2002042E+03  0.7561462E-02  0.1149567E+00
          2   -1    0    0  501    0  0.00000000000E+00  0.00000000000E+00  0.18065173577E+03  0.18065173577E+03  0.00000000000E+00 0. -1.
         -2   -1    0    0    0  501 -0.00000000000E+00 -0.00000000000E+00 -0.24589507256E+03  0.24589507256E+03  0.00000000000E+00 0.  1.
          5    1    1    2  502    0 -0.19533146851E+03  0.30140609011E+01 -0.43560038812E+02  0.20019594535E+03  0.41800000000E+01 0. -1.
         -5    1    1    2    0  502  0.15440222987E+02  0.38345400138E+01  0.13223372074E+02  0.21105310991E+02  0.41800000000E+01 0. -1.
        -11    1    1    2    0    0  0.58370062834E+02 -0.28773310212E+02 -0.48294113216E+02  0.81038811610E+02  0.00000000000E+00 0.  1.
         11    1    1    2    0    0  0.12152118269E+03  0.21924709298E+02  0.13387443170E+02  0.12420674038E+03  0.00000000000E+00 0. -1.
</event>
<event>
 6    1  0.4988969E-006  0.1217967E+03  0.7561462E-02  0.1240162E+00
         -3   -1    0    0    0  501 -0.00000000000E+00  0.00000000000E+00  0.66960647868E+02  0.66960647868E+02  0.00000000000E+00 0.  1.
          3   -1    0    0  501    0  0.00000000000E+00 -0.00000000000E+00 -0.27437669739E+03  0.27437669739E+03  0.00000000000E+00 0. -1.
          5    1    1    2  502    0  0.35423413500E+02  0.41982884743E+01 -0.23122034629E+01  0.35989755973E+02  0.41800000000E+01 0. -1.
         -5    1    1    2    0  502 -0.84705805458E+02  0.59796370912E+02 -0.10442797632E+03  0.14721872873E+03  0.41800000000E+01 0. -1.
        -11    1    1    2    0    0  0.45008816008E+02 -0.77566644367E+02 -0.44374607836E+02  0.10005740181E+03  0.00000000000E+00 0.  1.
         11    1    1    2    0    0  0.42735759498E+01  0.13571984981E+02 -0.56301261907E+02  0.58071458739E+02  0.00000000000E+00 0. -1.
</event>
<event>
 6    1  0.4988969E-006  0.9400322E+02  0.7561462E-02  0.1293437E+00
         -2   -1    0    0    0  501 -0.00000000000E+00  0.00000000000E+00  0.12050823155E+03  0.12050823155E+03  0.00000000000E+00 0.  1.
          2   -1    0    0  501    0  0.00000000000E+00 -0.00000000000E+00 -0.13163621800E+03  0.13163621800E+03  0.00000000000E+00 0. -1.
          5    1    1    2  502    0 -0.13622872807E+02 -0.61768556194E+01  0.62315941228E+02  0.64222154588E+02  0.41800000000E+01 0. -1.
         -5    1    1    2    0  502  0.40514019997E+02  0.52637728198E+02 -0.34141743831E+02  0.74801385802E+02  0.41800000000E+01 0. -1.
        -11    1    1    2    0    0 -0.61034822917E+02 -0.30461671449E+02 -0.28208256645E+02  0.73816453308E+02  0.00000000000E+00 0. -1.
         11    1    1    2    0    0  0.34143675727E+02 -0.15999201129E+02 -0.11093927203E+02  0.39304455850E+02  0.00000000000E+00 0.  1.
</event>
<event>
 6    1  0.4988969E-006  0.1432685E+03  0.7561462E-02  0.1208997E+00
         -1   -1    0    0    0  501 -0.00000000000E+00  0.00000000000E+00  0.39735205733E+03  0.39735205733E+03  0.00000000000E+00 0.  1.
          1   -1    0    0  501    0  0.00000000000E+00 -0.00000000000E+00 -0.89120332527E+02  0.89120332527E+02  0.00000000000E+00 0. -1.
          5    1    1    2  502    0 -0.12489883366E+02  0.96070569622E+01 -0.31387360795E+01  0.16601710579E+02  0.41800000000E+01 0.  1.
         -5    1    1    2    0  502  0.41727808420E+02 -0.13071918797E+03  0.27854210712E+03  0.31053485141E+03  0.41800000000E+01 0.  1.
        -11    1    1    2    0    0 -0.73539377363E+01  0.10623963811E+03  0.59314122837E+02  0.12189793384E+03  0.00000000000E+00 0.  1.
         11    1    1    2    0    0 -0.21883987318E+02  0.14872492898E+02 -0.26485769077E+02  0.37437894032E+02  0.00000000000E+00 0. -1.
</event>
<event>
 6    1  0.4988969E-006  0.1054249E+03  0.7561462E-02  0.1269285E+00
         -1   -1    0    0    0  501 -0.00000000000E+00  0.00000000000E+00  0.44305382292E+02  0.44305382292E+02  0.00000000000E+00 0.  1.
          1   -1    0    0  501    0  0.00000000000E+00 -0.00000000000E+00 -0.28097347272E+03  0.28097347272E+03  0.00000000000E+00 0. -1.
          5    1    1    2  502    0  0.60066310209E+02  0.38098696737E+02 -0.10732283046E+03  0.12882210468E+03  0.41800000000E+01 0. -1.
         -5    1    1    2    0  502 -0.34327096053E+02 -0.30627280859E+02 -0.16050930145E+02  0.48902807841E+02  0.41800000000E+01 0. -1.
        -11    1    1    2    0    0  0.33668875596E+02 -0.16196471549E+01 -0.52195512416E+02  0.62133629840E+02  0.00000000000E+00 0.  1.
         11    1    1    2    0    0 -0.59408089752E+02 -0.58517687232E+01 -0.61098817403E+02  0.85420312650E+02  0.00000000000E+00 0. -1.
</event>
<event>
 6    1  0.4988969E-006  0.1117976E+03  0.7561462E-02  0.1257277E+00
          1   -1    0    0  501    0  0.00000000000E+00  0.00000000000E+00  0.14234109763E+03  0.14234109763E+03  0.00000000000E+00 0. -1.
         -1   -1    0    0    0  501 -0.00000000000E+00 -0.00000000000E+00 -0.14165678856E+03  0.14165678856E+03  0.00000000000E+00 0.  1.
          5    1    1    2  502    0  0.57753598894E+02 -0.56449790536E+02 -0.29120257580E+02  0.85950676777E+02  0.41800000000E+01 0. -1.
         -5    1    1    2    0  502 -0.44028990978E+02  0.47458291744E+02 -0.44397756549E+02  0.78609634832E+02  0.41800000000E+01 0.  1.
        -11    1    1    2    0    0  0.19049693724E+02 -0.24474813823E+02  0.64546234491E+02  0.71610919067E+02  0.00000000000E+00 0. -1.
         11    1    1    2    0    0 -0.32774301641E+02  0.33466312615E+02  0.96560887088E+01  0.47826655510E+02  0.00000000000E+00 0.  1.
</event>
<event>
 6    1  0.4988969E-006  0.9424677E+02  0.7561462E-02  0.1292882E+00
          2   -1    0    0  501    0  0.00000000000E+00  0.00000000000E+00  0.99179210701E+02  0.99179210701E+02  0.00000000000E+00 0. -1.
         -2   -1    0    0    0  501 -0.00000000000E+00 -0.00000000000E+00 -0.23534210674E+03  0.23534210674E+03  0.00000000000E+00 0.  1.
          5    1    1    2  502    0  0.34511930844E+02  0.63241910675E+00 -0.11646135584E+03  0.12154091134E+03  0.41800000000E+01 0.  1.
         -5    1    1    2    0  502 -0.71302713826E+02  0.39609188107E+02 -0.59087948092E+02  0.10080586685E+03  0.41800000000E+01 0.  1.
        -11    1    1    2    0    0  0.44426438928E+02 -0.16967604365E+02 -0.17154610711E+02  0.50555798306E+02  0.00000000000E+00 0.  1.
         11    1    1    2    0    0 -0.76356559465E+01 -0.23274002849E+02  0.56541018608E+02  0.61618740945E+02  0.00000000000E+00 0. -1.
</event>
<event>
 6    1  0.4988969E-006  0.1396133E+03  0.7561462E-02  0.1213850E+00
          1   -1    0    0  501    0  0.00000000000E+00  0.00000000000E+00  0.67055047733E+03  0.67055047733E+03  0.00000000000E+00 0. -1.
         -1   -1    0    0    0  501 -0.00000000000E+00 -0.00000000000E+00 -0.49841547675E+02  0.49841547675E+02  0.00000000000E+00 0.  1.
          5    1    1    2  502    0 -0.99450413356E+02 -0.80383901104E+02  0.19925753566E+03  0.23679736947E+03  0.41800000000E+01 0. -1.
         -5    1    1    2    0  502 -0.89134164338E+01  0.12722260368E+02 -0.13518719663E+02  0.21012688612E+02  0.41800000000E+01 0. -1.
        -11    1    1    2    0    0  0.10453804323E+03  0.47760695770E+02  0.42447668265E+03  0.43976100402E+03  0.00000000000E+00 0. -1.
         11    1    1    2    0    0  0.38257865561E+01  0.19900944966E+02  0.10493431014E+02  0.22820962902E+02  0.00000000000E+00 0.  1.
</event>
<event>
 6    1  0.4988969E-006  0.1121027E+03  0.7561462E-02  0.1256725E+00
         -1   -1    0    0    0  501 -0.00000000000E+00  0.00000000000E+00  0.73118800469E+02  0.73118800469E+02  0.00000000000E+00 0.  1.
          1   -1    0    0  501    0  0.00000000000E+00 -0.00000000000E+00 -0.26788065196E+03  0.26788065196E+03  0.00000000000E+00 0. -1.
          5    1    1    2  502    0  0.31102638452E+02 -0.21070083200E+02  0.22545486782E+02  0.44012428914E+02  0.41800000000E+01 0. -1.
         -5    1    1    2    0  502 -0.63186378973E+02 -0.53112775450E+02 -0.81756358215E+02  0.11625428987E+03  0.41800000000E+01 0. -1.
        -11    1    1    2    0    0 -0.75457049580E+01  0.61769047971E+02 -0.33759393900E+02  0.70795830577E+02  0.00000000000E+00 0.  1.
         11    1    1    2    0    0  0.39629445479E+02  0.12413810679E+02 -0.10179158616E+03  0.10993690307E+03  0.00000000000E+00 0. -1.
</event>
<event>
 6    1  0.4988969E-006  0.8537194E+02  0.7561462E-02  0.1314463E+00
         -1   -1    0    0    0  501 -0.00000000000E+00  0.00000000000E+00  0.73553772963E+02  0.73553772963E+02  0.00000000000E+00 0.  1.
          1   -1    0    0  501    0  0.00000000000E+00 -0.00000000000E+00 -0.17130978152E+03  0.17130978152E+03  0.00000000000E+00 0. -1.
          5    1    1    2  502    0 -0.39865316949E+02 -0.26856870613E+02 -0.74208059259E+02  0.88514651068E+02  0.41800000000E+01 0.  1.
         -5    1    1    2    0  502  0.14900887244E+02  0.23140434281E+02  0.35249701352E+02  0.44916923144E+02  0.41800000000E+01 0.  1.
        -11    1    1    2    0    0  0.54666670089E+02 -0.18338550425E+02 -0.36071516422E+02  0.68013980528E+02  0.00000000000E+00 0.  1.
         11    1    1    2    0    0 -0.29702240384E+02  0.22054986758E+02 -0.22726134224E+02  0.43417999741E+02  0.00000000000E+00 0. -1.
</event>
<event>
 6    1  0.4988969E-006  0.1667847E+03  0.7561462E-02  0.1181243E+00
          3   -1    0    0  501    0  0.00000000000E+00  0.00000000000E+00  0.67743817769E+03  0.67743817769E+03  0.00000000000E+00 0. -1.
         -3   -1    0    0    0  501 -0.00000000000E+00 -0.00000000000E+00 -0.54174152745E+02  0.54174152745E+02  0.00000000000E+00 0.  1.
          5    1    1    2  502    0 -0.59872137088E+02 -0.89089269895E+02  0.26604126210E+03  0.28690938700E+03  0.41800000000E+01 0. -1.
         -5    1    1    2    0  502  0.10109333785E+03  0.13895376611E+00  0.57092725078E+02  0.11617630534E+03  0.41800000000E+01 0.  1.
        -11    1    1    2    0    0 -0.89888741618E+01 -0.14252608470E+02  0.11744017267E+02  0.20539197853E+02  0.00000000000E+00 0. -1.
         11    1    1    2    0    0 -0.32232326603E+02  0.10320292460E+03  0.28838602050E+03  0.30798744024E+03  0.00000000000E+00 0.  1.
</event>
<event>
 6    1  0.4988969E-006  0.9748672E+02  0.7561462E-02  0.1285672E+00
          2   -1    0    0  501    0  0.00000000000E+00  0.00000000000E+00  0.35285222342E+03  0.35285222342E+03  0.00000000000E+00 0.  1.
         -2   -1    0    0    0  501 -0.00000000000E+00 -0.00000000000E+00 -0.46346142594E+02  0.46346142594E+02  0.00000000000E+00 0. -1.
          5    1    1    2  502    0 -0.53603244476E+02  0.74025486004E+01  0.12368400205E+03  0.13506779892E+03  0.41800000000E+01 0. -1.
         -5    1    1    2    0  502  0.16638097116E+02  0.28888811558E+02 -0.16690929835E+02  0.37515986561E+02  0.41800000000E+01 0. -1.
        -11    1    1    2    0    0 -0.12052314413E+02  0.25514449125E+02  0.61093042836E+02  0.67294912734E+02  0.00000000000E+00 0.  1.
         11    1    1    2    0    0  0.49017461773E+02 -0.61805809284E+02  0.13841996577E+03  0.15931966779E+03  0.00000000000E+00 0. -1.
</event>
<event>
 6    1  0.4988969E-006  0.9177426E+02  0.7561462E-02  0.1298611E+00
          2   -1    0    0  501    0  0.00000000000E+00  0.00000000000E+00  0.40829222119E+03  0.40829222119E+03  0.00000000000E+00 0. -1.
         -2   -1    0    0    0  501 -0.00000000000E+00 -0.00000000000E+00 -0.50815645491E+02  0.50815645491E+02  0.00000000000E+00 0.  1.
          5    1    1    2  502    0 -0.13967512544E+02  0.48337161054E+02 -0.17986190143E+02  0.53596156404E+02  0.41800000000E+01 0.  1.
         -5    1    1    2    0  502 -0.34728249739E+02  0.54718824503E+01  0.11555636544E+03  0.12085834196E+03  0.41800000000E+01 0.  1.
        -11    1    1    2    0    0  0.48467115937E+02 -0.48640039653E+01  0.20668411264E+03  0.21234651463E+03  0.00000000000E+00 0. -1.
         11    1    1    2    0    0  0.22864634651E+00 -0.48945039539E+02  0.53222287771E+02  0.72306853687E+02  0.00000000000E+00 0.  1.
</event>
<event>
 6    1  0.4988969E-006  0.2251288E+03  0.7561462E-02  0.1130116E+00
          1   -1    0    0  501    0  0.00000000000E+00  0.00000000000E+00  0.76886067582E+03  0.76886067582E+03  0.00000000000E+00 0. -1.
         -1   -1    0    0    0  501 -0.00000000000E+00 -0.00000000000E+00 -0.11118243529E+03  0.11118243529E+03  0.00000000000E+00 0.  1.
          5    1    1    2  502    0 -0.21995421188E+02  0.17291260137E+02  0.81195363888E+01  0.29431029570E+02  0.41800000000E+01 0. -1.
         -5    1    1    2    0  502 -0.70249460884E+02 -0.19768485748E+03  0.56909358892E+02  0.21741765605E+03  0.41800000000E+01 0. -1.
        -11    1    1    2    0    0  0.19263373395E+02  0.10666424651E+03  0.20484399255E+03  0.23175288633E+03  0.00000000000E+00 0.  1.
         11    1    1    2    0    0  0.72981508677E+02  0.73729350835E+02  0.38780535270E+03  0.40144153917E+03  0.00000000000E+00 0. -1.
</event>
<event>
 6    1  0.4988969E-006  0.1188908E+03  0.7561462E-02  0.1244938E+00
          1   -1    0    0  501    0  0.00000000000E+00  0.00000000000E+00  0.74450336322E+02  0.74450336322E+02  0.00000000000E+00 0. -1.
         -1   -1    0    0    0  501 -0.00000000000E+00 -0.00000000000E+00 -0.30125088685E+03  0.30125088685E+03  0.00000000000E+00 0.  1.
          5    1    1    2  502    0  0.13954084229E+01  0.71304956739E+02 -0.21932742477E+01  0.71474658951E+02  0.41800000000E+01 0.  1.
         -5    1    1    2    0  502 -0.88401026684E+01  0.30475135122E+02 -0.14013839209E+03  0.14374673079E+03  0.41800000000E+01 0.  1.
        -11    1    1    2    0    0 -0.84641616499E+00 -0.11700014213E+03 -0.62993944342E+02  0.13288335750E+03  0.00000000000E+00 0.  1.
         11    1    1    2    0    0  0.82911104105E+01  0.15220050266E+02 -0.21474939848E+02  0.27596475924E+02  0.00000000000E+00 0. -1.
</event>
<event>
 6    1  0.4988969E-006  0.2442141E+03  0.7561462E-02  0.1117017E+00
         -1   -1    0    0    0  501 -0.00000000000E+00  0.00000000000E+00  0.65918940670E+03  0.65918940670E+03  0.00000000000E+00 0.  1.
          1   -1    0    0  501    0  0.00000000000E+00 -0.00000000000E+00 -0.12006423778E+03  0.12006423778E+03  0.00000000000E+00 0. -1.
          5    1    1    2  502    0  0.65912191028E+02  0.14542098455E+03  0.17302102901E+03  0.23546852986E+03  0.41800000000E+01 0. -1.
         -5    1    1    2    0  502 -0.52709654257E+02  0.80278827700E+02  0.26159950791E+03  0.27870194253E+03  0.41800000000E+01 0.  1.
        -11    1    1    2    0    0  0.11339210589E+02 -0.89383540994E+01 -0.11086937996E+02  0.18204177128E+02  0.00000000000E+00 0.  1.
         11    1    1    2    0    0 -0.24541747360E+02 -0.21676145815E+03  0.11559157000E+03  0.24687899497E+03  0.00000000000E+00 0. -1.
</event>
<event>
 6    1  0.4988969E-006  0.1009814E+03  0.7561462E-02  0.1278246E+00
         -2   -1    0    0    0  501 -0.00000000000E+00  0.00000000000E+00  0.45936828477E+03  0.45936828477E+03  0.00000000000E+00 0.  1.
          2   -1    0    0  501    0  0.00000000000E+00 -0.00000000000E+00 -0.38995593193E+02  0.38995593193E+02  0.00000000000E+00 0. -1.
          5    1    1    2  502    0  0.21543420954E+02 -0.36226311568E+02  0.23940626401E+02  0.48652755613E+02  0.41800000000E+01 0. -1.
         -5    1    1    2    0  502  0.46275732134E+02  0.41332625144E+02  0.28231475201E+03  0.28908289622E+03  0.41800000000E+01 0. -1.
        -11    1    1    2    0    0 -0.13079725661E+02  0.29768443711E+02  0.82000437991E+02  0.88211741254E+02  0.00000000000E+00 0.  1.
         11    1    1    2    0    0 -0.54739427427E+02 -0.34874757286E+02  0.32116875180E+02  0.72416484878E+02  0.00000000000E+00 0. -1.
</event>
<event>
 6    1  0.4988969E-006  0.9719642E+02  0.7561462E-02  0.1286304E+00
         -1   -1    0    0    0  501 -0.00000000000E+00  0.00000000000E+00  0.18087421668E+02  0.18087421668E+02  0.00000000000E+00 0.  1.
          1   -1    0    0  501    0  0.00000000000E+00 -0.00000000000E+00 -0.73581621379E+03  0.73581621379E+03  0.00000000000E+00 0. -1.
          5    1    1    2  502    0 -0.54642177346E+02  0.26653918537E+02 -0.95638337945E+02  0.11340354052E+03  0.41800000000E+01 0.  1.
         -5    1    1    2    0  502  0.37474052927E+02  0.18701109036E+02 -0.33542132028E+03  0.33805172773E+03  0.41800000000E+01 0.  1.
        -11    1    1    2    0    0  0.45180189506E+02 -0.10030184144E+02 -0.96718553226E+02  0.10722095250E+03  0.00000000000E+00 0.  1.
         11    1    1    2    0    0 -0.28012065086E+02 -0.35324843428E+02 -0.18995058067E+03  0.19522741470E+03  0.00000000000E+00 0. -1.
</event>
<event>
 6    1  0.4988969E-006  0.1114701E+03  0.7561462E-02  0.1257871E+00
          2   -1    0    0  501    0  0.00000000000E+00  0.00000000000E+00  0.23734844928E+03  0.23734844928E+03  0.00000000000E+00 0. -1.
         -2   -1    0    0    0  501 -0.00000000000E+00 -0.00000000000E+00 -0.62788181721E+02  0.62788181721E+02  0.00000000000E+00 0.  1.
          5    1    1    2  502    0  0.75883621055E+02 -0.34586514612E+02  0.11709125363E+03  0.14381371636E+03  0.41800000000E+01 0. -1.
         -5    1    1    2    0  502 -0.25005851821E+02  0.31989189354E+02  0.10868193122E+02  0.42239683741E+02  0.41800000000E+01 0. -1.
        -11    1    1    2    0    0 -0.37971342533E+02 -0.39381570265E+02  0.73801134714E+01  0.55201422130E+02  0.00000000000E+00 0.  1.
         11    1    1    2    0    0 -0.12906426701E+02  0.41978895523E+02  0.39220707332E+02  0.58881808763E+02  0.00000000000E+00 0. -1.
</event>
<event>
 6    1  0.4988969E-006  0.1226698E+03  0.7561462E-02  0.1238757E+00
          2   -1    0    0  501    0  0.00000000000E+00  0.00000000000E+00  0.28439588678E+03  0.28439588678E+03  0.00000000000E+00 0.  1.
         -2   -1    0    0    0  501 -0.00000000000E+00 -0.00000000000E+00 -0.58724813099E+02  0.58724813099E+02  0.00000000000E+00 0. -1.
          5    1    1    2  502    0  0.45580901303E+02 -0.72258033130E+01  0.47440071237E+02  0.66316389800E+02  0.41800000000E+01 0. -1.
         -5    1    1    2    0  502 -0.77079070373E+02 -0.49466636251E+02  0.44577265885E+02  0.10194477047E+03  0.41800000000E+01 0. -1.
        -11    1    1    2    0    0 -0.28749160187E+02  0.29588389799E+02  0.26679583807E+02  0.49130308512E+02  0.00000000000E+00 0. -1.
         11    1    1    2    0    0  0.60247329257E+02  0.27104049765E+02  0.10697415276E+03  0.12572923110E+03  0.00000000000E+00 0.  1.
</event>
<event>
 6    1  0.4988969E-006  0.1173152E+03  0.7561462E-02  0.1247593E+00
         -2   -1    0    0    0  501 -0.00000000000E+00  0.00000000000E+00  0.47399440520E+03  0.47399440520E+03  0.00000000000E+00 0.  1.
          2   -1    0    0  501    0  0.00000000000E+00 -0.00000000000E+00 -0.52039367562E+02  0.52039367562E+02  0.00000000000E+00 0. -1.
          5    1    1    2  502    0 -0.84214907259E+02  0.56968021179E+02  0.20473739809E+03  0.22863153899E+03  0.41800000000E+01 0.  1.
         -5    1    1    2    0  502  0.41932259273E+02  0.14018196376E+02  0.15139889043E+03  0.15777807396E+03  0.41800000000E+01 0.  1.
        -11    1    1    2    0    0  0.46489506731E+02 -0.55426680261E+02  0.86910436134E+02  0.11307880009E+03  0.00000000000E+00 0.  1.
         11    1    1    2    0    0 -0.42068587451E+01 -0.15559537294E+02 -0.21091687026E+02  0.26545359724E+02  0.00000000000E+00 0. -1.
</event>
<event>
 6    1  0.4988969E-006  0.1303700E+03  0.7561462E-02  0.1226908E+00
         -2   -1    0    0    0  501 -0.00000000000E+00  0.00000000000E+00  0.82546683236E+03  0.82546683236E+03  0.00000000000E+00 0. -1.
          2   -1    0    0  501    0  0.00000000000E+00 -0.00000000000E+00 -0.26736183138E+02  0.26736183138E+02  0.00000000000E+00 0.  1.
          5    1    1    2  502    0 -0.33763954781E+02 -0.44910468411E+02  0.11066984480E+03  0.12418631875E+03  0.41800000000E+01 0. -1.
         -5    1    1    2    0  502 -0.59915819513E+02  0.67369021220E+02  0.41396358465E+03  0.42368834332E+03  0.41800000000E+01 0. -1.
        -11    1    1    2    0    0  0.63468892328E+02 -0.43834270296E+02  0.24615124904E+03  0.25795383492E+03  0.00000000000E+00 0. -1.
         11    1    1    2    0    0  0.30210881967E+02  0.21375717486E+02  0.27945970730E+02  0.46374518513E+02  0.00000000000E+00 0.  1.
</event>
<event>
 6    1  0.4988969E-006  0.1288195E+03  0.7561462E-02  0.1229218E+00
         -2   -1    0    0    0  501 -0.00000000000E+00  0.00000000000E+00  0.11303067760E+03  0.11303067760E+03  0.00000000000E+00 0.  1.
          2   -1    0    0  501    0  0.00000000000E+00 -0.00000000000E+00 -0.22465647423E+03  0.22465647423E+03  0.00000000000E+00 0. -1.
          5    1    1    2  502    0 -0.16899642032E+02  0.20375906566E+02 -0.72705397255E+02  0.77487564546E+02  0.41800000000E+01 0.  1.
         -5    1    1    2    0  502  0.31706437682E+02  0.95328798410E+02  0.17871585801E+02  0.10212611799E+03  0.41800000000E+01 0.  1.
        -11    1    1    2    0    0 -0.34170662684E+02 -0.42325739184E+02  0.11930758189E+02  0.55690621981E+02  0.00000000000E+00 0.  1.
         11    1    1    2    0    0  0.19363867033E+02 -0.73378965793E+02 -0.68722743369E+02  0.10238284731E+03  0.00000000000E+00 0. -1.
</event>
<event>
 6    1  0.4988969E-006  0.6935775E+02  0.7561462E-02  0.1362291E+00
         -1   -1    0    0    0  501 -0.00000000000E+00  0.00000000000E+00  0.50413992860E+03  0.50413992860E+03  0.00000000000E+00 0.  1.
          1   -1    0    0  501    0  0.00000000000E+00 -0.00000000000E+00 -0.24753239837E+02  0.24753239837E+02  0.00000000000E+00 0. -1.
          5    1    1    2  502    0 -0.17141218086E+02 -0.10491105374E+02  0.29127652301E+03  0.29199892107E+03  0.41800000000E+01 0.  1.
         -5    1    1    2    0  502  0.39139505485E+02  0.57844611880E+01  0.20644596940E+02  0.44822234032E+02  0.41800000000E+01 0.  1.
        -11    1    1    2    0    0  0.22678896595E+02  0.20940980473E+02  0.19152243241E+02  0.36327199659E+02  0.00000000000E+00 0. -1.
         11    1    1    2    0    0 -0.44677183994E+02 -0.16234336286E+02  0.14831332558E+03  0.15574481368E+03  0.00000000000E+00 0.  1.
</event>
<event>
 6    1  0.4988969E-006  0.1061262E+03  0.7561462E-02  0.1267916E+00
         -1   -1    0    0    0  501 -0.00000000000E+00  0.00000000000E+00  0.12577680398E+03  0.12577680398E+03  0.00000000000E+00 0.  1.
          1   -1    0    0  501    0  0.00000000000E+00 -0.00000000000E+00 -0.17567411113E+03  0.17567411113E+03  0.00000000000E+00 0. -1.
          5    1    1    2  502    0 -0.30187435800E+02 -0.32069020345E+02  0.53387676502E+02  0.69335559047E+02  0.41800000000E+01 0.  1.
         -5    1    1    2    0  502 -0.64265091502E+02 -0.22961512451E+01 -0.65026589296E+02  0.91548915951E+02  0.41800000000E+01 0.  1.
        -11    1    1    2    0    0  0.35497695187E+02  0.33515633260E+00  0.28272455630E+02  0.45382049763E+02  0.00000000000E+00 0.  1.
         11    1    1    2    0    0  0.58954832115E+02  0.34030015257E+02 -0.66530849982E+02  0.95184390355E+02  0.00000000000E+00 0. -1.
</event>
<event>
 6    1  0.4988969E-006  0.1326744E+03  0.7561462E-02  0.1223541E+00
          2   -1    0    0  501    0  0.00000000000E+00  0.00000000000E+00  0.57260006042E+03  0.57260006042E+03  0.00000000000E+00 0. -1.
         -2   -1    0    0    0  501 -0.00000000000E+00 -0.00000000000E+00 -0.38819674910E+02  0.38819674910E+02  0.00000000000E+00 0.  1.
          5    1    1    2  502    0 -0.39244946595E+02  0.92208994925E+01  0.33705026677E+02  0.52713300447E+02  0.41800000000E+01 0.  1.
         -5    1    1    2    0  502  0.64853421774E+02 -0.85076954914E+02  0.12726377970E+03  0.16630573230E+03  0.41800000000E+01 0.  1.
        -11    1    1    2    0    0  0.27585927174E+02  0.53231251213E+02  0.13587509857E+03  0.14851461845E+03  0.00000000000E+00 0. -1.
         11    1    1    2    0    0 -0.53194402353E+02  0.22624804209E+02  0.23693648057E+03  0.24388608413E+03  0.00000000000E+00 0.  1.
</event>
<event>
 6    1  0.4988969E-006  0.1085243E+03  0.7561462E-02  0.1263327E+00
         -1   -1    0    0    0  501 -0.00000000000E+00  0.00000000000E+00  0.14805618931E+03  0.14805618931E+03  0.00000000000E+00 0.  1.
          1   -1    0    0  501    0  0.00000000000E+00 -0.00000000000E+00 -0.10763974268E+03  0.10763974268E+03  0.00000000000E+00 0. -1.
          5    1    1    2  502    0 -0.36156429920E+02  0.17241433634E+02  0.50136693260E+02  0.64309523940E+02  0.41800000000E+01 0. -1.
         -5    1    1    2    0  502  0.81370755032E+02 -0.14561461828E+02  0.16169123225E+02  0.84333557324E+02  0.41800000000E+01 0. -1.
        -11    1    1    2    0    0 -0.45338137545E+02 -0.37712379497E+02  0.65151111277E+01  0.59331416268E+02  0.00000000000E+00 0.  1.
         11    1    1    2    0    0  0.12381243317E+00  0.35032407691E+02 -0.32404480986E+02  0.47721434451E+02  0.00000000000E+00 0. -1.
</event>
<event>
 6    1  0.4988969E-006  0.1791119E+03  0.7561462E-02  0.1168665E+00
         -1   -1    0    0    0  501 -0.00000000000E+00  0.00000000000E+00  0.74792281713E+03  0.74792281713E+03  0.00000000000E+00 0.  1.
          1   -1    0    0  501    0  0.00000000000E+00 -0.00000000000E+00 -0.65945332249E+02  0.65945332249E+02  0.00000000000E+00 0. -1.
          5    1    1    2  502    0  0.32683774274E+02 -0.59378148114E+02  0.35532874992E+03  0.36175957001E+03  0.41800000000E+01 0. -1.
         -5    1    1    2    0  502  0.63593784619E+02 -0.90745877361E+02  0.13446049987E+03  0.17428735504E+03  0.41800000000E+01 0. -1.
        -11    1    1    2    0    0 -0.30008636324E+02  0.31225911743E+02  0.12437823599E+01  0.43325775386E+02  0.00000000000E+00 0. -1.
         11    1    1    2    0    0 -0.66268922569E+02  0.11889811373E+03  0.19094445273E+03  0.23449544894E+03  0.00000000000E+00 0.  1.
</event>
<event>
 6    1  0.4988969E-006  0.1233893E+03  0.7561462E-02  0.1237608E+00
         -1   -1    0    0    0  501 -0.00000000000E+00  0.00000000000E+00  0.47429830652E+02  0.47429830652E+02  0.00000000000E+00 0.  1.
          1   -1    0    0  501    0  0.00000000000E+00 -0.00000000000E+00 -0.37704960880E+03  0.37704960880E+03  0.00000000000E+00 0. -1.
          5    1    1    2  502    0 -0.51045356177E+02  0.29296119064E+02 -0.30848516325E+02  0.66580735494E+02  0.41800000000E+01 0. -1.
         -5    1    1    2    0  502  0.56257606081E+02  0.49263989989E+02 -0.14447864434E+03  0.16273724227E+03  0.41800000000E+01 0. -1.
        -11    1    1    2    0    0 -0.10605064291E+02  0.15436765581E+02 -0.63031472120E+01  0.19760839684E+02  0.00000000000E+00 0.  1.
         11    1    1    2    0    0  0.53928143873E+01 -0.93996874634E+02 -0.14798947027E+03  0.17540062200E+03  0.00000000000E+00 0. -1.
</event>
<event>
 6    1  0.4988969E-006  0.1121183E+03  0.7561462E-02  0.1256697E+00
         -3   -1    0    0    0  501 -0.00000000000E+00  0.00000000000E+00  0.28539243658E+03  0.28539243658E+03  0.00000000000E+00 0.  1.
          3   -1    0    0  501    0  0.00000000000E+00 -0.00000000000E+00 -0.50464953909E+02  0.50464953909E+02  0.00000000000E+00 0. -1.
          5    1    1    2  502    0 -0.34408265485E+02  0.28530586612E+02  0.44203401493E+02  0.63002668274E+02  0.41800000000E+01 0. -1.
         -5    1    1    2    0  502  0.80368161361E+02 -0.30438247523E+02  0.14084200917E+03  0.16504384939E+03  0.41800000000E+01 0. -1.
        -11    1    1    2    0    0 -0.20867175636E+02 -0.39622037179E+02  0.35668337744E+02  0.57250110626E+02  0.00000000000E+00 0.  1.
         11    1    1    2    0    0 -0.25092720239E+02  0.41529698090E+02  0.14213734258E+02  0.50560762198E+02  0.00000000000E+00 0. -1.
</event>
<event>
 6    1  0.4988969E-006  0.7611312E+02  0.7561462E-02  0.1340458E+00
         -2   -1    0    0    0  501 -0.00000000000E+00  0.00000000000E+00  0.18573497627E+03  0.18573497627E+03  0.00000000000E+00 0.  1.
          2   -1    0    0  501    0  0.00000000000E+00 -0.00000000000E+00 -0.70884434983E+02  0.70884434983E+02  0.00000000000E+00 0. -1.
          5    1    1    2  502    0  0.70040661957E+01  0.33313447471E+02  0.12287901337E+03  0.12757573066E+03  0.41800000000E+01 0. -1.
         -5    1    1    2    0  502 -0.16550424120E+02 -0.28947689442E+02 -0.16066237086E+02  0.37248914570E+02  0.41800000000E+01 0. -1.
        -11    1    1    2    0    0 -0.10573543265E+02  0.36915293161E+02  0.21409020661E+02  0.43964586339E+02  0.00000000000E+00 0.  1.
         11    1    1    2    0    0  0.20119901189E+02 -0.41281051189E+02 -0.13371255656E+02  0.47830179688E+02  0.00000000000E+00 0. -1.
</event>
<event>
 6    1  0.4988969E-006  0.1180540E+03  0.7561462E-02  0.1246342E+00
         -1   -1    0    0    0  501 -0.00000000000E+00  0.00000000000E+00  0.17624859428E+03  0.17624859428E+03  0.00000000000E+00 0.  1.
          1   -1    0    0  501    0  0.00000000000E+00 -0.00000000000E+00 -0.90881790816E+02  0.90881790816E+02  0.00000000000E+00 0. -1.
          5    1    1    2  502    0 -0.48096494583E+02  0.82727383796E+02  0.22859738807E+02  0.98474021342E+02  0.41800000000E+01 0.  1.
         -5    1    1    2    0  502 -0.32265176095E+01 -0.42521700347E+02  0.29350114865E+02  0.51936567646E+02  0.41800000000E+01 0.  1.
        -11    1    1    2    0    0  0.53893847057E+02  0.32048580813E+01 -0.10610198184E+02  0.55021760890E+02  0.00000000000E+00 0. -1.
         11    1    1    2    0    0 -0.25708348644E+01 -0.43410541531E+02  0.43767147980E+02  0.61698035221E+02  0.00000000000E+00 0.  1.
</event>
<event>
 6    1  0.4988969E-006  0.9761156E+02  0.7561462E-02  0.1285400E+00
         -2   -1    0    0    0  501 -0.00000000000E+00  0.00000000000E+00  0.44501422930E+02  0.44501422930E+02  0.00000000000E+00 0. -1.
          2   -1    0    0  501    0  0.00000000000E+00 -0.00000000000E+00 -0.29825745704E+03  0.29825745704E+03  0.00000000000E+00 0.  1.
          5    1    1    2  502    0  0.11693606399E+02 -0.71401557259E+02 -0.79633766598E+02  0.10767512244E+03  0.41800000000E+01 0. -1.
         -5    1    1    2    0  502 -0.39063075677E+02  0.43305908828E+02 -0.56117509678E+02  0.81043031244E+02  0.41800000000E+01 0. -1.
        -11    1    1    2    0    0 -0.28585649861E+01  0.33457442472E+02 -0.11867430498E+03  0.12333354172E+03  0.00000000000E+00 0.  1.
         11    1    1    2    0    0  0.30228034264E+02 -0.53617940421E+01  0.66954714289E+00  0.30707184570E+02  0.00000000000E+00 0. -1.
</event>
<event>
 6    1  0.5434658E-006  0.1710182E+03  0.7561462E-02  0.1176790E+00
          1   -1    0    0  501    0  0.00000000000E+00  0.00000000000E+00  0.16371533621E+03  0.16371533621E+03  0.00000000000E+00 0. -1.
         -1   -1    0    0    0  501 -0.00000000000E+00 -0.00000000000E+00 -0.19169951259E+03  0.19169951259E+03  0.00000000000E+00 0.  1.
          5    1    1    2  502    0 -0.44290650334E+02 -0.12493032364E+02 -0.11207309231E+02  0.47548015152E+02  0.41800000000E+01 0. -1.
         -5    1    1    2    0  502 -0.10322140997E+02  0.13856284493E+03 -0.78557472753E+01  0.13923143954E+03  0.41800000000E+01 0. -1.
        -11    1    1    2    0    0  0.35242815265E+01 -0.98884449750E+02 -0.35273658559E+02  0.10504658943E+03  0.00000000000E+00 0.  1.
         11    1    1    2    0    0  0.51088509804E+02 -0.27185362818E+02  0.26352538684E+02  0.63588804680E+02  0.00000000000E+00 0. -1.
</event>
<event>
 6    1  0.4988969E-006  0.1160395E+03  0.7561462E-02  0.1249777E+00
         -2   -1    0    0    0  501 -0.00000000000E+00  0.00000000000E+00  0.42134859862E+02  0.42134859862E+02  0.00000000000E+00 0.  1.
          2   -1    0    0  501    0  0.00000000000E+00 -0.00000000000E+00 -0.45036823679E+03  0.45036823679E+03  0.00000000000E+00 0. -1.
          5    1    1    2  502    0  0.48785706443E+01 -0.21106975618E+02  0.76550794903E+01  0.23353319106E+02  0.41800000000E+01 0.  1.
         -5    1    1    2    0  502  0.14322438921E+01  0.97535299448E+02 -0.16552154788E+03  0.19217190526E+03  0.41800000000E+01 0.  1.
        -11    1    1    2    0    0  0.36101647694E+02 -0.18442987670E+02 -0.51560209683E+02  0.65589084328E+02  0.00000000000E+00 0. -1.
         11    1    1    2    0    0 -0.42412462231E+02 -0.57985336159E+02 -0.19880669886E+03  0.21138878796E+03  0.00000000000E+00 0.  1.
</event>
<event>
 6    1  0.4988969E-006  0.1064171E+03  0.7561462E-02  0.1267352E+00
          1   -1    0    0  501    0  0.00000000000E+00  0.00000000000E+00  0.23309637364E+03  0.23309637364E+03  0.00000000000E+00 0. -1.
         -1   -1    0    0    0  501 -0.00000000000E+00 -0.00000000000E+00 -0.85181948117E+02  0.85181948117E+02  0.00000000000E+00 0.  1.
          5    1    1    2  502    0  0.59402579803E+02  0.85858734648E+02  0.94141656244E+02  0.14064321044E+03  0.41800000000E+01 0. -1.
         -5    1    1    2    0  502 -0.16892944318E+02 -0.70541631513E+01 -0.22285668552E+02  0.29142000760E+02  0.41800000000E+01 0. -1.
        -11    1    1    2    0    0 -0.24676865667E+02 -0.43363180935E+02 -0.12515925472E+02  0.51438910859E+02  0.00000000000E+00 0.  1.
         11    1    1    2    0    0 -0.17832769819E+02 -0.35441390562E+02  0.88574363305E+02  0.97054199699E+02  0.00000000000E+00 0. -1.
</event>
<event>
 6    1  0.4988969E-006  0.1123682E+03  0.7561462E-02  0.1256246E+00
          1   -1    0    0  501    0  0.00000000000E+00  0.00000000000E+00  0.38282391829E+02  0.38282391829E+02  0.00000000000E+00 0.  1.
         -1   -1    0    0    0  501 -0.00000000000E+00 -0.00000000000E+00 -0.39094734291E+03  0.39094734291E+03  0.00000000000E+00 0. -1.
          5    1    1    2  502    0 -0.38661609432E+02  0.24373751236E+02 -0.77973461992E+02  0.90477251109E+02  0.41800000000E+01 0.  1.
         -5    1    1    2    0  502  0.59461747524E+02 -0.62842993930E+02 -0.15009502939E+03  0.17329434945E+03  0.41800000000E+01 0.  1.
        -11    1    1    2    0    0  0.21740699736E+02 -0.13093687183E+02 -0.15500949678E+01  0.25426471707E+02  0.00000000000E+00 0.  1.
         11    1    1    2    0    0 -0.42540837828E+02  0.51562929877E+02 -0.12304636474E+03  0.14003166248E+03  0.00000000000E+00 0. -1.
</event>
<event>
 6    1  0.4988969E-006  0.7462343E+02  0.7561462E-02  0.1345041E+00
         -2   -1    0    0    0  501 -0.00000000000E+00  0.00000000000E+00  0.40059812405E+02  0.40059812405E+02  0.00000000000E+00 0.  1.
          2   -1    0    0  501    0  0.00000000000E+00 -0.00000000000E+00 -0.33479949038E+03  0.33479949038E+03  0.00000000000E+00 0. -1.
          5    1    1    2  502    0 -0.30278253139E+02  0.31507543551E+02 -0.14984734312E+03  0.15614479355E+03  0.41800000000E+01 0. -1.
         -5    1    1    2    0  502 -0.85303604480E+01 -0.17477917244E+02  0.20429915322E+02  0.28514881740E+02  0.41800000000E+01 0. -1.
        -11    1    1    2    0    0  0.46448660448E+01 -0.41413370365E+02 -0.12066830789E+03  0.12766159389E+03  0.00000000000E+00 0.  1.
         11    1    1    2    0    0  0.34163747542E+02  0.27383744058E+02 -0.44653942284E+02  0.62538033598E+02  0.00000000000E+00 0. -1.
</event>
<event>
 6    1  0.4988969E-006  0.8454223E+02  0.7561462E-02  0.1316634E+00
         -1   -1    0    0    0  501 -0.00000000000E+00  0.00000000000E+00  0.41990083568E+02  0.41990083568E+02  0.00000000000E+00 0.  1.
          1   -1    0    0  501    0  0.00000000000E+00 -0.00000000000E+00 -0.32172240809E+03  0.32172240809E+03  0.00000000000E+00 0. -1.
          5    1    1    2  502    0 -0.46433620348E+02  0.15008320812E+02 -0.19036354117E+02  0.52546988213E+02  0.41800000000E+01 0.  1.
         -5    1    1    2    0  502  0.61397916548E+02  0.21624270680E+02 -0.13398643707E+03  0.14902063937E+03  0.41800000000E+01 0.  1.
        -11    1    1    2    0    0  0.10887319242E+02 -0.23461706750E+02 -0.13036140447E+03  0.13290252510E+03  0.00000000000E+00 0. -1.
         11    1    1    2    0    0 -0.25851615442E+02 -0.13170884743E+02  0.36518711349E+01  0.29242338974E+02  0.00000000000E+00 0.  1.
</event>
<event>
 6    1  0.4988969E-006  0.1365086E+03  0.7561462E-02  0.1218106E+00
          2   -1    0    0  501    0  0.00000000000E+00  0.00000000000E+00  0.31528961941E+03  0.31528961941E+03  0.00000000000E+00 0. -1.
         -2   -1    0    0    0  501 -0.00000000000E+00 -0.00000000000E+00 -0.71934278461E+02  0.71934278461E+02  0.00000000000E+00 0.  1.
          5    1    1    2  502    0  0.16960819797E+02 -0.88383204852E+02  0.66866904126E+02  0.11219588039E+03  0.41800000000E+01 0. -1.
         -5    1    1    2    0  502  0.52403880344E+02  0.26084549897E+02  0.30438292281E+01  0.58764851015E+02  0.41800000000E+01 0. -1.
        -11    1    1    2    0    0  0.16518414952E+02 -0.24273895461E+01  0.70115438006E+01  0.18108340592E+02  0.00000000000E+00 0.  1.
         11    1    1    2    0    0 -0.85883115093E+02  0.64726044500E+02  0.16643306380E+03  0.19815482588E+03  0.00000000000E+00 0. -1.
</event>
<event>
 6    1  0.4988969E-006  0.1358706E+03  0.7561462E-02  0.1218996E+00
          3   -1    0    0  501    0  0.00000000000E+00  0.00000000000E+00  0.21705651325E+03  0.21705651325E+03  0.00000000000E+00 0. -1.
         -3   -1    0    0    0  501 -0.00000000000E+00 -0.00000000000E+00 -0.10540821865E+03  0.10540821865E+03  0.00000000000E+00 0.  1.
          5    1    1    2  502    0  0.29084297821E+02 -0.14934332390E+02  0.36058149619E+02  0.48852770829E+02  0.41800000000E+01 0.  1.
         -5    1    1    2    0  502 -0.10594240312E+03 -0.57011478970E+02  0.89139646991E+01  0.12071053259E+03  0.41800000000E+01 0.  1.
        -11    1    1    2    0    0 -0.85130671847E+01  0.85362723413E+01  0.42049225908E+02  0.43743315579E+02  0.00000000000E+00 0. -1.
         11    1    1    2    0    0  0.85371172480E+02  0.63409539019E+02  0.24626954370E+02  0.10915811289E+03  0.00000000000E+00 0.  1.
</event>
<event>
 6    1  0.4988969E-006  0.1153504E+03  0.7561462E-02  0.1250971E+00
         -1   -1    0    0    0  501 -0.00000000000E+00  0.00000000000E+00  0.22319271628E+02  0.22319271628E+02  0.00000000000E+00 0.  1.
          1   -1    0    0  501    0  0.00000000000E+00 -0.00000000000E+00 -0.66360078298E+03  0.66360078298E+03  0.00000000000E+00 0. -1.
          5    1    1    2  502    0  0.31120208954E+02  0.74121470202E+02 -0.33316124335E+03  0.34274822570E+03  0.41800000000E+01 0. -1.
         -5    1    1    2    0  502 -0.39582785875E+02 -0.24372649702E+02 -0.89861192826E+02  0.10125872489E+03  0.41800000000E+01 0. -1.
        -11    1    1    2    0    0  0.42078360776E+02 -0.55269590334E+02 -0.13180648440E+03  0.14899082318E+03  0.00000000000E+00 0.  1.
         11    1    1    2    0    0 -0.33615783855E+02  0.55207698337E+01 -0.86452590768E+02  0.92922280828E+02  0.00000000000E+00 0. -1.
</event>
<event>
 6    1  0.4988969E-006  0.1487027E+03  0.7561462E-02  0.1202076E+00
          1   -1    0    0  501    0  0.00000000000E+00  0.00000000000E+00  0.20202873808E+02  0.20202873808E+02  0.00000000000E+00 0. -1.
         -1   -1    0    0    0  501 -0.00000000000E+00 -0.00000000000E+00 -0.18065677227E+04  0.18065677227E+04  0.00000000000E+00 0.  1.
          5    1    1    2  502    0  0.75821282286E+02 -0.19162526998E+02 -0.11670946972E+04  0.11697194424E+04  0.41800000000E+01 0.  1.
         -5    1    1    2    0  502  0.56141086122E+02  0.11232585117E+02 -0.16393097790E+03  0.17369176847E+03  0.41800000000E+01 0.  1.
        -11    1    1    2    0    0 -0.15746649431E+01 -0.26722220683E+02 -0.62215129597E+02  0.67729454440E+02  0.00000000000E+00 0. -1.
         11    1    1    2    0    0 -0.13038770347E+03  0.34652162564E+02 -0.39312404420E+03  0.41562993121E+03  0.00000000000E+00 0.  1.
</event>
<event>
 6    1  0.4988969E-006  0.9820391E+02  0.7561462E-02  0.1284119E+00
          1   -1    0    0  501    0  0.00000000000E+00  0.00000000000E+00  0.49639659887E+02  0.49639659887E+02  0.00000000000E+00 0. -1.
         -1   -1    0    0    0  501 -0.00000000000E+00 -0.00000000000E+00 -0.57698970041E+03  0.57698970041E+03  0.00000000000E+00 0.  1.
          5    1    1    2  502    0 -0.33700265056E+02 -0.32042700827E+02 -0.45601855628E+02  0.65264417395E+02  0.41800000000E+01 0. -1.
         -5    1    1    2    0  502  0.20403266362E+02 -0.45335693728E+02 -0.42630291647E+03  0.42921238029E+03  0.41800000000E+01 0. -1.
        -11    1    1    2    0    0  0.38184376260E+02  0.46652407893E+02 -0.67799942720E+02  0.90726655319E+02  0.00000000000E+00 0.  1.
         11    1    1    2    0    0 -0.24887377566E+02  0.30725986662E+02  0.12354674291E+02  0.41425907297E+02  0.00000000000E+00 0. -1.
</event>
<event>
 6    1  0.4988969E-006  0.1239624E+03  0.7561462E-02  0.1236700E+00
         -2   -1    0    0    0  501 -0.00000000000E+00  0.00000000000E+00  0.31185832787E+02  0.31185832787E+02  0.00000000000E+00 0.  1.
          2   -1    0    0  501    0  0.00000000000E+00 -0.00000000000E+00 -0.91104125532E+03  0.91104125532E+03  0.00000000000E+00 0. -1.
          5    1    1    2  502    0  0.71251742024E+02 -0.44517376013E+02 -0.33140695891E+03  0.34191614808E+03  0.41800000000E+01 0. -1.
         -5    1    1    2    0  502 -0.68665935866E+02  0.20251939436E+02 -0.37134055310E+02  0.80756190246E+02  0.41800000000E+01 0.  1.
        -11    1    1    2    0    0  0.44660108794E+01  0.57725563523E+02 -0.33138079957E+03  0.33640068410E+03  0.00000000000E+00 0. -1.
         11    1    1    2    0    0 -0.70518170376E+01 -0.33460126946E+02 -0.17993360874E+03  0.18315406568E+03  0.00000000000E+00 0.  1.
</event>
<event>
 6    1  0.4988969E-006  0.1057279E+03  0.7561462E-02  0.1268692E+00
          4   -1    0    0  501    0  0.00000000000E+00  0.00000000000E+00  0.99327061301E+02  0.99327061301E+02  0.00000000000E+00 0. -1.
         -4   -1    0    0    0  501 -0.00000000000E+00 -0.00000000000E+00 -0.16735943165E+03  0.16735943165E+03  0.00000000000E+00 0.  1.
          5    1    1    2  502    0  0.64485761266E+02  0.33665172257E+02  0.57619550623E+01  0.73091926744E+02  0.41800000000E+01 0. -1.
         -5    1    1    2    0  502 -0.53586449448E+02  0.11463015755E+02 -0.71839305687E+02  0.90450353987E+02  0.41800000000E+01 0.  1.
        -11    1    1    2    0    0  0.27749192493E+02 -0.33021829747E+02  0.29165612057E+02  0.52068146217E+02  0.00000000000E+00 0. -1.
         11    1    1    2    0    0 -0.38648504310E+02 -0.12106358264E+02 -0.31120631779E+02  0.51076066001E+02  0.00000000000E+00 0.  1.
</event>
<event>
 6    1  0.4988969E-006  0.1048543E+03  0.7561462E-02  0.1270407E+00
          1   -1    0    0  501    0  0.00000000000E+00  0.00000000000E+00  0.20189301341E+02  0.20189301341E+02  0.00000000000E+00 0. -1.
         -1   -1    0    0    0  501 -0.00000000000E+00 -0.00000000000E+00 -0.56691690464E+03  0.56691690464E+03  0.00000000000E+00 0.  1.
          5    1    1    2  502    0 -0.25115986988E+02 -0.49995978117E+02 -0.14826455412E+03  0.15852526940E+03  0.41800000000E+01 0.  1.
         -5    1    1    2    0  502  0.49747573649E+02  0.50614795898E+02 -0.21753197653E+03  0.22885434639E+03  0.41800000000E+01 0.  1.
        -11    1    1    2    0    0  0.28871118592E+02 -0.24594003716E+01 -0.85881617834E+02  0.90637974496E+02  0.00000000000E+00 0.  1.
         11    1    1    2    0    0 -0.53502705254E+02  0.18405825901E+01 -0.95049454811E+02  0.10908861569E+03  0.00000000000E+00 0. -1.
</event>
<event>
 6    1  0.4988969E-006  0.1674720E+03  0.7561462E-02  0.1180510E+00
          2   -1    0    0  501    0  0.00000000000E+00  0.00000000000E+00  0.22530953275E+03  0.22530953275E+03  0.00000000000E+00 0. -1.
         -2   -1    0    0    0  501 -0.00000000000E+00 -0.00000000000E+00 -0.32877370580E+03  0.32877370580E+03  0.00000000000E+00 0.  1.
          5    1    1    2  502    0  0.12648533705E+03  0.56410241887E+02  0.24183345059E+02  0.14065191949E+03  0.41800000000E+01 0. -1.
         -5    1    1    2    0  502 -0.70836956537E+02 -0.61982051589E+02 -0.23975523251E+03  0.25760375200E+03  0.41800000000E+01 0.  1.
        -11    1    1    2    0    0  0.23149992919E+02 -0.29345513900E+00  0.67196553838E+01  0.24107302972E+02  0.00000000000E+00 0. -1.
         11    1    1    2    0    0 -0.78798373434E+02  0.58652648413E+01  0.10538805901E+03  0.13172026408E+03  0.00000000000E+00 0.  1.
</event>
<event>
 6    1  0.4988969E-006  0.1281021E+03  0.7561462E-02  0.1230299E+00
          2   -1    0    0  501    0  0.00000000000E+00  0.00000000000E+00  0.26822768116E+03  0.26822768116E+03  0.00000000000E+00 0. -1.
         -2   -1    0    0    0  501 -0.00000000000E+00 -0.00000000000E+00 -0.85423455235E+02  0.85423455235E+02  0.00000000000E+00 0.  1.
          5    1    1    2  502    0 -0.97000963676E+01  0.86039457043E+02 -0.84842701732E+01  0.87099571057E+02  0.41800000000E+01 0. -1.
         -5    1    1    2    0  502  0.30524799685E+02  0.16168282804E+02  0.87012523236E+02  0.93711410002E+02  0.41800000000E+01 0. -1.
        -11    1    1    2    0    0  0.29856268299E+02 -0.65998256783E+02  0.74114756999E+02  0.10363476183E+03  0.00000000000E+00 0. -1.
         11    1    1    2    0    0 -0.50680971616E+02 -0.36209483065E+02  0.30161215866E+02  0.69205393506E+02  0.00000000000E+00 0.  1.
</event>
<event>
 6    1  0.4988969E-006  0.1284777E+03  0.7561462E-02  0.1229732E+00
          1   -1    0    0  501    0  0.00000000000E+00  0.00000000000E+00  0.55057720527E+03  0.55057720527E+03  0.00000000000E+00 0. -1.
         -1   -1    0    0    0  501 -0.00000000000E+00 -0.00000000000E+00 -0.43247235298E+02  0.43247235298E+02  0.00000000000E+00 0.  1.
          5    1    1    2  502    0  0.13689908828E+02  0.48249242448E+02  0.13125631202E+03  0.14057416137E+03  0.41800000000E+01 0. -1.
         -5    1    1    2    0  502 -0.31767313081E+02 -0.11414082851E+03  0.98943387940E+02  0.15441682982E+03  0.41800000000E+01 0.  1.
        -11    1    1    2    0    0  0.22893735138E+00  0.69802663435E+02  0.27055485547E+03  0.27941437696E+03  0.00000000000E+00 0. -1.
         11    1    1    2    0    0  0.17848466902E+02 -0.39110773685E+01  0.65754145395E+01  0.19419072411E+02  0.00000000000E+00 0.  1.
</event>
<event>
 6    1  0.4988969E-006  0.8215133E+02  0.7561462E-02  0.1323055E+00
         -2   -1    0    0    0  501 -0.00000000000E+00  0.00000000000E+00  0.24396010273E+02  0.24396010273E+02  0.00000000000E+00 0.  1.
          2   -1    0    0  501    0  0.00000000000E+00 -0.00000000000E+00 -0.52873976893E+03  0.52873976893E+03  0.00000000000E+00 0. -1.
          5    1    1    2  502    0  0.17644244656E+02 -0.16525020326E+02  0.26875759483E+01  0.24679771691E+02  0.41800000000E+01 0. -1.
         -5    1    1    2    0  502 -0.19837278915E+02  0.43671833425E+02 -0.24179347267E+03  0.24654067107E+03  0.41800000000E+01 0. -1.
        -11    1    1    2    0    0 -0.42400293615E+02 -0.82784230488E+01 -0.85843202980E+02  0.96100846431E+02  0.00000000000E+00 0.  1.
         11    1    1    2    0    0  0.44593327874E+02 -0.18868390050E+02 -0.17939465896E+03  0.18581449001E+03  0.00000000000E+00 0. -1.
</event>
<event>
 6    1  0.4988969E-006  0.7617874E+02  0.7561462E-02  0.1340259E+00
         -1   -1    0    0    0  501 -0.00000000000E+00  0.00000000000E+00  0.50502366261E+03  0.50502366261E+03  0.00000000000E+00 0.  1.
          1   -1    0    0  501    0  0.00000000000E+00 -0.00000000000E+00 -0.37453591357E+02  0.37453591357E+02  0.00000000000E+00 0. -1.
          5    1    1    2  502    0 -0.17833092063E+02 -0.10588129015E+02  0.37359979868E+03  0.37419835599E+03  0.41800000000E+01 0.  1.
         -5    1    1    2    0  502  0.33484475516E+02  0.27738000980E+02  0.42606375301E+02  0.61019524869E+02  0.41800000000E+01 0.  1.
        -11    1    1    2    0    0  0.32243562685E+02  0.82831997783E+01  0.39663349501E+02  0.51782622827E+02  0.00000000000E+00 0. -1.
         11    1    1    2    0    0 -0.47894946137E+02 -0.25433071743E+02  0.11700547766E+02  0.55476750282E+02  0.00000000000E+00 0.  1.
</event>
<event>
 6    1  0.4988969E-006  0.7458164E+02  0.7561462E-02  0.1345171E+00
          1   -1    0    0  501    0  0.00000000000E+00  0.00000000000E+00  0.15906233607E+03  0.15906233607E+03  0.00000000000E+00 0. -1.
         -1   -1    0    0    0  501 -0.00000000000E+00 -0.00000000000E+00 -0.17814846602E+03  0.17814846602E+03  0.00000000000E+00 0.  1.
          5    1    1    2  502    0  0.17844646277E+02  0.42735725541E+02  0.96091533726E+01  0.47482437456E+02  0.41800000000E+01 0.  1.
         -5    1    1    2    0  502  0.10121228293E+02  0.20349532274E-01 -0.13953833413E+03  0.13996734893E+03  0.41800000000E+01 0.  1.
        -11    1    1    2    0    0 -0.51395020200E+02 -0.11526443870E+02  0.92902412383E+02  0.10679496822E+03  0.00000000000E+00 0. -1.
         11    1    1    2    0    0  0.23429145630E+02 -0.31229631203E+02  0.17940638421E+02  0.42966047490E+02  0.00000000000E+00 0.  1.
</event>
<event>
 6    1  0.4988969E-006  0.8772512E+02  0.7561462E-02  0.1308456E+00
          4   -1    0    0  501    0  0.00000000000E+00  0.00000000000E+00  0.40790277462E+03  0.40790277462E+03  0.00000000000E+00 0. -1.
         -4   -1    0    0    0  501 -0.00000000000E+00 -0.00000000000E+00 -0.30146563794E+02  0.30146563794E+02  0.00000000000E+00 0.  1.
          5    1    1    2  502    0 -0.21402838310E+02  0.41393130705E+02  0.12790234136E+02  0.48502940597E+02  0.41800000000E+01 0.  1.
         -5    1    1    2    0  502  0.11968259707E+02 -0.34004582221E+02  0.16624007624E+03  0.17015518271E+03  0.41800000000E+01 0.  1.
        -11    1    1    2    0    0  0.50733890614E+02 -0.54942606199E+01  0.97473503553E+02  0.11002362679E+03  0.00000000000E+00 0.  1.
         11    1    1    2    0    0 -0.41299312011E+02 -0.18942878636E+01  0.10125239689E+03  0.10936758832E+03  0.00000000000E+00 0. -1.
</event>
<event>
 6    1  0.4988969E-006  0.1876440E+03  0.7561462E-02  0.1160604E+00
         -1   -1    0    0    0  501 -0.00000000000E+00  0.00000000000E+00  0.49263554215E+03  0.49263554215E+03  0.00000000000E+00 0.  1.
          1   -1    0    0  501    0  0.00000000000E+00 -0.00000000000E+00 -0.15411376699E+03  0.15411376699E+03  0.00000000000E+00 0. -1.
          5    1    1    2  502    0 -0.17326673038E+02  0.95624537677E+01 -0.84784837790E+01  0.21931967714E+02  0.41800000000E+01 0. -1.
         -5    1    1    2    0  502  0.15875080616E+03  0.88063290288E+02  0.38473493164E+03  0.42543554339E+03  0.41800000000E+01 0.  1.
        -11    1    1    2    0    0 -0.41893093909E+02 -0.16341557992E+02 -0.53528544838E+02  0.69909820107E+02  0.00000000000E+00 0. -1.
         11    1    1    2    0    0 -0.99531039216E+02 -0.81284186064E+02  0.15793872139E+02  0.12947197793E+03  0.00000000000E+00 0.  1.
</event>
<event>
 6    1  0.4988969E-006  0.1133576E+03  0.7561462E-02  0.1254475E+00
          1   -1    0    0  501    0  0.00000000000E+00  0.00000000000E+00  0.23672128309E+03  0.23672128309E+03  0.00000000000E+00 0. -1.
         -1   -1    0    0    0  501 -0.00000000000E+00 -0.00000000000E+00 -0.85919660797E+02  0.85919660797E+02  0.00000000000E+00 0.  1.
          5    1    1    2  502    0 -0.63120684112E+02  0.88560436962E+02  0.60762027787E-01  0.10883311927E+03  0.41800000000E+01 0. -1.
         -5    1    1    2    0  502  0.97115122578E+01 -0.30578089439E+02  0.25555033499E+02  0.41229421063E+02  0.41800000000E+01 0. -1.
        -11    1    1    2    0    0  0.16151870807E+02  0.53001736751E+00  0.95950970636E+02  0.97302377232E+02  0.00000000000E+00 0. -1.
         11    1    1    2    0    0  0.37257301046E+02 -0.58512364890E+02  0.29234856132E+02  0.75276026326E+02  0.00000000000E+00 0.  1.
</event>
<event>
 6    1  0.4988969E-006  0.1548811E+03  0.7561462E-02  0.1194600E+00
          1   -1    0    0  501    0  0.00000000000E+00  0.00000000000E+00  0.78862225957E+03  0.78862225957E+03  0.00000000000E+00 0. -1.
         -1   -1    0    0    0  501 -0.00000000000E+00 -0.00000000000E+00 -0.41922611444E+02  0.41922611444E+02  0.00000000000E+00 0.  1.
          5    1    1    2  502    0  0.12515213513E+02  0.97154331369E+02  0.29608258995E+03  0.31189416016E+03  0.41800000000E+01 0.  1.
         -5    1    1    2    0  502  0.21867234303E+02  0.38740261278E+02  0.77761720884E+01  0.45353335404E+02  0.41800000000E+01 0.  1.
        -11    1    1    2    0    0 -0.65381058874E+02 -0.10146801164E+03  0.32178728128E+03  0.34368225826E+03  0.00000000000E+00 0.  1.
         11    1    1    2    0    0  0.30998611058E+02 -0.34426581003E+02  0.12105360481E+03  0.12961511719E+03  0.00000000000E+00 0. -1.
</event>
<event>
 6    1  0.4988969E-006  0.1048086E+03  0.7561462E-02  0.1270497E+00
         -1   -1    0    0    0  501 -0.00000000000E+00  0.00000000000E+00  0.41464495015E+02  0.41464495015E+02  0.00000000000E+00 0.  1.
          1   -1    0    0  501    0  0.00000000000E+00 -0.00000000000E+00 -0.75509802257E+03  0.75509802257E+03  0.00000000000E+00 0. -1.
          5    1    1    2  502    0 -0.46007536698E+02  0.28661080292E+02 -0.14908755017E+03  0.15869064551E+03  0.41800000000E+01 0. -1.
         -5    1    1    2    0  502 -0.43826271297E+01  0.45816331389E+02  0.11761651876E+02  0.47688075001E+02  0.41800000000E+01 0. -1.
        -11    1    1    2    0    0  0.61404607766E+02 -0.76228241294E+02 -0.56775011597E+03  0.57612625770E+03  0.00000000000E+00 0. -1.
         11    1    1    2    0    0 -0.11014443938E+02  0.17508296139E+01 -0.85575132935E+01  0.14057539379E+02  0.00000000000E+00 0.  1.
</event>
<event>
 6    1  0.4988969E-006  0.1397296E+03  0.7561462E-02  0.1213693E+00
         -3   -1    0    0    0  501 -0.00000000000E+00  0.00000000000E+00  0.35309656865E+03  0.35309656865E+03  0.00000000000E+00 0.  1.
          3   -1    0    0  501    0  0.00000000000E+00 -0.00000000000E+00 -0.60868456652E+02  0.60868456652E+02  0.00000000000E+00 0. -1.
          5    1    1    2  502    0  0.97476526656E+02 -0.64262994015E+02  0.16288451565E+03  0.20045010224E+03  0.41800000000E+01 0. -1.
         -5    1    1    2    0  502 -0.44187098683E+01  0.37729562895E+02  0.27643139118E+02  0.47166306337E+02  0.41800000000E+01 0. -1.
        -11    1    1    2    0    0 -0.72572386206E+02 -0.18540533486E+02  0.86786672859E+02  0.11464043443E+03  0.00000000000E+00 0.  1.
         11    1    1    2    0    0 -0.20485430583E+02  0.45073964605E+02  0.14913784366E+02  0.51708182288E+02  0.00000000000E+00 0. -1.
</event>
<event>
 6    1  0.4988969E-006  0.2111829E+03  0.7561462E-02  0.1140633E+00
         -2   -1    0    0    0  501 -0.00000000000E+00  0.00000000000E+00  0.32586929845E+03  0.32586929845E+03  0.00000000000E+00 0. -1.
          2   -1    0    0  501    0  0.00000000000E+00 -0.00000000000E+00 -0.20496771154E+03  0.20496771154E+03  0.00000000000E+00 0.  1.
          5    1    1    2  502    0 -0.10622596234E+02 -0.13653270412E+02  0.50620166726E+01  0.18502641878E+02  0.41800000000E+01 0.  1.
         -5    1    1    2    0  502  0.81795648351E+02  0.19333502870E+03  0.19279811960E+03  0.28505709732E+03  0.41800000000E+01 0.  1.
        -11    1    1    2    0    0 -0.17288176249E+02 -0.22083057404E+02  0.20100224033E+02  0.34504513741E+02  0.00000000000E+00 0. -1.
         11    1    1    2    0    0 -0.53884875869E+02 -0.15759870089E+03 -0.97058773400E+02  0.19277275705E+03  0.00000000000E+00 0.  1.
</event>
<event>
 6    1  0.4988969E-006  0.1397599E+03  0.7561462E-02  0.1213652E+00
         -2   -1    0    0    0  501 -0.00000000000E+00  0.00000000000E+00  0.14903466419E+03  0.14903466419E+03  0.00000000000E+00 0.  1.
          2   -1    0    0  501    0  0.00000000000E+00 -0.00000000000E+00 -0.15094609849E+03  0.15094609849E+03  0.00000000000E+00 0. -1.
          5    1    1    2  502    0  0.10582587423E+03 -0.65859510810E+02  0.29053478731E+02  0.12805533120E+03  0.41800000000E+01 0.  1.
         -5    1    1    2    0  502 -0.32096623005E+02  0.46848644264E+01  0.41343058619E+01  0.32965224829E+02  0.41800000000E+01 0.  1.
        -11    1    1    2    0    0 -0.53845159810E+02 -0.39660581508E+01 -0.44809532656E+02  0.70163559410E+02  0.00000000000E+00 0. -1.
         11    1    1    2    0    0 -0.19884091417E+02  0.65140704535E+02  0.97103137722E+01  0.68796647246E+02  0.00000000000E+00 0.  1.
</event>
<event>
 6    1  0.4988969E-006  0.9201368E+02  0.7561462E-02  0.1298047E+00
         -3   -1    0    0    0  501 -0.00000000000E+00  0.00000000000E+00  0.12171199736E+04  0.12171199736E+04  0.00000000000E+00 0.  1.
          3   -1    0    0  501    0  0.00000000000E+00 -0.00000000000E+00 -0.13166194485E+02  0.13166194485E+02  0.00000000000E+00 0. -1.
          5    1    1    2  502    0  0.30872279873E+02 -0.38650751173E+02  0.87395000536E+02  0.10051038130E+03  0.41800000000E+01 0.  1.
         -5    1    1    2    0  502 -0.12569640967E+02 -0.24090011031E+02  0.63209650411E+03  0.63269407095E+03  0.41800000000E+01 0.  1.
        -11    1    1    2    0    0  0.11164901016E+02  0.74377154979E+02  0.39692213630E+03  0.40398489883E+03  0.00000000000E+00 0.  1.
         11    1    1    2    0    0 -0.29467539922E+02 -0.11636392775E+02  0.87540138169E+02  0.93096817005E+02  0.00000000000E+00 0. -1.
</event>
<event>
 6    1  0.4988969E-006  0.1059284E+03  0.7561462E-02  0.1268301E+00
         -2   -1    0    0    0  501 -0.00000000000E+00  0.00000000000E+00  0.38758501904E+02  0.38758501904E+02  0.00000000000E+00 0.  1.
          2   -1    0    0  501    0  0.00000000000E+00 -0.00000000000E+00 -0.38138301383E+03  0.38138301383E+03  0.00000000000E+00 0. -1.
          5    1    1    2  502    0 -0.34523337364E+02  0.58148678199E+02 -0.12218643410E+03  0.13971444692E+03  0.41800000000E+01 0. -1.
         -5    1    1    2    0  502  0.20075554623E+02 -0.60716063705E+02 -0.38452107712E+02  0.74736238016E+02  0.41800000000E+01 0.  1.
        -11    1    1    2    0    0  0.38976563909E+02  0.25386919466E+02 -0.15741631716E+03  0.16414495155E+03  0.00000000000E+00 0.  1.
         11    1    1    2    0    0 -0.24528781168E+02 -0.22819533960E+02 -0.24569652951E+02  0.41545879241E+02  0.00000000000E+00 0. -1.
</event>
<event>
 6    1  0.4988969E-006  0.1255819E+03  0.7561462E-02  0.1234163E+00
          2   -1    0    0  501    0  0.00000000000E+00  0.00000000000E+00  0.12135326128E+03  0.12135326128E+03  0.00000000000E+00 0. -1.
         -2   -1    0    0    0  501 -0.00000000000E+00 -0.00000000000E+00 -0.16810236548E+03  0.16810236548E+03  0.00000000000E+00 0.  1.
          5    1    1    2  502    0  0.81590425530E+02 -0.79445387411E+02 -0.50406760991E+02  0.12460690620E+03  0.41800000000E+01 0.  1.
         -5    1    1    2    0  502 -0.16814144966E+02  0.30485827676E+02 -0.19096298581E+02  0.39927962376E+02  0.41800000000E+01 0.  1.
        -11    1    1    2    0    0 -0.55823446209E+02  0.36347894075E+01  0.46710037062E+02  0.72878641611E+02  0.00000000000E+00 0. -1.
         11    1    1    2    0    0 -0.89528343544E+01  0.45324770328E+02 -0.23956081691E+02  0.52042116581E+02  0.00000000000E+00 0.  1.
</event>
<event>
 6    1  0.4988969E-006  0.1149762E+03  0.7561462E-02  0.1251623E+00
         -4   -1    0    0    0  501 -0.00000000000E+00  0.00000000000E+00  0.11068939800E+04  0.11068939800E+04  0.00000000000E+00 0.  1.
          4   -1    0    0  501    0  0.00000000000E+00 -0.00000000000E+00 -0.28385464061E+02  0.28385464061E+02  0.00000000000E+00 0. -1.
          5    1    1    2  502    0  0.29451833138E+02  0.19451760054E+02  0.47088494300E+02  0.58996441756E+02  0.41800000000E+01 0.  1.
         -5    1    1    2    0  502  0.59211669411E+02  0.28619893701E+02  0.83264761717E+03  0.83525124776E+03  0.41800000000E+01 0.  1.
        -11    1    1    2    0    0 -0.27587269526E+02 -0.60220674347E+02  0.14231998355E+03  0.15697950432E+03  0.00000000000E+00 0.  1.
         11    1    1    2    0    0 -0.61076233023E+02  0.12149020593E+02  0.56452420952E+02  0.84052250255E+02  0.00000000000E+00 0. -1.
</event>
<event>
 6    1  0.4988969E-006  0.1099509E+03  0.7561462E-02  0.1260661E+00
          2   -1    0    0  501    0  0.00000000000E+00  0.00000000000E+00  0.37362695534E+02  0.37362695534E+02  0.00000000000E+00 0. -1.
         -2   -1    0    0    0  501 -0.00000000000E+00 -0.00000000000E+00 -0.33501351746E+03  0.33501351746E+03  0.00000000000E+00 0.  1.
          5    1    1    2  502    0 -0.24421907807E+02 -0.59436968999E+02 -0.67700022668E+02  0.93434192531E+02  0.41800000000E+01 0. -1.
         -5    1    1    2    0  502  0.19166767763E+02  0.56910802118E+02 -0.82311062998E+02  0.10197444717E+03  0.41800000000E+01 0. -1.
        -11    1    1    2    0    0 -0.44782628585E+02 -0.34583990962E+01 -0.88676450974E+02  0.99403004505E+02  0.00000000000E+00 0.  1.
         11    1    1    2    0    0  0.50037768629E+02  0.59845659775E+01 -0.58963285288E+02  0.77564568788E+02  0.00000000000E+00 0. -1.
</event>
<event>
 6    1  0.4988969E-006  0.1490347E+03  0.7561462E-02  0.1201664E+00
         -1   -1    0    0    0  501 -0.00000000000E+00  0.00000000000E+00  0.33869003635E+02  0.33869003635E+02  0.00000000000E+00 0.  1.
          1   -1    0    0  501    0  0.00000000000E+00 -0.00000000000E+00 -0.94484052581E+03  0.94484052581E+03  0.00000000000E+00 0. -1.
          5    1    1    2  502    0 -0.57304000670E+02 -0.64111062075E+02 -0.46241750827E+03  0.47036305247E+03  0.41800000000E+01 0. -1.
         -5    1    1    2    0  502  0.41627960898E+02 -0.50690757381E+02 -0.46537756482E+02  0.80533689787E+02  0.41800000000E+01 0.  1.
        -11    1    1    2    0    0 -0.35322429650E+02  0.69844307336E+02 -0.20918808644E+03  0.22335074840E+03  0.00000000000E+00 0.  1.
         11    1    1    2    0    0  0.50998469422E+02  0.44957512121E+02 -0.19282817098E+03  0.20446203879E+03  0.00000000000E+00 0. -1.
</event>
<event>
 6    1  0.4988969E-006  0.1856448E+03  0.7561462E-02  0.1162449E+00
          2   -1    0    0  501    0  0.00000000000E+00  0.00000000000E+00  0.61543306431E+03  0.61543306431E+03  0.00000000000E+00 0.  1.
         -2   -1    0    0    0  501 -0.00000000000E+00 -0.00000000000E+00 -0.10452035009E+03  0.10452035009E+03  0.00000000000E+00 0. -1.
          5    1    1    2  502    0 -0.12074577487E+03 -0.10684683547E+03  0.83778619562E+02  0.18174740134E+03  0.41800000000E+01 0.  1.
         -5    1    1    2    0  502  0.42201628280E+01 -0.26475501636E+02 -0.31185624212E+02  0.41337362261E+02  0.41800000000E+01 0.  1.
        -11    1    1    2    0    0  0.11180554943E+03  0.10247334525E+03  0.30765379574E+03  0.34300455596E+03  0.00000000000E+00 0.  1.
         11    1    1    2    0    0  0.47200626120E+01  0.30848991857E+02  0.15066592313E+03  0.15386409484E+03  0.00000000000E+00 0. -1.
</event>
<event>
 6    1  0.4988969E-006  0.9259269E+02  0.7561462E-02  0.1296692E+00
         -1   -1    0    0    0  501 -0.00000000000E+00  0.00000000000E+00  0.80991171719E+02  0.80991171719E+02  0.00000000000E+00 0.  1.
          1   -1    0    0  501    0  0.00000000000E+00 -0.00000000000E+00 -0.14922688392E+03  0.14922688392E+03  0.00000000000E+00 0. -1.
          5    1    1    2  502    0  0.91782581986E+01  0.45939517067E+02 -0.47756638793E+02  0.67028714748E+02  0.41800000000E+01 0. -1.
         -5    1    1    2    0  502 -0.32226898649E+01 -0.53809711364E+02  0.26543690084E+02  0.60232139679E+02  0.41800000000E+01 0. -1.
        -11    1    1    2    0    0  0.21758034021E+02 -0.30059852694E+02 -0.41479046874E+02  0.55655351208E+02  0.00000000000E+00 0. -1.
         11    1    1    2    0    0 -0.27713602355E+02  0.37930046991E+02 -0.55437166196E+01  0.47301850008E+02  0.00000000000E+00 0.  1.
</event>
<event>
 6    1  0.4988969E-006  0.1304650E+03  0.7561462E-02  0.1226767E+00
         -2   -1    0    0    0  501 -0.00000000000E+00  0.00000000000E+00  0.12300437053E+03  0.12300437053E+03  0.00000000000E+00 0.  1.
          2   -1    0    0  501    0  0.00000000000E+00 -0.00000000000E+00 -0.19808053193E+03  0.19808053193E+03  0.00000000000E+00 0. -1.
          5    1    1    2  502    0 -0.29566400639E+02  0.79788039564E+01  0.14967826465E+02  0.34341543186E+02  0.41800000000E+01 0.  1.
         -5    1    1    2    0  502  0.12158389075E+03  0.36955021662E+02 -0.86730675780E+01  0.12744022370E+03  0.41800000000E+01 0.  1.
        -11    1    1    2    0    0 -0.50888132512E+02 -0.30279498235E+02  0.80809608299E+01  0.59764136168E+02  0.00000000000E+00 0.  1.
         11    1    1    2    0    0 -0.41129357597E+02 -0.14654327383E+02 -0.89451881115E+02  0.99538999404E+02  0.00000000000E+00 0. -1.
</event>
<event>
 6    1  0.4988969E-006  0.3253584E+03  0.7561462E-02  0.1073209E+00
          3   -1    0    0  501    0  0.00000000000E+00  0.00000000000E+00  0.91532731655E+02  0.91532731655E+02  0.00000000000E+00 0. -1.
         -3   -1    0    0    0  501 -0.00000000000E+00 -0.00000000000E+00 -0.11756371010E+04  0.11756371010E+04  0.00000000000E+00 0.  1.
          5    1    1    2  502    0  0.74947618823E+02 -0.15477383759E+03 -0.26050018344E+03  0.31216967237E+03  0.41800000000E+01 0. -1.
         -5    1    1    2    0  502 -0.49772635009E+02 -0.15341436376E+03 -0.26541394900E+03  0.31060476321E+03  0.41800000000E+01 0. -1.
        -11    1    1    2    0    0  0.18484025250E+02  0.19764789125E+03 -0.39983234607E+03  0.44639920818E+03  0.00000000000E+00 0. -1.
         11    1    1    2    0    0 -0.43659009063E+02  0.11054031011E+03 -0.15835789087E+03  0.19799618894E+03  0.00000000000E+00 0.  1.
</event>
<event>
 6    1  0.4988969E-006  0.1028253E+03  0.7561462E-02  0.1274464E+00
          1   -1    0    0  501    0  0.00000000000E+00  0.00000000000E+00  0.23212058488E+03  0.23212058488E+03  0.00000000000E+00 0. -1.
         -1   -1    0    0    0  501 -0.00000000000E+00 -0.00000000000E+00 -0.53053792235E+02  0.53053792235E+02  0.00000000000E+00 0.  1.
          5    1    1    2  502    0  0.64354335259E+02 -0.19999713801E+02  0.28134451291E+02  0.73147035266E+02  0.41800000000E+01 0.  1.
         -5    1    1    2    0  502 -0.55983139917E+02  0.92286644668E+01  0.43768357280E+02  0.71780371284E+02  0.41800000000E+01 0.  1.
        -11    1    1    2    0    0  0.35418137858E+02  0.12102235210E+02  0.19403313915E+02  0.42159188527E+02  0.00000000000E+00 0.  1.
         11    1    1    2    0    0 -0.43789333201E+02 -0.13311858757E+01  0.87760670159E+02  0.98087782036E+02  0.00000000000E+00 0. -1.
</event>
<event>
 6    1  0.4988969E-006  0.1263615E+03  0.7561462E-02  0.1232957E+00
         -1   -1    0    0    0  501 -0.00000000000E+00  0.00000000000E+00  0.27515383385E+02  0.27515383385E+02  0.00000000000E+00 0.  1.
          1   -1    0    0  501    0  0.00000000000E+00 -0.00000000000E+00 -0.66483100733E+03  0.66483100733E+03  0.00000000000E+00 0. -1.
          5    1    1    2  502    0 -0.49924627408E+02 -0.35648486698E+01 -0.96871790183E+02  0.10911825100E+03  0.41800000000E+01 0.  1.
         -5    1    1    2    0  502  0.73033835024E+02  0.33481750617E+02 -0.15409813755E+03  0.17383520092E+03  0.41800000000E+01 0.  1.
        -11    1    1    2    0    0  0.11894759176E+02  0.41145145894E+02 -0.60949503705E+02  0.74493290492E+02  0.00000000000E+00 0.  1.
         11    1    1    2    0    0 -0.35003966793E+02 -0.71062047842E+02 -0.32539619250E+03  0.33489964830E+03  0.00000000000E+00 0. -1.
</event>
<event>
 6    1  0.4988969E-006  0.5995506E+02  0.7561462E-02  0.1398020E+00
         -1   -1    0    0    0  501 -0.00000000000E+00  0.00000000000E+00  0.41829978023E+03  0.41829978023E+03  0.00000000000E+00 0.  1.
          1   -1    0    0  501    0  0.00000000000E+00 -0.00000000000E+00 -0.32157642272E+02  0.32157642272E+02  0.00000000000E+00 0. -1.
          5    1    1    2  502    0 -0.14509508968E+02 -0.15340307798E+02  0.30425754468E+03  0.30501799420E+03  0.41800000000E+01 0. -1.
         -5    1    1    2    0  502  0.29337920916E+01 -0.31891375513E+01 -0.12115232448E+02  0.13528820778E+02  0.41800000000E+01 0. -1.
        -11    1    1    2    0    0 -0.22386517276E+02 -0.27311088838E+02  0.39977337823E+02  0.53340784290E+02  0.00000000000E+00 0.  1.
         11    1    1    2    0    0  0.33962234152E+02  0.45840534187E+02  0.54022487903E+02  0.78569823229E+02  0.00000000000E+00 0. -1.
</event>
<event>
 6    1  0.4988969E-006  0.7971228E+02  0.7561462E-02  0.1329870E+00
         -1   -1    0    0    0  501 -0.00000000000E+00  0.00000000000E+00  0.17239326715E+03  0.17239326715E+03  0.00000000000E+00 0.  1.
          1   -1    0    0  501    0  0.00000000000E+00 -0.00000000000E+00 -0.11952176368E+03  0.11952176368E+03  0.00000000000E+00 0. -1.
          5    1    1    2  502    0  0.32684934292E+02  0.41271441214E+02  0.12582964765E+03  0.13646321636E+03  0.41800000000E+01 0. -1.
         -5    1    1    2    0  502 -0.34659944361E+02  0.27552300943E+01 -0.13310420712E+02  0.37463885750E+02  0.41800000000E+01 0. -1.
        -11    1    1    2    0    0  0.19633286940E+01  0.13713192178E+02 -0.58624488049E+02  0.60238998151E+02  0.00000000000E+00 0. -1.
         11    1    1    2    0    0  0.11681375201E-01 -0.57739863487E+02 -0.10232354177E+01  0.57748930576E+02  0.00000000000E+00 0.  1.
</event>
<event>
 6    1  0.4988969E-006  0.1165223E+03  0.7561462E-02  0.1248947E+00
          1   -1    0    0  501    0  0.00000000000E+00  0.00000000000E+00  0.18482524041E+02  0.18482524041E+02  0.00000000000E+00 0. -1.
         -1   -1    0    0    0  501 -0.00000000000E+00 -0.00000000000E+00 -0.85214017690E+03  0.85214017690E+03  0.00000000000E+00 0.  1.
          5    1    1    2  502    0 -0.13891811402E+02 -0.70944834002E+02 -0.42868108125E+03  0.43475406118E+03  0.41800000000E+01 0. -1.
         -5    1    1    2    0  502  0.50780111599E+02  0.25221321797E+02 -0.15600118860E+03  0.16603788138E+03  0.41800000000E+01 0. -1.
        -11    1    1    2    0    0 -0.31466983701E+02  0.71141229344E+02 -0.17840315598E+03  0.19462510536E+03  0.00000000000E+00 0.  1.
         11    1    1    2    0    0 -0.54213164965E+01 -0.25417717139E+02 -0.70572227032E+02  0.75205653015E+02  0.00000000000E+00 0. -1.
</event>
<event>
 6    1  0.4988969E-006  0.1227268E+03  0.7561462E-02  0.1238665E+00
         -1   -1    0    0    0  501 -0.00000000000E+00  0.00000000000E+00  0.55090005688E+03  0.55090005688E+03  0.00000000000E+00 0.  1.
          1   -1    0    0  501    0  0.00000000000E+00 -0.00000000000E+00 -0.29361862976E+02  0.29361862976E+02  0.00000000000E+00 0. -1.
          5    1    1    2  502    0 -0.26378263174E+02 -0.16849006681E+02  0.42129273922E+02  0.52650260355E+02  0.41800000000E+01 0. -1.
         -5    1    1    2    0  502  0.48402064415E+02  0.87006140828E+02  0.27865336964E+03  0.29593580587E+03  0.41800000000E+01 0.  1.
        -11    1    1    2    0    0 -0.11194934651E+02  0.20267603001E+02  0.27553282425E+02  0.35990077322E+02  0.00000000000E+00 0.  1.
         11    1    1    2    0    0 -0.10828866590E+02 -0.90424737148E+02  0.17320226791E+03  0.19568577631E+03  0.00000000000E+00 0. -1.
</event>
<event>
 6    1  0.4988969E-006  0.1385081E+03  0.7561462E-02  0.1215351E+00
          1   -1    0    0  501    0  0.00000000000E+00  0.00000000000E+00  0.46985093488E+03  0.46985093488E+03  0.00000000000E+00 0. -1.
         -1   -1    0    0    0  501 -0.00000000000E+00 -0.00000000000E+00 -0.47481408056E+02  0.47481408056E+02  0.00000000000E+00 0.  1.
          5    1    1    2  502    0  0.41326890470E+02 -0.20051581155E+02  0.49850240789E+02  0.67915364163E+02  0.41800000000E+01 0.  1.
         -5    1    1    2    0  502 -0.77713974585E+02 -0.65381406814E+02  0.25304050303E+03  0.27269242523E+03  0.41800000000E+01 0.  1.
        -11    1    1    2    0    0  0.65500831282E+02  0.71513490300E+02  0.98543756308E+02  0.13825849016E+03  0.00000000000E+00 0. -1.
         11    1    1    2    0    0 -0.29113747167E+02  0.13919497669E+02  0.20935026690E+02  0.38466063380E+02  0.00000000000E+00 0.  1.
</event>
<event>
 6    1  0.4988969E-006  0.7616081E+02  0.7561462E-02  0.1340314E+00
         -2   -1    0    0    0  501 -0.00000000000E+00  0.00000000000E+00  0.34807313839E+02  0.34807313839E+02  0.00000000000E+00 0.  1.
          2   -1    0    0  501    0  0.00000000000E+00 -0.00000000000E+00 -0.55264941286E+03  0.55264941286E+03  0.00000000000E+00 0. -1.
          5    1    1    2  502    0 -0.19079305125E+02  0.63007663206E+01 -0.16337073649E+03  0.16465475846E+03  0.41800000000E+01 0. -1.
         -5    1    1    2    0  502 -0.41393233355E+02  0.60678035862E+01  0.94258713770E+01  0.43087555734E+02  0.41800000000E+01 0. -1.
        -11    1    1    2    0    0  0.57746752953E+00  0.21123630208E+02 -0.20199360357E+02  0.29232779217E+02  0.00000000000E+00 0.  1.
         11    1    1    2    0    0  0.59895070950E+02 -0.33492200115E+02 -0.34369787355E+03  0.35048163329E+03  0.00000000000E+00 0. -1.
</event>
<event>
 6    1  0.4988969E-006  0.8685703E+02  0.7561462E-02  0.1310646E+00
          1   -1    0    0  501    0  0.00000000000E+00  0.00000000000E+00  0.12006539231E+03  0.12006539231E+03  0.00000000000E+00 0. -1.
         -1   -1    0    0    0  501 -0.00000000000E+00 -0.00000000000E+00 -0.12014005105E+03  0.12014005105E+03  0.00000000000E+00 0.  1.
          5    1    1    2  502    0 -0.15040210462E+02 -0.12949238183E+02 -0.46823471907E+02  0.51027449689E+02  0.41800000000E+01 0.  1.
         -5    1    1    2    0  502  0.62495860648E+02  0.39055113434E+02  0.42830925954E+02  0.85340465792E+02  0.41800000000E+01 0.  1.
        -11    1    1    2    0    0 -0.15550888994E+02 -0.41409147222E+02 -0.31086430731E+02  0.54063978745E+02  0.00000000000E+00 0.  1.
         11    1    1    2    0    0 -0.31904761192E+02  0.15303271971E+02  0.35004317943E+02  0.49773549144E+02  0.00000000000E+00 0. -1.
</event>
<event>
 6    1  0.4988969E-006  0.1090617E+03  0.7561462E-02  0.1262317E+00
          3   -1    0    0  501    0  0.00000000000E+00  0.00000000000E+00  0.16061107252E+03  0.16061107252E+03  0.00000000000E+00 0. -1.
         -3   -1    0    0    0  501 -0.00000000000E+00 -0.00000000000E+00 -0.11316542994E+03  0.11316542994E+03  0.00000000000E+00 0.  1.
          5    1    1    2  502    0 -0.75053426554E+02 -0.38428269328E+02 -0.53931715796E+02  0.10017909507E+03  0.41800000000E+01 0.  1.
         -5    1    1    2    0  502  0.31416170322E+02  0.18652569787E+02  0.14382664731E+02  0.39487055627E+02  0.41800000000E+01 0.  1.
        -11    1    1    2    0    0 -0.60020157946E+01  0.42080039933E+02  0.59543629881E+02  0.73158716595E+02  0.00000000000E+00 0. -1.
         11    1    1    2    0    0  0.49639272027E+02 -0.22304340391E+02  0.27451063757E+02  0.60951635163E+02  0.00000000000E+00 0.  1.
</event>
<event>
 6    1  0.4988969E-006  0.9954959E+02  0.7561462E-02  0.1281246E+00
          1   -1    0    0  501    0  0.00000000000E+00  0.00000000000E+00  0.40753299789E+02  0.40753299789E+02  0.00000000000E+00 0.  1.
         -1   -1    0    0    0  501 -0.00000000000E+00 -0.00000000000E+00 -0.34040962981E+03  0.34040962981E+03  0.00000000000E+00 0. -1.
          5    1    1    2  502    0  0.19886377585E+01  0.66059792122E+02 -0.14414103636E+03  0.15862522365E+03  0.41800000000E+01 0.  1.
         -5    1    1    2    0  502 -0.10368048270E+02 -0.56721737667E+02 -0.86243933875E+02  0.10382841846E+03  0.41800000000E+01 0.  1.
        -11    1    1    2    0    0  0.25728195320E+02  0.25450982365E+02  0.33428693766E+01  0.36343738298E+02  0.00000000000E+00 0.  1.
         11    1    1    2    0    0 -0.17348784809E+02 -0.34789036820E+02 -0.72614229162E+02  0.82365549194E+02  0.00000000000E+00 0. -1.
</event>
<event>
 6    1  0.4988969E-006  0.8398610E+02  0.7561462E-02  0.1318105E+00
         -4   -1    0    0    0  501 -0.00000000000E+00  0.00000000000E+00  0.16871438377E+02  0.16871438377E+02  0.00000000000E+00 0.  1.
          4   -1    0    0  501    0  0.00000000000E+00 -0.00000000000E+00 -0.84930635314E+03  0.84930635314E+03  0.00000000000E+00 0. -1.
          5    1    1    2  502    0 -0.10540779176E+02  0.56552740549E+02 -0.64956013605E+02  0.86868156379E+02  0.41800000000E+01 0.  1.
         -5    1    1    2    0  502 -0.35179749863E+01 -0.13987259804E+02 -0.32040818922E+03  0.32075987858E+03  0.41800000000E+01 0.  1.
        -11    1    1    2    0    0 -0.12829420470E+02  0.21926920871E+02 -0.58971459605E+02  0.64210722908E+02  0.00000000000E+00 0.  1.
         11    1    1    2    0    0  0.26888174632E+02 -0.64492401616E+02 -0.38809925233E+03  0.39433903365E+03  0.00000000000E+00 0. -1.
</event>
<event>
 6    1  0.4988969E-006  0.2669178E+03  0.7561462E-02  0.1103057E+00
          1   -1    0    0  501    0  0.00000000000E+00  0.00000000000E+00  0.10068938807E+03  0.10068938807E+03  0.00000000000E+00 0. -1.
         -1   -1    0    0    0  501 -0.00000000000E+00 -0.00000000000E+00 -0.85976544761E+03  0.85976544761E+03  0.00000000000E+00 0.  1.
          5    1    1    2  502    0  0.42551097427E+01 -0.27139794250E+02 -0.90841432710E+02  0.94996382497E+02  0.41800000000E+01 0.  1.
         -5    1    1    2    0  502 -0.24801125834E+03 -0.37081628609E+02 -0.49344718296E+03  0.55352707813E+03  0.41800000000E+01 0.  1.
        -11    1    1    2    0    0  0.13579568537E+03  0.15092275013E+02 -0.11750654834E+03  0.18021108133E+03  0.00000000000E+00 0.  1.
         11    1    1    2    0    0  0.10796046323E+03  0.49129147846E+02 -0.57280895516E+02  0.13172029373E+03  0.00000000000E+00 0. -1.
</event>
<event>
 6    1  0.4988969E-006  0.9663821E+02  0.7561462E-02  0.1287528E+00
         -1   -1    0    0    0  501 -0.00000000000E+00  0.00000000000E+00  0.15625577090E+03  0.15625577090E+03  0.00000000000E+00 0.  1.
          1   -1    0    0  501    0  0.00000000000E+00 -0.00000000000E+00 -0.14426810176E+03  0.14426810176E+03  0.00000000000E+00 0. -1.
          5    1    1    2  502    0 -0.12245955110E+02 -0.28462978907E+02  0.93064507196E+02  0.98176267420E+02  0.41800000000E+01 0. -1.
         -5    1    1    2    0  502  0.67685232970E+02  0.18603727538E+02  0.50933590611E+01  0.70503930011E+02  0.41800000000E+01 0. -1.
        -11    1    1    2    0    0  0.78376697848E+01  0.25359227806E+02 -0.37830900307E+01  0.26811028938E+02  0.00000000000E+00 0.  1.
         11    1    1    2    0    0 -0.63276947644E+02 -0.15499976437E+02 -0.82387107089E+02  0.10503264629E+03  0.00000000000E+00 0. -1.
</event>
<event>
 6    1  0.4988969E-006  0.1324428E+03  0.7561462E-02  0.1223875E+00
         -1   -1    0    0    0  501 -0.00000000000E+00  0.00000000000E+00  0.57020606472E+02  0.57020606472E+02  0.00000000000E+00 0.  1.
          1   -1    0    0  501    0  0.00000000000E+00 -0.00000000000E+00 -0.45991988890E+03  0.45991988890E+03  0.00000000000E+00 0. -1.
          5    1    1    2  502    0 -0.11337782379E+02 -0.10573708222E+02 -0.14808529275E+03  0.14895326430E+03  0.41800000000E+01 0. -1.
         -5    1    1    2    0  502 -0.10806139636E+03  0.94133976676E+01 -0.69070329706E+02  0.12866258308E+03  0.41800000000E+01 0. -1.
        -11    1    1    2    0    0  0.42755740014E+02  0.36183117460E+02 -0.33358835018E+02  0.65192661911E+02  0.00000000000E+00 0.  1.
         11    1    1    2    0    0  0.76643438723E+02 -0.35022806905E+02 -0.15238482495E+03  0.17413198609E+03  0.00000000000E+00 0. -1.
</event>
<event>
 6    1  0.4988969E-006  0.1065498E+03  0.7561462E-02  0.1267096E+00
         -2   -1    0    0    0  501 -0.00000000000E+00  0.00000000000E+00  0.70579248047E+02  0.70579248047E+02  0.00000000000E+00 0.  1.
          2   -1    0    0  501    0  0.00000000000E+00 -0.00000000000E+00 -0.30619786255E+03  0.30619786255E+03  0.00000000000E+00 0. -1.
          5    1    1    2  502    0 -0.55406580691E+02  0.50301286837E+02  0.69264713470E+01  0.75269894690E+02  0.41800000000E+01 0.  1.
         -5    1    1    2    0  502 -0.36332011460E+01  0.25631021870E+02 -0.11028638708E+03  0.11336096775E+03  0.41800000000E+01 0.  1.
        -11    1    1    2    0    0  0.29615776636E+02 -0.76983618462E+02 -0.40716890083E+02  0.91986068920E+02  0.00000000000E+00 0.  1.
         11    1    1    2    0    0  0.29424005201E+02  0.10513097553E+01 -0.91541808679E+02  0.96160179235E+02  0.00000000000E+00 0. -1.
</event>
<event>
 6    1  0.4988969E-006  0.3687593E+03  0.7561462E-02  0.1055168E+00
          2   -1    0    0  501    0  0.00000000000E+00  0.00000000000E+00  0.28203680597E+04  0.28203680597E+04  0.00000000000E+00 0. -1.
         -2   -1    0    0    0  501 -0.00000000000E+00 -0.00000000000E+00 -0.51643684695E+02  0.51643684695E+02  0.00000000000E+00 0.  1.
          5    1    1    2  502    0 -0.15899775088E+03  0.28272122034E+02  0.45216724713E+03  0.48015860864E+03  0.41800000000E+01 0. -1.
         -5    1    1    2    0  502 -0.13849950910E+03  0.16159578121E+03  0.58242264575E+03  0.62010396000E+03  0.41800000000E+01 0. -1.
        -11    1    1    2    0    0  0.34800016726E+02 -0.61634180873E+02  0.34831759662E+03  0.35543629743E+03  0.00000000000E+00 0. -1.
         11    1    1    2    0    0  0.26269724325E+03 -0.12823372238E+03  0.13858168855E+04  0.14163128783E+04  0.00000000000E+00 0.  1.
</event>
<event>
 6    1  0.4988969E-006  0.7016431E+02  0.7561462E-02  0.1359535E+00
          2   -1    0    0  501    0  0.00000000000E+00  0.00000000000E+00  0.63308532732E+02  0.63308532732E+02  0.00000000000E+00 0. -1.
         -2   -1    0    0    0  501 -0.00000000000E+00 -0.00000000000E+00 -0.20631037518E+03  0.20631037518E+03  0.00000000000E+00 0.  1.
          5    1    1    2  502    0  0.19417360665E+02 -0.41362674269E+02 -0.29009367953E+01  0.45975999741E+02  0.41800000000E+01 0. -1.
         -5    1    1    2    0  502 -0.32369097180E+02  0.37292170081E+02 -0.12036452579E+03  0.13016741478E+03  0.41800000000E+01 0. -1.
        -11    1    1    2    0    0  0.27491591263E+02 -0.47234838304E+01 -0.50864632753E+02  0.58011289890E+02  0.00000000000E+00 0.  1.
         11    1    1    2    0    0 -0.14539854748E+02  0.87939880178E+01  0.31128252895E+02  0.35464203497E+02  0.00000000000E+00 0. -1.
</event>
<event>
 6    1  0.4988969E-006  0.4855326E+02  0.7561462E-02  0.1453305E+00
          2   -1    0    0  501    0  0.00000000000E+00  0.00000000000E+00  0.14384977038E+03  0.14384977038E+03  0.00000000000E+00 0. -1.
         -2   -1    0    0    0  501 -0.00000000000E+00 -0.00000000000E+00 -0.84315373069E+02  0.84315373069E+02  0.00000000000E+00 0.  1.
          5    1    1    2  502    0  0.26102408780E+01  0.13304553320E+02 -0.48004338189E+02  0.50057101209E+02  0.41800000000E+01 0.  1.
         -5    1    1    2    0  502  0.18059486005E+02  0.81770606005E+00  0.79101601697E+02  0.81248689030E+02  0.41800000000E+01 0.  1.
        -11    1    1    2    0    0 -0.29979842170E+02  0.15189960905E+02 -0.20275152220E+02  0.39250575109E+02  0.00000000000E+00 0.  1.
         11    1    1    2    0    0  0.93101152862E+01 -0.29312220286E+02  0.48712286020E+02  0.57608778098E+02  0.00000000000E+00 0. -1.
</event>
<event>
 6    1  0.4988969E-006  0.1445847E+03  0.7561462E-02  0.1207290E+00
          2   -1    0    0  501    0  0.00000000000E+00  0.00000000000E+00  0.63760747486E+03  0.63760747486E+03  0.00000000000E+00 0.  1.
         -2   -1    0    0    0  501 -0.00000000000E+00 -0.00000000000E+00 -0.45402165006E+02  0.45402165006E+02  0.00000000000E+00 0. -1.
          5    1    1    2  502    0 -0.11247885441E+02  0.68468218188E+02  0.61462960707E+02  0.92787821224E+02  0.41800000000E+01 0.  1.
         -5    1    1    2    0  502 -0.92020104060E+02 -0.29081475977E+02  0.11315691489E+03  0.14877967463E+03  0.41800000000E+01 0.  1.
        -11    1    1    2    0    0  0.48880804824E+02  0.96584505873E+01  0.29069468306E+03  0.29493392058E+03  0.00000000000E+00 0.  1.
         11    1    1    2    0    0  0.54387184677E+02 -0.49045192798E+02  0.12689075120E+03  0.14650822343E+03  0.00000000000E+00 0. -1.
</event>
<event>
 6    1  0.4988969E-006  0.1836204E+03  0.7561462E-02  0.1164344E+00
         -1   -1    0    0    0  501 -0.00000000000E+00  0.00000000000E+00  0.11905669996E+03  0.11905669996E+03  0.00000000000E+00 0.  1.
          1   -1    0    0  501    0  0.00000000000E+00 -0.00000000000E+00 -0.35352573474E+03  0.35352573474E+03  0.00000000000E+00 0. -1.
          5    1    1    2  502    0  0.28202158770E+02 -0.16715287251E+03 -0.12503395055E+03  0.21068081483E+03  0.41800000000E+01 0. -1.
         -5    1    1    2    0  502  0.11180825910E+02 -0.57145284118E+00  0.22616930640E+02  0.25579980023E+02  0.41800000000E+01 0. -1.
        -11    1    1    2    0    0 -0.57529798120E+02  0.97639798397E+02 -0.42192796736E+02  0.12092741624E+03  0.00000000000E+00 0.  1.
         11    1    1    2    0    0  0.18146813440E+02  0.70084526955E+02 -0.89859218141E+02  0.11539422361E+03  0.00000000000E+00 0. -1.
</event>
<event>
 6    1  0.4988969E-006  0.1068692E+03  0.7561462E-02  0.1266480E+00
         -2   -1    0    0    0  501 -0.00000000000E+00  0.00000000000E+00  0.55244590978E+02  0.55244590978E+02  0.00000000000E+00 0.  1.
          2   -1    0    0  501    0  0.00000000000E+00 -0.00000000000E+00 -0.44092927291E+03  0.44092927291E+03  0.00000000000E+00 0. -1.
          5    1    1    2  502    0 -0.59807800310E+02  0.61497236889E+02 -0.10286213837E+03  0.13400363813E+03  0.41800000000E+01 0. -1.
         -5    1    1    2    0  502  0.28094883751E+01 -0.11684132132E+02  0.27635054392E+02  0.30423359444E+02  0.41800000000E+01 0. -1.
        -11    1    1    2    0    0  0.69077509212E+02 -0.56094053789E+01 -0.15753204149E+03  0.17210320103E+03  0.00000000000E+00 0.  1.
         11    1    1    2    0    0 -0.12079197277E+02 -0.44203699378E+02 -0.15292555646E+03  0.15964366528E+03  0.00000000000E+00 0. -1.
</event>
<event>
 6    1  0.4988969E-006  0.1126831E+03  0.7561462E-02  0.1255680E+00
         -2   -1    0    0    0  501 -0.00000000000E+00  0.00000000000E+00  0.43923502142E+02  0.43923502142E+02  0.00000000000E+00 0.  1.
          2   -1    0    0  501    0  0.00000000000E+00 -0.00000000000E+00 -0.63376373012E+03  0.63376373012E+03  0.00000000000E+00 0. -1.
          5    1    1    2  502    0 -0.50085759073E+02 -0.48044246127E+01  0.14481462859E+01  0.50509754359E+02  0.41800000000E+01 0. -1.
         -5    1    1    2    0  502  0.45780778476E+02 -0.53815662669E+02 -0.86524368723E+02  0.11178525846E+03  0.41800000000E+01 0. -1.
        -11    1    1    2    0    0 -0.72104272701E+01 -0.21747217763E+02 -0.10625776184E+03  0.10869978700E+03  0.00000000000E+00 0. -1.
         11    1    1    2    0    0  0.11515407867E+02  0.80367305045E+02 -0.39850624370E+03  0.40669243245E+03  0.00000000000E+00 0.  1.
</event>
<event>
 6    1  0.4988969E-006  0.1487951E+03  0.7561462E-02  0.1201961E+00
         -1   -1    0    0    0  501 -0.00000000000E+00  0.00000000000E+00  0.17722598914E+03  0.17722598914E+03  0.00000000000E+00 0.  1.
          1   -1    0    0  501    0  0.00000000000E+00 -0.00000000000E+00 -0.16111707718E+03  0.16111707718E+03  0.00000000000E+00 0. -1.
          5    1    1    2  502    0 -0.14082921163E+02 -0.19169285353E+02  0.11393048283E+02  0.26703260450E+02  0.41800000000E+01 0. -1.
         -5    1    1    2    0  502  0.10358275365E+03  0.10246704177E+03 -0.33998290974E+02  0.14967377089E+03  0.41800000000E+01 0. -1.
        -11    1    1    2    0    0 -0.31066868040E+02 -0.54030315559E+02  0.66330859158E+02  0.91017625579E+02  0.00000000000E+00 0.  1.
         11    1    1    2    0    0 -0.58432964449E+02 -0.29267440856E+02 -0.27616704504E+02  0.70948409399E+02  0.00000000000E+00 0. -1.
</event>
<event>
 6    1  0.4988969E-006  0.1037679E+03  0.7561462E-02  0.1272566E+00
         -2   -1    0    0    0  501 -0.00000000000E+00  0.00000000000E+00  0.85772582411E+02  0.85772582411E+02  0.00000000000E+00 0.  1.
          2   -1    0    0  501    0  0.00000000000E+00 -0.00000000000E+00 -0.19844491738E+03  0.19844491738E+03  0.00000000000E+00 0. -1.
          5    1    1    2  502    0  0.45883535428E+02 -0.35335668778E+02  0.68012987150E+01  0.58460571119E+02  0.41800000000E+01 0.  1.
         -5    1    1    2    0  502 -0.37149732406E+02  0.58452777285E+02  0.37563751916E+01  0.69486779640E+02  0.41800000000E+01 0.  1.
        -11    1    1    2    0    0 -0.37847903224E+02  0.66741718016E+01 -0.10305204656E+03  0.10998514740E+03  0.00000000000E+00 0. -1.
         11    1    1    2    0    0  0.29114100202E+02 -0.29791280308E+02 -0.20177962311E+02  0.46285001632E+02  0.00000000000E+00 0.  1.
</event>
<event>
 6    1  0.4988969E-006  0.1182839E+03  0.7561462E-02  0.1245955E+00
         -2   -1    0    0    0  501 -0.00000000000E+00  0.00000000000E+00  0.10258739514E+03  0.10258739514E+03  0.00000000000E+00 0.  1.
          2   -1    0    0  501    0  0.00000000000E+00 -0.00000000000E+00 -0.21127729039E+03  0.21127729039E+03  0.00000000000E+00 0. -1.
          5    1    1    2  502    0  0.10698408771E+02 -0.24724768111E+02 -0.26155465443E+02  0.37780297523E+02  0.41800000000E+01 0. -1.
         -5    1    1    2    0  502 -0.46975165985E+02  0.88877954866E+02  0.39229768226E+02  0.10799261176E+03  0.41800000000E+01 0. -1.
        -11    1    1    2    0    0  0.59287311874E+02 -0.27364681014E+02 -0.43057298240E+02  0.78215996113E+02  0.00000000000E+00 0.  1.
         11    1    1    2    0    0 -0.23010554660E+02 -0.36788505741E+02 -0.78706899783E+02  0.89875780130E+02  0.00000000000E+00 0. -1.
</event>
<event>
 6    1  0.4988969E-006  0.1238317E+03  0.7561462E-02  0.1236907E+00
         -1   -1    0    0    0  501 -0.00000000000E+00  0.00000000000E+00  0.22152232273E+03  0.22152232273E+03  0.00000000000E+00 0.  1.
          1   -1    0    0  501    0  0.00000000000E+00 -0.00000000000E+00 -0.87350652983E+02  0.87350652983E+02  0.00000000000E+00 0. -1.
          5    1    1    2  502    0  0.38455649446E+02  0.20877757876E+02  0.33762183747E+02  0.55426304221E+02  0.41800000000E+01 0. -1.
         -5    1    1    2    0  502 -0.94434644749E+02  0.66666626703E+01  0.10759766579E+03  0.14337739223E+03  0.41800000000E+01 0. -1.
        -11    1    1    2    0    0  0.79968943324E+02 -0.28605912548E+02  0.24515969062E+00  0.84931679793E+02  0.00000000000E+00 0. -1.
         11    1    1    2    0    0 -0.23989948022E+02  0.10614920024E+01 -0.74333394764E+01  0.25137599471E+02  0.00000000000E+00 0.  1.
</event>
<event>
 6    1  0.4988969E-006  0.2311462E+03  0.7561462E-02  0.1125836E+00
         -3   -1    0    0    0  501 -0.00000000000E+00  0.00000000000E+00  0.39900836979E+03  0.39900836979E+03  0.00000000000E+00 0.  1.
          3   -1    0    0  501    0  0.00000000000E+00 -0.00000000000E+00 -0.15440321201E+03  0.15440321201E+03  0.00000000000E+00 0. -1.
          5    1    1    2  502    0 -0.34411643181E+02 -0.60206506484E+02 -0.55487937101E+00  0.69474922818E+02  0.41800000000E+01 0. -1.
         -5    1    1    2    0  502 -0.14235414783E+03 -0.66359840826E+02  0.18001821600E+03  0.23894008113E+03  0.41800000000E+01 0. -1.
        -11    1    1    2    0    0  0.14453514970E+03  0.50523545096E+02  0.49688612206E+02  0.16097203574E+03  0.00000000000E+00 0.  1.
         11    1    1    2    0    0  0.32230641319E+02  0.76042802214E+02  0.15453208944E+02  0.84024542100E+02  0.00000000000E+00 0. -1.
</event>
<event>
 6    1  0.4988969E-006  0.1164782E+03  0.7561462E-02  0.1249023E+00
          3   -1    0    0  501    0  0.00000000000E+00  0.00000000000E+00  0.67324579802E+03  0.67324579802E+03  0.00000000000E+00 0. -1.
         -3   -1    0    0    0  501 -0.00000000000E+00 -0.00000000000E+00 -0.23167293268E+02  0.23167293268E+02  0.00000000000E+00 0.  1.
          5    1    1    2  502    0 -0.16656785210E+02  0.58666735964E+02  0.26126156034E+03  0.26831755387E+03  0.41800000000E+01 0. -1.
         -5    1    1    2    0  502  0.71074396837E+02 -0.22894734311E+02  0.11276089378E+03  0.13530790927E+03  0.41800000000E+01 0.  1.
        -11    1    1    2    0    0 -0.71816448686E+02 -0.22837531001E+02  0.20098835663E+03  0.21465198491E+03  0.00000000000E+00 0. -1.
         11    1    1    2    0    0  0.17398837059E+02 -0.12934470653E+02  0.75067694005E+02  0.78135643245E+02  0.00000000000E+00 0.  1.
</event>
<event>
 6    1  0.5767803E-006  0.1523239E+03  0.7561462E-02  0.1197646E+00
         -1   -1    0    0    0  501 -0.00000000000E+00  0.00000000000E+00  0.38364008852E+02  0.38364008852E+02  0.00000000000E+00 0.  1.
          1   -1    0    0  501    0  0.00000000000E+00 -0.00000000000E+00 -0.97686434558E+03  0.97686434558E+03  0.00000000000E+00 0. -1.
          5    1    1    2  502    0 -0.72220589296E+02 -0.43102001447E+02 -0.27087937826E+03  0.28366654017E+03  0.41800000000E+01 0. -1.
         -5    1    1    2    0  502 -0.17413253071E+02 -0.72177659866E+02 -0.47412158209E+02  0.88194223804E+02  0.41800000000E+01 0. -1.
        -11    1    1    2    0    0  0.24536603748E+02  0.28906283061E+02 -0.48726338255E+02  0.61740377093E+02  0.00000000000E+00 0. -1.
         11    1    1    2    0    0  0.65097238619E+02  0.86373378252E+02 -0.57148246201E+03  0.58162721337E+03  0.00000000000E+00 0.  1.
</event>
<event>
 6    1  0.4988969E-006  0.1506239E+03  0.7561462E-02  0.1199708E+00
          2   -1    0    0  501    0  0.00000000000E+00  0.00000000000E+00  0.78842650949E+02  0.78842650949E+02  0.00000000000E+00 0. -1.
         -2   -1    0    0    0  501 -0.00000000000E+00 -0.00000000000E+00 -0.31063888341E+03  0.31063888341E+03  0.00000000000E+00 0.  1.
          5    1    1    2  502    0 -0.39515378556E+01 -0.12927173173E+03 -0.10664785404E+03  0.16768432379E+03  0.41800000000E+01 0. -1.
         -5    1    1    2    0  502 -0.28274402993E+02  0.21918812092E+02 -0.12030831355E+02  0.37974853406E+02  0.41800000000E+01 0. -1.
        -11    1    1    2    0    0 -0.10886963960E+02  0.87829997043E+02 -0.10230892564E+03  0.13527657089E+03  0.00000000000E+00 0.  1.
         11    1    1    2    0    0  0.43112904809E+02  0.19522922591E+02 -0.10808621422E+02  0.48545786270E+02  0.00000000000E+00 0. -1.
</event>
<event>
 6    1  0.4988969E-006  0.9830171E+02  0.7561462E-02  0.1283908E+00
          3   -1    0    0  501    0  0.00000000000E+00  0.00000000000E+00  0.28412889046E+03  0.28412889046E+03  0.00000000000E+00 0. -1.
         -3   -1    0    0    0  501 -0.00000000000E+00 -0.00000000000E+00 -0.61091238710E+02  0.61091238710E+02  0.00000000000E+00 0.  1.
          5    1    1    2  502    0  0.94648177466E+00 -0.33373000594E+02  0.94147850189E+02  0.99979713401E+02  0.41800000000E+01 0.  1.
         -5    1    1    2    0  502  0.64561939752E+02  0.10011491636E+02 -0.97259316949E+01  0.66185649326E+02  0.41800000000E+01 0.  1.
        -11    1    1    2    0    0 -0.36571348512E+01  0.34457051216E+02  0.10251960135E+02  0.36135380176E+02  0.00000000000E+00 0.  1.
         11    1    1    2    0    0 -0.61851286676E+02 -0.11095542258E+02  0.12836377312E+03  0.14291938627E+03  0.00000000000E+00 0. -1.
</event>
<event>
 6    1  0.4988969E-006  0.1098462E+03  0.7561462E-02  0.1260855E+00
          1   -1    0    0  501    0  0.00000000000E+00  0.00000000000E+00  0.19929600766E+03  0.19929600766E+03  0.00000000000E+00 0. -1.
         -1   -1    0    0    0  501 -0.00000000000E+00 -0.00000000000E+00 -0.74228742506E+02  0.74228742506E+02  0.00000000000E+00 0.  1.
          5    1    1    2  502    0  0.72392487668E+02  0.12176365473E+02 -0.78273479922E-02  0.73528284409E+02  0.41800000000E+01 0. -1.
         -5    1    1    2    0  502 -0.42216890960E+02 -0.35487405349E+02  0.19817665186E+02  0.58752311224E+02  0.41800000000E+01 0. -1.
        -11    1    1    2    0    0  0.28766506683E+02  0.55698910214E+01  0.52730443720E+02  0.60324417011E+02  0.00000000000E+00 0. -1.
         11    1    1    2    0    0 -0.58942103391E+02  0.17741148854E+02  0.52526983591E+02  0.80919737518E+02  0.00000000000E+00 0.  1.
</event>
<event>
 6    1  0.4988969E-006  0.1227998E+03  0.7561462E-02  0.1238548E+00
         -2   -1    0    0    0  501 -0.00000000000E+00  0.00000000000E+00  0.68014459876E+02  0.68014459876E+02  0.00000000000E+00 0.  1.
          2   -1    0    0  501    0  0.00000000000E+00 -0.00000000000E+00 -0.31769987266E+03  0.31769987266E+03  0.00000000000E+00 0. -1.
          5    1    1    2  502    0 -0.28750752200E+02 -0.60484584674E+02 -0.11898262203E+02  0.68147133312E+02  0.41800000000E+01 0. -1.
         -5    1    1    2    0  502  0.74246965474E+02 -0.22900250092E+02 -0.90501551188E+02  0.11935257225E+03  0.41800000000E+01 0. -1.
        -11    1    1    2    0    0  0.41146095830E+01  0.18820005508E+02  0.95503948319E+01  0.21501922258E+02  0.00000000000E+00 0.  1.
         11    1    1    2    0    0 -0.49610822857E+02  0.64564829258E+02 -0.15683599422E+03  0.17671270471E+03  0.00000000000E+00 0. -1.
</event>
<event>
 6    1  0.4988969E-006  0.8515787E+02  0.7561462E-02  0.1315020E+00
         -1   -1    0    0    0  501 -0.00000000000E+00  0.00000000000E+00  0.35966905852E+03  0.35966905852E+03  0.00000000000E+00 0.  1.
          1   -1    0    0  501    0  0.00000000000E+00 -0.00000000000E+00 -0.43885553031E+02  0.43885553031E+02  0.00000000000E+00 0. -1.
          5    1    1    2  502    0 -0.99134763026E+01 -0.53259805583E+01 -0.16032624110E+02  0.20028991916E+02  0.41800000000E+01 0. -1.
         -5    1    1    2    0  502  0.60041282603E+02 -0.30446794412E+02  0.19826074221E+03  0.20942004968E+03  0.41800000000E+01 0. -1.
        -11    1    1    2    0    0 -0.42593859046E+02  0.55374859710E+02  0.13606912109E+03  0.15295560673E+03  0.00000000000E+00 0.  1.
         11    1    1    2    0    0 -0.75339472545E+01 -0.19602084740E+02 -0.25137336966E+01  0.21149963227E+02  0.00000000000E+00 0. -1.
</event>
<event>
 6    1  0.4988969E-006  0.1085368E+03  0.7561462E-02  0.1263304E+00
          1   -1    0    0  501    0  0.00000000000E+00  0.00000000000E+00  0.21510740256E+02  0.21510740256E+02  0.00000000000E+00 0. -1.
         -1   -1    0    0    0  501 -0.00000000000E+00 -0.00000000000E+00 -0.60726213784E+03  0.60726213784E+03  0.00000000000E+00 0.  1.
          5    1    1    2  502    0  0.44733931019E+02  0.11959482892E+02 -0.93937188029E+02  0.10481326972E+03  0.41800000000E+01 0. -1.
         -5    1    1    2    0  502 -0.80124458922E+02 -0.11447447596E+02 -0.25401353300E+03  0.26662955635E+03  0.41800000000E+01 0. -1.
        -11    1    1    2    0    0  0.62227811215E+02 -0.45544054445E+01 -0.10804873560E+03  0.12477007799E+03  0.00000000000E+00 0. -1.
         11    1    1    2    0    0 -0.26837283311E+02  0.40423701487E+01 -0.12975194096E+03  0.13255997403E+03  0.00000000000E+00 0.  1.
</event>
<event>
 6    1  0.4988969E-006  0.1982512E+03  0.7561462E-02  0.1151223E+00
          1   -1    0    0  501    0  0.00000000000E+00  0.00000000000E+00  0.64537204817E+02  0.64537204817E+02  0.00000000000E+00 0. -1.
         -1   -1    0    0    0  501 -0.00000000000E+00 -0.00000000000E+00 -0.66502564766E+03  0.66502564766E+03  0.00000000000E+00 0.  1.
          5    1    1    2  502    0 -0.19569067504E+02  0.16439437310E+03 -0.30918643453E+03  0.35074518102E+03  0.41800000000E+01 0. -1.
         -5    1    1    2    0  502 -0.39133623046E+02 -0.96401869499E+01 -0.10368446670E+03  0.11132077386E+03  0.41800000000E+01 0. -1.
        -11    1    1    2    0    0  0.65194459393E+02 -0.42258953827E+02 -0.69334941863E+02  0.10413198777E+03  0.00000000000E+00 0. -1.
         11    1    1    2    0    0 -0.64917688427E+01 -0.11249523233E+03 -0.11828259975E+03  0.16336490982E+03  0.00000000000E+00 0.  1.
</event>
<event>
 6    1  0.4988969E-006  0.1863713E+03  0.7561462E-02  0.1161776E+00
         -2   -1    0    0    0  501 -0.00000000000E+00  0.00000000000E+00  0.39369573921E+02  0.39369573921E+02  0.00000000000E+00 0. -1.
          2   -1    0    0  501    0  0.00000000000E+00 -0.00000000000E+00 -0.95726046235E+03  0.95726046235E+03  0.00000000000E+00 0.  1.
          5    1    1    2  502    0  0.83488068763E+02  0.52154042269E+02 -0.13913917475E+03  0.17049188867E+03  0.41800000000E+01 0.  1.
         -5    1    1    2    0  502  0.75011748089E+02 -0.49343555480E+02 -0.29347308818E+03  0.30692910371E+03  0.41800000000E+01 0.  1.
        -11    1    1    2    0    0 -0.57143601133E+02  0.44548314744E+02 -0.20496945680E+03  0.21739922198E+03  0.00000000000E+00 0.  1.
         11    1    1    2    0    0 -0.10135621572E+03 -0.47358801533E+02 -0.28030916869E+03  0.30180982191E+03  0.00000000000E+00 0. -1.
</event>
<event>
 6    1  0.4988969E-006  0.6040749E+02  0.7561462E-02  0.1396130E+00
          2   -1    0    0  501    0  0.00000000000E+00  0.00000000000E+00  0.66483409855E+03  0.66483409855E+03  0.00000000000E+00 0. -1.
         -2   -1    0    0    0  501 -0.00000000000E+00 -0.00000000000E+00 -0.20007616391E+02  0.20007616391E+02  0.00000000000E+00 0.  1.
          5    1    1    2  502    0  0.12942939948E+02  0.17628795934E+02  0.34728407837E+03  0.34799712301E+03  0.41800000000E+01 0. -1.
         -5    1    1    2    0  502 -0.13569648808E+02  0.22768797481E+02  0.40687644701E+01  0.27140021220E+02  0.41800000000E+01 0. -1.
        -11    1    1    2    0    0  0.16181639658E+02 -0.50592770565E+02  0.28382446950E+03  0.28875214871E+03  0.00000000000E+00 0. -1.
         11    1    1    2    0    0 -0.15554930798E+02  0.10195177151E+02  0.96491698173E+01  0.20952421995E+02  0.00000000000E+00 0.  1.
</event>
<event>
 6    1  0.4988969E-006  0.1454776E+03  0.7561462E-02  0.1206143E+00
         -1   -1    0    0    0  501 -0.00000000000E+00  0.00000000000E+00  0.38317693262E+02  0.38317693262E+02  0.00000000000E+00 0.  1.
          1   -1    0    0  501    0  0.00000000000E+00 -0.00000000000E+00 -0.90494016690E+03  0.90494016690E+03  0.00000000000E+00 0. -1.
          5    1    1    2  502    0  0.77779310550E+02  0.38321000111E+02 -0.10381046548E+03  0.13532259731E+03  0.41800000000E+01 0.  1.
         -5    1    1    2    0  502  0.17725620492E+02 -0.70921875453E+02 -0.67747710988E+02  0.99756377157E+02  0.41800000000E+01 0.  1.
        -11    1    1    2    0    0 -0.96555485667E+02 -0.17366148299E+01 -0.58375029672E+03  0.59168436397E+03  0.00000000000E+00 0. -1.
         11    1    1    2    0    0  0.10505546242E+01  0.34337490172E+02 -0.11131400045E+03  0.11649452173E+03  0.00000000000E+00 0.  1.
</event>
<event>
 6    1  0.4988969E-006  0.9418211E+02  0.7561462E-02  0.1293029E+00
         -2   -1    0    0    0  501 -0.00000000000E+00  0.00000000000E+00  0.11430019681E+03  0.11430019681E+03  0.00000000000E+00 0.  1.
          2   -1    0    0  501    0  0.00000000000E+00 -0.00000000000E+00 -0.15843788844E+03  0.15843788844E+03  0.00000000000E+00 0. -1.
          5    1    1    2  502    0  0.31819899392E+02  0.40615028898E+02  0.71809481515E+02  0.88522091058E+02  0.41800000000E+01 0. -1.
         -5    1    1    2    0  502 -0.26612103131E+02  0.16203610143E+02 -0.41705494661E+02  0.52226254888E+02  0.41800000000E+01 0. -1.
        -11    1    1    2    0    0  0.37901648455E+02 -0.57550453426E+01 -0.44801975909E+02  0.58965011217E+02  0.00000000000E+00 0. -1.
         11    1    1    2    0    0 -0.43109444715E+02 -0.51063593698E+02 -0.29439702567E+02  0.73024728088E+02  0.00000000000E+00 0.  1.
</event>
<event>
 6    1  0.4988969E-006  0.1000690E+03  0.7561462E-02  0.1280151E+00
         -1   -1    0    0    0  501 -0.00000000000E+00  0.00000000000E+00  0.20932756266E+03  0.20932756266E+03  0.00000000000E+00 0.  1.
          1   -1    0    0  501    0  0.00000000000E+00 -0.00000000000E+00 -0.75235150465E+02  0.75235150465E+02  0.00000000000E+00 0. -1.
          5    1    1    2  502    0  0.90967029815E+01  0.39117480266E+02  0.80682678366E+02  0.90222470902E+02  0.41800000000E+01 0.  1.
         -5    1    1    2    0  502  0.45163411753E+02 -0.64519540809E+02  0.20580785206E+02  0.81507950699E+02  0.41800000000E+01 0.  1.
        -11    1    1    2    0    0 -0.16043164008E+01 -0.14648732955E+02 -0.22291513837E+02  0.26722103163E+02  0.00000000000E+00 0. -1.
         11    1    1    2    0    0 -0.52655798334E+02  0.40050793498E+02  0.55120462464E+02  0.86110188365E+02  0.00000000000E+00 0.  1.
</event>
<event>
 6    1  0.4988969E-006  0.9527102E+02  0.7561462E-02  0.1290567E+00
         -1   -1    0    0    0  501 -0.00000000000E+00  0.00000000000E+00  0.51733807616E+03  0.51733807616E+03  0.00000000000E+00 0.  1.
          1   -1    0    0  501    0  0.00000000000E+00 -0.00000000000E+00 -0.31453474976E+02  0.31453474976E+02  0.00000000000E+00 0. -1.
          5    1    1    2  502    0 -0.25806941154E+02  0.15564930314E+02  0.29828157356E+03  0.29982934278E+03  0.41800000000E+01 0.  1.
         -5    1    1    2    0  502 -0.14730924334E+02 -0.53766661150E+02  0.52347907807E+02  0.76587399974E+02  0.41800000000E+01 0.  1.
        -11    1    1    2    0    0  0.23306491781E+01 -0.27827458149E+02  0.54786062685E+02  0.61492373650E+02  0.00000000000E+00 0.  1.
         11    1    1    2    0    0  0.38207216310E+02  0.66029188985E+02  0.80469057134E+02  0.11088243473E+03  0.00000000000E+00 0. -1.
</event>
<event>
 6    1  0.4988969E-006  0.1353589E+03  0.7561462E-02  0.1219714E+00
          1   -1    0    0  501    0  0.00000000000E+00  0.00000000000E+00  0.92998026746E+03  0.92998026746E+03  0.00000000000E+00 0. -1.
         -1   -1    0    0    0  501 -0.00000000000E+00 -0.00000000000E+00 -0.24312858328E+02  0.24312858328E+02  0.00000000000E+00 0.  1.
          5    1    1    2  502    0  0.72784872555E+02 -0.18225848915E+01  0.37642788355E+03  0.38342715528E+03  0.41800000000E+01 0.  1.
         -5    1    1    2    0  502  0.13802230335E+01 -0.70284160850E+02  0.12319606294E+03  0.14190317335E+03  0.41800000000E+01 0.  1.
        -11    1    1    2    0    0  0.79388964494E+01  0.37394488030E+02  0.21206372398E+03  0.21548177845E+03  0.00000000000E+00 0.  1.
         11    1    1    2    0    0 -0.82103992038E+02  0.34712257712E+02  0.19397973865E+03  0.21348101871E+03  0.00000000000E+00 0. -1.
</event>
<event>
 6    1  0.4988969E-006  0.1075674E+03  0.7561462E-02  0.1265142E+00
          1   -1    0    0  501    0  0.00000000000E+00  0.00000000000E+00  0.12976900239E+03  0.12976900239E+03  0.00000000000E+00 0. -1.
         -1   -1    0    0    0  501 -0.00000000000E+00 -0.00000000000E+00 -0.13980148863E+03  0.13980148863E+03  0.00000000000E+00 0.  1.
          5    1    1    2  502    0  0.43581765296E+01 -0.33147874677E+02 -0.54163756434E+02  0.63788401840E+02  0.41800000000E+01 0.  1.
         -5    1    1    2    0  502 -0.35819689175E+02  0.78800698830E+02 -0.96844207573E+01  0.87200118544E+02  0.41800000000E+01 0.  1.
        -11    1    1    2    0    0 -0.17240707860E+02 -0.42630535373E+02  0.63500226414E-01  0.45984873447E+02  0.00000000000E+00 0.  1.
         11    1    1    2    0    0  0.48702220505E+02 -0.30222887798E+01  0.53752190732E+02  0.72597097188E+02  0.00000000000E+00 0. -1.
</event>
<event>
 6    1  0.4988969E-006  0.8925241E+02  0.7561462E-02  0.1304672E+00
         -2   -1    0    0    0  501 -0.00000000000E+00  0.00000000000E+00  0.17020229599E+03  0.17020229599E+03  0.00000000000E+00 0.  1.
          2   -1    0    0  501    0  0.00000000000E+00 -0.00000000000E+00 -0.10207725214E+03  0.10207725214E+03  0.00000000000E+00 0. -1.
          5    1    1    2  502    0  0.27175172409E+02 -0.39285980469E+02 -0.62328126666E+01  0.48354923333E+02  0.41800000000E+01 0. -1.
         -5    1    1    2    0  502  0.15083758454E+02  0.46229235749E+02  0.10799482765E+03  0.11851167540E+03  0.41800000000E+01 0. -1.
        -11    1    1    2    0    0 -0.32077538981E+02 -0.37611107850E+02  0.10673293711E+02  0.50571564534E+02  0.00000000000E+00 0.  1.
         11    1    1    2    0    0 -0.10181391882E+02  0.30667852570E+02 -0.44310264846E+02  0.54841384853E+02  0.00000000000E+00 0. -1.
</event>
<event>
 6    1  0.4988969E-006  0.1098020E+03  0.7561462E-02  0.1260937E+00
          1   -1    0    0  501    0  0.00000000000E+00  0.00000000000E+00  0.39408198195E+03  0.39408198195E+03  0.00000000000E+00 0. -1.
         -1   -1    0    0    0  501 -0.00000000000E+00 -0.00000000000E+00 -0.50590340919E+02  0.50590340919E+02  0.00000000000E+00 0.  1.
          5    1    1    2  502    0  0.92879494463E+00  0.51703196304E+01  0.15405223643E+03  0.15419843973E+03  0.41800000000E+01 0.  1.
         -5    1    1    2    0  502 -0.59389344365E+02  0.71831199831E+02  0.56395580260E+02  0.10901719757E+03  0.41800000000E+01 0.  1.
        -11    1    1    2    0    0  0.51853671414E+02 -0.90648690263E+02  0.97742925370E+02  0.14303729495E+03  0.00000000000E+00 0.  1.
         11    1    1    2    0    0  0.66068780073E+01  0.13647170802E+02  0.35300898968E+02  0.38419390623E+02  0.00000000000E+00 0. -1.
</event>
<event>
 6    1  0.4988969E-006  0.1443537E+03  0.7561462E-02  0.1207588E+00
         -4   -1    0    0    0  501 -0.00000000000E+00  0.00000000000E+00  0.75628995056E+02  0.75628995056E+02  0.00000000000E+00 0. -1.
          4   -1    0    0  501    0  0.00000000000E+00 -0.00000000000E+00 -0.42338760122E+03  0.42338760122E+03  0.00000000000E+00 0.  1.
          5    1    1    2  502    0 -0.26026049772E+02 -0.12815711721E+03 -0.11884935456E+03  0.17676041253E+03  0.41800000000E+01 0.  1.
         -5    1    1    2    0  502  0.62479392809E+01  0.29285516077E+01  0.23792971554E+02  0.25123515979E+02  0.41800000000E+01 0.  1.
        -11    1    1    2    0    0 -0.29379947791E+02  0.69695579538E+02 -0.16988434070E+03  0.18596059893E+03  0.00000000000E+00 0.  1.
         11    1    1    2    0    0  0.49158058282E+02  0.55532986062E+02 -0.82817882454E+02  0.11117206884E+03  0.00000000000E+00 0. -1.
</event>
<event>
 6    1  0.4988969E-006  0.1635484E+03  0.7561462E-02  0.1184748E+00
         -1   -1    0    0    0  501 -0.00000000000E+00  0.00000000000E+00  0.90080899888E+03  0.90080899888E+03  0.00000000000E+00 0.  1.
          1   -1    0    0  501    0  0.00000000000E+00 -0.00000000000E+00 -0.40214184089E+02  0.40214184089E+02  0.00000000000E+00 0. -1.
          5    1    1    2  502    0  0.45582027582E+02 -0.11004314123E+01  0.12555182273E+02  0.47476701546E+02  0.41800000000E+01 0. -1.
         -5    1    1    2    0  502  0.90004019826E+02 -0.59395389062E+02  0.31874698236E+03  0.33651990579E+03  0.41800000000E+01 0. -1.
        -11    1    1    2    0    0 -0.18480892044E+02  0.52908073920E+02  0.18314007957E+03  0.19152309626E+03  0.00000000000E+00 0.  1.
         11    1    1    2    0    0 -0.11710515536E+03  0.75877465536E+01  0.34615257059E+03  0.36550347937E+03  0.00000000000E+00 0. -1.
</event>
<event>
 6    1  0.4988969E-006  0.1046639E+03  0.7561462E-02  0.1270783E+00
          2   -1    0    0  501    0  0.00000000000E+00  0.00000000000E+00  0.25486059026E+03  0.25486059026E+03  0.00000000000E+00 0. -1.
         -2   -1    0    0    0  501 -0.00000000000E+00 -0.00000000000E+00 -0.81229904123E+02  0.81229904123E+02  0.00000000000E+00 0.  1.
          5    1    1    2  502    0 -0.21732657629E+02 -0.21776822222E+01  0.88860595956E+02  0.91600920417E+02  0.41800000000E+01 0.  1.
         -5    1    1    2    0  502 -0.58060952143E+02 -0.34836754602E+02 -0.27447124225E+02  0.73181217967E+02  0.41800000000E+01 0.  1.
        -11    1    1    2    0    0  0.25305683639E+02  0.56078830868E+02  0.24334029674E+02  0.66161604395E+02  0.00000000000E+00 0.  1.
         11    1    1    2    0    0  0.54487926132E+02 -0.19064394043E+02  0.87883184729E+02  0.10514675160E+03  0.00000000000E+00 0. -1.
</event>
<event>
 6    1  0.4988969E-006  0.7851860E+02  0.7561462E-02  0.1333309E+00
         -1   -1    0    0    0  501 -0.00000000000E+00  0.00000000000E+00  0.13962614684E+03  0.13962614684E+03  0.00000000000E+00 0.  1.
          1   -1    0    0  501    0  0.00000000000E+00 -0.00000000000E+00 -0.10247545823E+03  0.10247545823E+03  0.00000000000E+00 0. -1.
          5    1    1    2  502    0  0.61783176189E+02  0.15525099631E+02 -0.31374163874E+02  0.71133677940E+02  0.41800000000E+01 0. -1.
         -5    1    1    2    0  502 -0.10539157285E+02 -0.41186081272E+01  0.68444845221E+02  0.69499683499E+02  0.41800000000E+01 0. -1.
        -11    1    1    2    0    0 -0.14087920462E+01 -0.28434599387E+02 -0.29556598217E+02  0.41037831760E+02  0.00000000000E+00 0. -1.
         11    1    1    2    0    0 -0.49835226857E+02  0.17028107884E+02  0.29636605486E+02  0.60430411870E+02  0.00000000000E+00 0.  1.
</event>
<event>
 6    1  0.4988969E-006  0.1088128E+03  0.7561462E-02  0.1262784E+00
          2   -1    0    0  501    0  0.00000000000E+00  0.00000000000E+00  0.85669806715E+02  0.85669806715E+02  0.00000000000E+00 0. -1.
         -2   -1    0    0    0  501 -0.00000000000E+00 -0.00000000000E+00 -0.16688131816E+03  0.16688131816E+03  0.00000000000E+00 0.  1.
          5    1    1    2  502    0 -0.73183956729E+02  0.31642488717E+02  0.64687026742E+01  0.80102778535E+02  0.41800000000E+01 0.  1.
         -5    1    1    2    0  502  0.43916619784E+02  0.79283591988E+01 -0.36070846231E+02  0.57533526927E+02  0.41800000000E+01 0.  1.
        -11    1    1    2    0    0 -0.24457759854E+02 -0.29468574513E+02 -0.46159314735E+02  0.59977172638E+02  0.00000000000E+00 0.  1.
         11    1    1    2    0    0  0.53725096799E+02 -0.10102273403E+02 -0.54500531556E+01  0.54937646777E+02  0.00000000000E+00 0. -1.
</event>
<event>
 6    1  0.4988969E-006  0.8570923E+02  0.7561462E-02  0.1313588E+00
          1   -1    0    0  501    0  0.00000000000E+00  0.00000000000E+00  0.20851425838E+03  0.20851425838E+03  0.00000000000E+00 0. -1.
         -1   -1    0    0    0  501 -0.00000000000E+00 -0.00000000000E+00 -0.61836257058E+02  0.61836257058E+02  0.00000000000E+00 0.  1.
          5    1    1    2  502    0 -0.16178654544E+02  0.23716981299E+02 -0.27019509991E+02  0.39645559460E+02  0.41800000000E+01 0. -1.
         -5    1    1    2    0  502  0.44949631492E+02 -0.90613532815E+01  0.96783674310E+02  0.10717802717E+03  0.41800000000E+01 0. -1.
        -11    1    1    2    0    0 -0.53798442527E+02  0.16618368201E+02  0.40126020951E+02  0.69141450212E+02  0.00000000000E+00 0.  1.
         11    1    1    2    0    0  0.25027465579E+02 -0.31273996218E+02  0.36787816055E+02  0.54385478603E+02  0.00000000000E+00 0. -1.
</event>
<event>
 6    1  0.4988969E-006  0.7668621E+02  0.7561462E-02  0.1338727E+00
          1   -1    0    0  501    0  0.00000000000E+00  0.00000000000E+00  0.28848024587E+02  0.28848024587E+02  0.00000000000E+00 0. -1.
         -1   -1    0    0    0  501 -0.00000000000E+00 -0.00000000000E+00 -0.65823819178E+03  0.65823819178E+03  0.00000000000E+00 0.  1.
          5    1    1    2  502    0  0.29953319774E+02 -0.51519747220E+02 -0.49330867171E+03  0.49691287335E+03  0.41800000000E+01 0.  1.
         -5    1    1    2    0  502 -0.27170702714E+02  0.20259131449E+02 -0.44223241503E+02  0.55873490871E+02  0.41800000000E+01 0.  1.
        -11    1    1    2    0    0  0.21704990085E+02  0.27169061560E+01  0.11213599910E+02  0.24581151246E+02  0.00000000000E+00 0. -1.
         11    1    1    2    0    0 -0.24487607144E+02  0.28543709614E+02 -0.10307185389E+03  0.10971870090E+03  0.00000000000E+00 0.  1.
</event>
<event>
 6    1  0.4988969E-006  0.2787666E+03  0.7561462E-02  0.1096365E+00
          2   -1    0    0  501    0  0.00000000000E+00  0.00000000000E+00  0.85981577081E+03  0.85981577081E+03  0.00000000000E+00 0. -1.
         -2   -1    0    0    0  501 -0.00000000000E+00 -0.00000000000E+00 -0.10700769701E+03  0.10700769701E+03  0.00000000000E+00 0.  1.
          5    1    1    2  502    0  0.17970937118E+03  0.11581894796E+03  0.23697136269E+03  0.31919020338E+03  0.41800000000E+01 0. -1.
         -5    1    1    2    0  502  0.18615557817E+02  0.68333803235E+02  0.18141063323E+02  0.73229899876E+02  0.41800000000E+01 0. -1.
        -11    1    1    2    0    0 -0.10683010499E+03 -0.12187411174E+03  0.20397823406E+03  0.26052464454E+03  0.00000000000E+00 0.  1.
         11    1    1    2    0    0 -0.91494824013E+02 -0.62278639461E+02  0.29371741373E+03  0.31387872002E+03  0.00000000000E+00 0. -1.
</event>
<event>
 6    1  0.4988969E-006  0.1153551E+03  0.7561462E-02  0.1250963E+00
         -2   -1    0    0    0  501 -0.00000000000E+00  0.00000000000E+00  0.81211322150E+02  0.81211322150E+02  0.00000000000E+00 0.  1.
          2   -1    0    0  501    0  0.00000000000E+00 -0.00000000000E+00 -0.18620411918E+03  0.18620411918E+03  0.00000000000E+00 0. -1.
          5    1    1    2  502    0 -0.59738806224E+02 -0.20327419834E+02 -0.35639885615E+02  0.72592029954E+02  0.41800000000E+01 0.  1.
         -5    1    1    2    0  502  0.58259876042E+02 -0.31531014414E+02  0.39245037210E+01  0.66492797775E+02  0.41800000000E+01 0.  1.
        -11    1    1    2    0    0  0.30164454013E+02 -0.10912463828E+02 -0.41227982343E+02  0.52237177190E+02  0.00000000000E+00 0. -1.
         11    1    1    2    0    0 -0.28685523831E+02  0.62770898076E+02 -0.32049432796E+02  0.76093436414E+02  0.00000000000E+00 0.  1.
</event>
<event>
 6    1  0.4988969E-006  0.5717245E+02  0.7561462E-02  0.1410096E+00
          1   -1    0    0  501    0  0.00000000000E+00  0.00000000000E+00  0.12273566319E+03  0.12273566319E+03  0.00000000000E+00 0. -1.
         -1   -1    0    0    0  501 -0.00000000000E+00 -0.00000000000E+00 -0.99494725827E+02  0.99494725827E+02  0.00000000000E+00 0.  1.
          5    1    1    2  502    0  0.30452044487E+02  0.30999840363E+02 -0.44727368875E+02  0.62500616336E+02  0.41800000000E+01 0. -1.
         -5    1    1    2    0  502 -0.29887290252E+02 -0.32311625652E+02  0.44320733960E+02  0.62602644750E+02  0.41800000000E+01 0. -1.
        -11    1    1    2    0    0  0.96622055981E+01  0.93679082747E+01 -0.34766235789E+02  0.37280116327E+02  0.00000000000E+00 0.  1.
         11    1    1    2    0    0 -0.10226959833E+02 -0.80561229853E+01  0.58413808065E+02  0.59847011601E+02  0.00000000000E+00 0. -1.
</event>
<event>
 6    1  0.4988969E-006  0.8213216E+02  0.7561462E-02  0.1323107E+00
          2   -1    0    0  501    0  0.00000000000E+00  0.00000000000E+00  0.22106770883E+03  0.22106770883E+03  0.00000000000E+00 0. -1.
         -2   -1    0    0    0  501 -0.00000000000E+00 -0.00000000000E+00 -0.39695102497E+02  0.39695102497E+02  0.00000000000E+00 0.  1.
          5    1    1    2  502    0  0.39202333712E+02 -0.60928694565E+02  0.26529281085E+02  0.77268389040E+02  0.41800000000E+01 0. -1.
         -5    1    1    2    0  502 -0.37593219836E+02  0.39125247988E+02  0.62953775708E+02  0.83214695119E+02  0.41800000000E+01 0.  1.
        -11    1    1    2    0    0 -0.15294067334E+02  0.16757875578E+02  0.36285425539E+02  0.42794473896E+02  0.00000000000E+00 0.  1.
         11    1    1    2    0    0  0.13684953459E+02  0.50455709997E+01  0.55604124002E+02  0.57485253273E+02  0.00000000000E+00 0. -1.
</event>
<event>
 6    1  0.4988969E-006  0.2146085E+03  0.7561462E-02  0.1137968E+00
          1   -1    0    0  501    0  0.00000000000E+00  0.00000000000E+00  0.32559177987E+03  0.32559177987E+03  0.00000000000E+00 0. -1.
         -1   -1    0    0    0  501 -0.00000000000E+00 -0.00000000000E+00 -0.16514828816E+03  0.16514828816E+03  0.00000000000E+00 0.  1.
          5    1    1    2  502    0 -0.15801993390E+03  0.73757094041E+02  0.48204487094E+01  0.17450248582E+03  0.41800000000E+01 0. -1.
         -5    1    1    2    0  502 -0.11785596355E+02  0.39349553238E+02  0.60964088749E+02  0.73630021992E+02  0.41800000000E+01 0. -1.
        -11    1    1    2    0    0  0.83639420439E+01 -0.31511230134E+02  0.43991527863E+02  0.54755526431E+02  0.00000000000E+00 0.  1.
         11    1    1    2    0    0  0.16144158821E+03 -0.81595417144E+02  0.50667426388E+02  0.18785203379E+03  0.00000000000E+00 0. -1.
</event>
<event>
 6    1  0.4988969E-006  0.1597421E+03  0.7561462E-02  0.1188988E+00
         -1   -1    0    0    0  501 -0.00000000000E+00  0.00000000000E+00  0.96909480780E+02  0.96909480780E+02  0.00000000000E+00 0.  1.
          1   -1    0    0  501    0  0.00000000000E+00 -0.00000000000E+00 -0.30477904481E+03  0.30477904481E+03  0.00000000000E+00 0. -1.
          5    1    1    2  502    0  0.11065664088E+03 -0.92988147716E+02 -0.30512987324E+02  0.14778431101E+03  0.41800000000E+01 0.  1.
         -5    1    1    2    0  502 -0.64096525083E+00  0.30279952378E+02 -0.22357996529E+02  0.37876625527E+02  0.41800000000E+01 0.  1.
        -11    1    1    2    0    0 -0.58773596618E+02 -0.54643291764E+01 -0.34395487291E+02  0.68317231346E+02  0.00000000000E+00 0.  1.
         11    1    1    2    0    0 -0.51242079008E+02  0.68172524514E+02 -0.12060309288E+03  0.14771035770E+03  0.00000000000E+00 0. -1.
</event>
<event>
 6    1  0.5435557E-006  0.8157506E+02  0.7561462E-02  0.1324640E+00
         -3   -1    0    0    0  501 -0.00000000000E+00  0.00000000000E+00  0.77961380578E+02  0.77961380578E+02  0.00000000000E+00 0.  1.
          3   -1    0    0  501    0  0.00000000000E+00 -0.00000000000E+00 -0.16289463326E+03  0.16289463326E+03  0.00000000000E+00 0. -1.
          5    1    1    2  502    0  0.21640842581E+02  0.72017731918E+02 -0.32807025186E+02  0.82150186121E+02  0.41800000000E+01 0. -1.
         -5    1    1    2    0  502 -0.24771584502E+02 -0.41718115530E+02  0.68714908573E+01  0.49180507813E+02  0.41800000000E+01 0. -1.
        -11    1    1    2    0    0  0.13247658040E+02 -0.10506464475E+02  0.20733295927E+02  0.26753612827E+02  0.00000000000E+00 0.  1.
         11    1    1    2    0    0 -0.10116916118E+02 -0.19793151913E+02 -0.79731014283E+02  0.82771707080E+02  0.00000000000E+00 0. -1.
</event>
<event>
 6    1  0.4988969E-006  0.8267756E+02  0.7561462E-02  0.1321620E+00
          3   -1    0    0  501    0  0.00000000000E+00  0.00000000000E+00  0.59867042733E+02  0.59867042733E+02  0.00000000000E+00 0. -1.
         -3   -1    0    0    0  501 -0.00000000000E+00 -0.00000000000E+00 -0.27780552600E+03  0.27780552600E+03  0.00000000000E+00 0.  1.
          5    1    1    2  502    0 -0.11674327211E+01 -0.50261467876E+00 -0.12056231083E+03  0.12064144691E+03  0.41800000000E+01 0.  1.
         -5    1    1    2    0  502 -0.33762615109E+02 -0.59742941637E+02 -0.35622839291E+01  0.68842541508E+02  0.41800000000E+01 0.  1.
        -11    1    1    2    0    0  0.32212164848E+02  0.28471624749E+00 -0.80501618433E+02  0.86707642096E+02  0.00000000000E+00 0.  1.
         11    1    1    2    0    0  0.27178829827E+01  0.59960840068E+02 -0.13312270076E+02  0.61480938218E+02  0.00000000000E+00 0. -1.
</event>
<event>
 6    1  0.4988969E-006  0.9801121E+02  0.7561462E-02  0.1284535E+00
         -2   -1    0    0    0  501 -0.00000000000E+00  0.00000000000E+00  0.83245394090E+03  0.83245394090E+03  0.00000000000E+00 0.  1.
          2   -1    0    0  501    0  0.00000000000E+00 -0.00000000000E+00 -0.17608953255E+02  0.17608953255E+02  0.00000000000E+00 0. -1.
          5    1    1    2  502    0  0.22453834252E+02  0.42014543202E+02  0.37308395076E+03  0.37613628278E+03  0.41800000000E+01 0.  1.
         -5    1    1    2    0  502 -0.44865184240E+02 -0.54817650700E+02  0.24841959590E+03  0.25835562238E+03  0.41800000000E+01 0.  1.
        -11    1    1    2    0    0  0.49102310009E+02  0.45962847296E+01  0.17581828703E+03  0.18260403264E+03  0.00000000000E+00 0.  1.
         11    1    1    2    0    0 -0.26690960021E+02  0.82068227676E+01  0.17523153949E+02  0.32966956352E+02  0.00000000000E+00 0. -1.
</event>
<event>
 6    1  0.4988969E-006  0.1338443E+03  0.7561462E-02  0.1221860E+00
         -2   -1    0    0    0  501 -0.00000000000E+00  0.00000000000E+00  0.98933128033E+02  0.98933128033E+02  0.00000000000E+00 0.  1.
          2   -1    0    0  501    0  0.00000000000E+00 -0.00000000000E+00 -0.22372183555E+03  0.22372183555E+03  0.00000000000E+00 0. -1.
          5    1    1    2  502    0  0.72719763530E+02 -0.85641660308E+02 -0.10460562386E+02  0.11291392188E+03  0.41800000000E+01 0.  1.
         -5    1    1    2    0  502  0.20683948621E+02  0.43554938746E+02 -0.15681512524E+02  0.50874754592E+02  0.41800000000E+01 0.  1.
        -11    1    1    2    0    0 -0.54972446564E+02  0.40712562910E+02 -0.19918000646E+02  0.71247522130E+02  0.00000000000E+00 0.  1.
         11    1    1    2    0    0 -0.38431265587E+02  0.13741586516E+01 -0.78728631959E+02  0.87618764981E+02  0.00000000000E+00 0. -1.
</event>
<event>
 6    1  0.6519025E-006  0.9797039E+02  0.7561462E-02  0.1284623E+00
          1   -1    0    0  501    0  0.00000000000E+00  0.00000000000E+00  0.19106995224E+03  0.19106995224E+03  0.00000000000E+00 0. -1.
         -1   -1    0    0    0  501 -0.00000000000E+00 -0.00000000000E+00 -0.11374583895E+03  0.11374583895E+03  0.00000000000E+00 0.  1.
          5    1    1    2  502    0  0.32780360053E+02  0.14816915426E+02  0.60748147312E+02  0.70724131594E+02  0.41800000000E+01 0.  1.
         -5    1    1    2    0  502  0.26240795648E+02  0.54776927160E+02 -0.58071825300E+02  0.84136201477E+02  0.41800000000E+01 0.  1.
        -11    1    1    2    0    0 -0.40666441889E+02 -0.18735813892E+02 -0.13307217546E+02  0.46710515485E+02  0.00000000000E+00 0.  1.
         11    1    1    2    0    0 -0.18354713812E+02 -0.50858028694E+02  0.87955008831E+02  0.10324494264E+03  0.00000000000E+00 0. -1.
</event>
<event>
 6    1  0.4988969E-006  0.1383745E+03  0.7561462E-02  0.1215533E+00
         -2   -1    0    0    0  501 -0.00000000000E+00  0.00000000000E+00  0.12174952622E+03  0.12174952622E+03  0.00000000000E+00 0.  1.
          2   -1    0    0  501    0  0.00000000000E+00 -0.00000000000E+00 -0.25296185552E+03  0.25296185552E+03  0.00000000000E+00 0. -1.
          5    1    1    2  502    0  0.94127093430E+01  0.80061463530E+01  0.36108930376E+02  0.38393029699E+02  0.41800000000E+01 0. -1.
         -5    1    1    2    0  502  0.83009645914E+01  0.12700260729E+03 -0.84163819508E+02  0.15264202955E+03  0.41800000000E+01 0. -1.
        -11    1    1    2    0    0 -0.65233576662E+01 -0.77535801626E+02  0.48611585138E+01  0.77961436564E+02  0.00000000000E+00 0.  1.
         11    1    1    2    0    0 -0.11190316268E+02 -0.57472952013E+02 -0.88018598688E+02  0.10571488593E+03  0.00000000000E+00 0. -1.
</event>
<event>
 6    1  0.4988969E-006  0.7922551E+02  0.7561462E-02  0.1331264E+00
          1   -1    0    0  501    0  0.00000000000E+00  0.00000000000E+00  0.15901972766E+03  0.15901972766E+03  0.00000000000E+00 0. -1.
         -1   -1    0    0    0  501 -0.00000000000E+00 -0.00000000000E+00 -0.12808357328E+03  0.12808357328E+03  0.00000000000E+00 0.  1.
          5    1    1    2  502    0  0.11426027871E+01  0.43233914374E+02  0.22996905245E+02  0.49161030746E+02  0.41800000000E+01 0. -1.
         -5    1    1    2    0  502 -0.21688501482E+02 -0.19387248924E+02 -0.93140063809E+02  0.97666782499E+02  0.41800000000E+01 0. -1.
        -11    1    1    2    0    0  0.18930756441E+02 -0.53068931484E+02  0.94895723667E+02  0.11036250903E+03  0.00000000000E+00 0. -1.
         11    1    1    2    0    0  0.16151422537E+01  0.29222266033E+02  0.61835892765E+01  0.29912978671E+02  0.00000000000E+00 0.  1.
</event>
<event>
 6    1  0.4988969E-006  0.7406058E+02  0.7561462E-02  0.1346805E+00
          2   -1    0    0  501    0  0.00000000000E+00  0.00000000000E+00  0.37381217810E+02  0.37381217810E+02  0.00000000000E+00 0. -1.
         -2   -1    0    0    0  501 -0.00000000000E+00 -0.00000000000E+00 -0.55803768189E+03  0.55803768189E+03  0.00000000000E+00 0.  1.
          5    1    1    2  502    0  0.33070304754E+02  0.16768901915E+02 -0.39102366713E+03  0.39279997681E+03  0.41800000000E+01 0. -1.
         -5    1    1    2    0  502  0.33904491962E+02 -0.76581642513E+01 -0.16285257930E+02  0.38611450125E+02  0.41800000000E+01 0. -1.
        -11    1    1    2    0    0 -0.39803993417E+02  0.11795979270E+02 -0.12181417715E+03  0.12869419868E+03  0.00000000000E+00 0.  1.
         11    1    1    2    0    0 -0.27170803299E+02 -0.20906716934E+02  0.84666381353E+01  0.35313274079E+02  0.00000000000E+00 0. -1.
</event>
<event>
 6    1  0.4988969E-006  0.1068109E+03  0.7561462E-02  0.1266592E+00
          1   -1    0    0  501    0  0.00000000000E+00  0.00000000000E+00  0.41667533456E+02  0.41667533456E+02  0.00000000000E+00 0. -1.
         -1   -1    0    0    0  501 -0.00000000000E+00 -0.00000000000E+00 -0.14279690855E+04  0.14279690855E+04  0.00000000000E+00 0.  1.
          5    1    1    2  502    0 -0.46640065207E+02  0.62673092470E+02 -0.23998977471E+03  0.25241984187E+03  0.41800000000E+01 0. -1.
         -5    1    1    2    0  502 -0.20155092464E+02  0.18004833445E+02 -0.10457212139E+04  0.10460787406E+04  0.41800000000E+01 0.  1.
        -11    1    1    2    0    0  0.48732897985E+02 -0.38329817302E+02 -0.10797565128E+03  0.12451028676E+03  0.00000000000E+00 0.  1.
         11    1    1    2    0    0  0.18062259686E+02 -0.42348108612E+02  0.73850878557E+01  0.46627749792E+02  0.00000000000E+00 0. -1.
</event>
<event>
 6    1  0.4988969E-006  0.9612536E+02  0.7561462E-02  0.1288661E+00
         -1   -1    0    0    0  501 -0.00000000000E+00  0.00000000000E+00  0.10803070674E+03  0.10803070674E+03  0.00000000000E+00 0.  1.
          1   -1    0    0  501    0  0.00000000000E+00 -0.00000000000E+00 -0.14694499094E+03  0.14694499094E+03  0.00000000000E+00 0. -1.
          5    1    1    2  502    0  0.66612937344E+02  0.27521030659E+02  0.11652352151E+02  0.73129612749E+02  0.41800000000E+01 0. -1.
         -5    1    1    2    0  502 -0.42867377422E+02 -0.11029622706E+02  0.31935999356E+02  0.54741621085E+02  0.41800000000E+01 0.  1.
        -11    1    1    2    0    0 -0.25670706719E+02  0.23949677622E+02 -0.79019963902E+02  0.86468068885E+02  0.00000000000E+00 0. -1.
         11    1    1    2    0    0  0.19251467968E+01 -0.40441085575E+02 -0.34826718033E+01  0.40636394962E+02  0.00000000000E+00 0.  1.
</event>
<event>
 6    1  0.4988969E-006  0.1053062E+03  0.7561462E-02  0.1269517E+00
         -1   -1    0    0    0  501 -0.00000000000E+00  0.00000000000E+00  0.22141207348E+02  0.22141207348E+02  0.00000000000E+00 0.  1.
          1   -1    0    0  501    0  0.00000000000E+00 -0.00000000000E+00 -0.67064329497E+03  0.67064329497E+03  0.00000000000E+00 0. -1.
          5    1    1    2  502    0  0.43334617617E+02 -0.66583751543E+02 -0.12450878160E+03  0.14775382955E+03  0.41800000000E+01 0.  1.
         -5    1    1    2    0  502  0.26120218886E+01  0.33782337948E+02 -0.22782278969E+03  0.23036658811E+03  0.41800000000E+01 0.  1.
        -11    1    1    2    0    0 -0.68370661390E+02  0.20686908676E+02 -0.26469138603E+03  0.27416058318E+03  0.00000000000E+00 0. -1.
         11    1    1    2    0    0  0.22424021884E+02  0.12114504919E+02 -0.31479130296E+02  0.40503501467E+02  0.00000000000E+00 0.  1.
</event>
<event>
 6    1  0.4988969E-006  0.3976267E+02  0.7561462E-02  0.1509965E+00
          4   -1    0    0  501    0  0.00000000000E+00  0.00000000000E+00  0.38434253717E+03  0.38434253717E+03  0.00000000000E+00 0. -1.
         -4   -1    0    0    0  501 -0.00000000000E+00 -0.00000000000E+00 -0.20308352018E+02  0.20308352018E+02  0.00000000000E+00 0.  1.
          5    1    1    2  502    0  0.63723200066E+01  0.18029131347E+01  0.24492374578E+03  0.24504891472E+03  0.41800000000E+01 0. -1.
         -5    1    1    2    0  502  0.89217058699E+01 -0.20187482633E+02 -0.75514488823E+01  0.23698693443E+02  0.41800000000E+01 0.  1.
        -11    1    1    2    0    0 -0.29704695459E+02  0.18164402870E+02  0.91655762125E+02  0.98046382874E+02  0.00000000000E+00 0. -1.
         11    1    1    2    0    0  0.14410669583E+02  0.22016662807E+00  0.35006126133E+02  0.37856898156E+02  0.00000000000E+00 0.  1.
</event>
<event>
 6    1  0.4988969E-006  0.2270554E+03  0.7561462E-02  0.1128730E+00
         -2   -1    0    0    0  501 -0.00000000000E+00  0.00000000000E+00  0.42699878117E+02  0.42699878117E+02  0.00000000000E+00 0.  1.
          2   -1    0    0  501    0  0.00000000000E+00 -0.00000000000E+00 -0.12805483885E+04  0.12805483885E+04  0.00000000000E+00 0. -1.
          5    1    1    2  502    0  0.11306047715E+03 -0.11459861217E+03 -0.33835054546E+03  0.37471866435E+03  0.41800000000E+01 0. -1.
         -5    1    1    2    0  502 -0.12405455889E+02 -0.66200316900E+02 -0.30988727741E+03  0.31714976650E+03  0.41800000000E+01 0. -1.
        -11    1    1    2    0    0 -0.67814111132E+02  0.35337787874E+02 -0.21383515759E+03  0.22709686819E+03  0.00000000000E+00 0. -1.
         11    1    1    2    0    0 -0.32840910129E+02  0.14546114119E+03 -0.37577552994E+03  0.40428296758E+03  0.00000000000E+00 0.  1.
</event>
<event>
 6    1  0.4988969E-006  0.1307561E+03  0.7561462E-02  0.1226338E+00
          1   -1    0    0  501    0  0.00000000000E+00  0.00000000000E+00  0.32377779184E+03  0.32377779184E+03  0.00000000000E+00 0. -1.
         -1   -1    0    0    0  501 -0.00000000000E+00 -0.00000000000E+00 -0.81098196117E+02  0.81098196117E+02  0.00000000000E+00 0.  1.
          5    1    1    2  502    0 -0.57777362311E+02 -0.25661519183E+02  0.87179368009E+02  0.10777036591E+03  0.41800000000E+01 0.  1.
         -5    1    1    2    0  502 -0.48501652617E+02  0.41184890325E+02 -0.24918519607E+02  0.68461744917E+02  0.41800000000E+01 0.  1.
        -11    1    1    2    0    0  0.67192874724E+02  0.30683731537E+02  0.13149161071E+03  0.15081915489E+03  0.00000000000E+00 0.  1.
         11    1    1    2    0    0  0.39086140204E+02 -0.46207102680E+02  0.48927136607E+02  0.77824722233E+02  0.00000000000E+00 0. -1.
</event>
<event>
 6    1  0.4988969E-006  0.1188642E+03  0.7561462E-02  0.1244983E+00
         -1   -1    0    0    0  501 -0.00000000000E+00  0.00000000000E+00  0.50166950413E+03  0.50166950413E+03  0.00000000000E+00 0.  1.
          1   -1    0    0  501    0  0.00000000000E+00 -0.00000000000E+00 -0.45067842425E+02  0.45067842425E+02  0.00000000000E+00 0. -1.
          5    1    1    2  502    0 -0.50605245368E+02  0.92507449384E+02  0.26580536069E+03  0.28598685498E+03  0.41800000000E+01 0.  1.
         -5    1    1    2    0  502 -0.12394215300E+02 -0.41232148273E+02  0.91948473307E+02  0.10161545536E+03  0.41800000000E+01 0.  1.
        -11    1    1    2    0    0  0.41487327819E+02 -0.53064667093E+02  0.11424262046E+03  0.13262139191E+03  0.00000000000E+00 0.  1.
         11    1    1    2    0    0  0.21512132849E+02  0.17893659825E+01 -0.15394792753E+02  0.26513644303E+02  0.00000000000E+00 0. -1.
</event>
<event>
 6    1  0.4988969E-006  0.1094678E+03  0.7561462E-02  0.1261559E+00
          2   -1    0    0  501    0  0.00000000000E+00  0.00000000000E+00  0.70092502731E+03  0.70092502731E+03  0.00000000000E+00 0. -1.
         -2   -1    0    0    0  501 -0.00000000000E+00 -0.00000000000E+00 -0.17236671582E+02  0.17236671582E+02  0.00000000000E+00 0.  1.
          5    1    1    2  502    0  0.54503106207E+02 -0.11561877807E+02  0.19557403275E+03  0.20339847662E+03  0.41800000000E+01 0. -1.
         -5    1    1    2    0  502 -0.63851727460E+02  0.29123607068E+02  0.20441189653E+03  0.21616411226E+03  0.41800000000E+01 0. -1.
        -11    1    1    2    0    0 -0.19688042311E+02  0.30679210954E+02  0.98616995450E+02  0.10513869310E+03  0.00000000000E+00 0.  1.
         11    1    1    2    0    0  0.29036663564E+02 -0.48240940214E+02  0.18508543100E+03  0.19346041691E+03  0.00000000000E+00 0. -1.
</event>
<event>
 6    1  0.4988969E-006  0.1133566E+03  0.7561462E-02  0.1254477E+00
         -1   -1    0    0    0  501 -0.00000000000E+00  0.00000000000E+00  0.23522275850E+02  0.23522275850E+02  0.00000000000E+00 0.  1.
          1   -1    0    0  501    0  0.00000000000E+00 -0.00000000000E+00 -0.82686505385E+03  0.82686505385E+03  0.00000000000E+00 0. -1.
          5    1    1    2  502    0 -0.22279186816E+02  0.19530224060E+02 -0.14972016245E+03  0.15268068398E+03  0.41800000000E+01 0. -1.
         -5    1    1    2    0  502  0.38183867268E+02 -0.80037003685E+02 -0.10145696248E+03  0.13481438096E+03  0.41800000000E+01 0. -1.
        -11    1    1    2    0    0 -0.41924903113E+02  0.68918625721E+02 -0.44752445358E+03  0.45473685910E+03  0.00000000000E+00 0.  1.
         11    1    1    2    0    0  0.26020222661E+02 -0.84118460965E+01 -0.10464119950E+03  0.10815540567E+03  0.00000000000E+00 0. -1.
</event>
<event>
 6    1  0.4988969E-006  0.9598652E+02  0.7561462E-02  0.1288970E+00
         -1   -1    0    0    0  501 -0.00000000000E+00  0.00000000000E+00  0.37799022510E+02  0.37799022510E+02  0.00000000000E+00 0.  1.
          1   -1    0    0  501    0  0.00000000000E+00 -0.00000000000E+00 -0.38620026583E+03  0.38620026583E+03  0.00000000000E+00 0. -1.
          5    1    1    2  502    0  0.12894557361E+02 -0.44548436729E+02 -0.54507494141E+01  0.46883002183E+02  0.41800000000E+01 0. -1.
         -5    1    1    2    0  502  0.29404047391E+02  0.48069993338E+02 -0.13281474638E+03  0.14433485899E+03  0.41800000000E+01 0. -1.
        -11    1    1    2    0    0 -0.20650918154E+02 -0.40837876531E+02 -0.16108111416E+03  0.16745542070E+03  0.00000000000E+00 0. -1.
         11    1    1    2    0    0 -0.21647686599E+02  0.37316319923E+02 -0.49054633364E+02  0.65326006476E+02  0.00000000000E+00 0.  1.
</event>
<event>
 6    1  0.4988969E-006  0.1024758E+03  0.7561462E-02  0.1275174E+00
         -1   -1    0    0    0  501 -0.00000000000E+00  0.00000000000E+00  0.15435371913E+03  0.15435371913E+03  0.00000000000E+00 0.  1.
          1   -1    0    0  501    0  0.00000000000E+00 -0.00000000000E+00 -0.92561138301E+02  0.92561138301E+02  0.00000000000E+00 0. -1.
          5    1    1    2  502    0 -0.12104364030E+02 -0.35043814366E+02 -0.25057369413E+02  0.44943617075E+02  0.41800000000E+01 0. -1.
         -5    1    1    2    0  502 -0.23365441879E+02  0.69868125109E+02  0.57408487374E+02  0.93491740828E+02  0.41800000000E+01 0. -1.
        -11    1    1    2    0    0  0.21476704914E+02  0.24684347889E+02  0.33989367883E+02  0.47178840742E+02  0.00000000000E+00 0.  1.
         11    1    1    2    0    0  0.13993100995E+02 -0.59508658632E+02 -0.45479050143E+01  0.61300658787E+02  0.00000000000E+00 0. -1.
</event>
<event>
 6    1  0.4988969E-006  0.7778359E+02  0.7561462E-02  0.1335462E+00
          2   -1    0    0  501    0  0.00000000000E+00  0.00000000000E+00  0.46433398441E+02  0.46433398441E+02  0.00000000000E+00 0. -1.
         -2   -1    0    0    0  501 -0.00000000000E+00 -0.00000000000E+00 -0.32375369902E+03  0.32375369902E+03  0.00000000000E+00 0.  1.
          5    1    1    2  502    0  0.24288903514E+02 -0.10931655609E+02  0.82278784297E+01  0.28189045953E+02  0.41800000000E+01 0.  1.
         -5    1    1    2    0  502 -0.51776102288E+02  0.25545134234E+01 -0.17313856993E+03  0.18078088146E+03  0.41800000000E+01 0.  1.
        -11    1    1    2    0    0 -0.24285128173E+02  0.10270578922E+01 -0.10574505515E+03  0.10850271419E+03  0.00000000000E+00 0.  1.
         11    1    1    2    0    0  0.51772326947E+02  0.73500842934E+01 -0.66645539323E+01  0.52714455851E+02  0.00000000000E+00 0. -1.
</event>
<event>
 6    1  0.4988969E-006  0.9602724E+02  0.7561462E-02  0.1288879E+00
         -3   -1    0    0    0  501 -0.00000000000E+00  0.00000000000E+00  0.69285713342E+03  0.69285713342E+03  0.00000000000E+00 0.  1.
          3   -1    0    0  501    0  0.00000000000E+00 -0.00000000000E+00 -0.28107091421E+02  0.28107091421E+02  0.00000000000E+00 0. -1.
          5    1    1    2  502    0 -0.20602721546E+02 -0.36186771547E+01  0.13471083452E+02  0.25229138884E+02  0.41800000000E+01 0.  1.
         -5    1    1    2    0  502  0.76229594578E+02  0.25279138922E+02  0.50912685662E+03  0.51543924423E+03  0.41800000000E+01 0.  1.
        -11    1    1    2    0    0 -0.27447188893E+02 -0.45668780191E+02  0.27795644155E+02  0.60096451611E+02  0.00000000000E+00 0. -1.
         11    1    1    2    0    0 -0.28179684139E+02  0.24008318424E+02  0.11435645776E+03  0.12019939012E+03  0.00000000000E+00 0.  1.
</event>
<event>
 6    1  0.4988969E-006  0.1304585E+03  0.7561462E-02  0.1226777E+00
         -1   -1    0    0    0  501 -0.00000000000E+00  0.00000000000E+00  0.30235820160E+02  0.30235820160E+02  0.00000000000E+00 0.  1.
          1   -1    0    0  501    0  0.00000000000E+00 -0.00000000000E+00 -0.57463499345E+03  0.57463499345E+03  0.00000000000E+00 0. -1.
          5    1    1    2  502    0  0.11958007464E+02 -0.94877318961E+02 -0.22879588189E+03  0.24801154724E+03  0.41800000000E+01 0.  1.
         -5    1    1    2    0  502 -0.43193411614E+02  0.23192031251E+02 -0.74957276944E+02  0.89663854965E+02  0.41800000000E+01 0.  1.
        -11    1    1    2    0    0  0.59774268666E+02  0.61313197620E+02 -0.17214600184E+03  0.19226678690E+03  0.00000000000E+00 0.  1.
         11    1    1    2    0    0 -0.28538864517E+02  0.10372090091E+02 -0.68500012617E+02  0.74928624499E+02  0.00000000000E+00 0. -1.
</event>
<event>
 6    1  0.4988969E-006  0.1106323E+03  0.7561462E-02  0.1259403E+00
          1   -1    0    0  501    0  0.00000000000E+00  0.00000000000E+00  0.50243457436E+02  0.50243457436E+02  0.00000000000E+00 0. -1.
         -1   -1    0    0    0  501 -0.00000000000E+00 -0.00000000000E+00 -0.38413372975E+03  0.38413372975E+03  0.00000000000E+00 0.  1.
          5    1    1    2  502    0 -0.10890111084E+02  0.62258582272E+01  0.10468003408E+02  0.16864380375E+02  0.41800000000E+01 0. -1.
         -5    1    1    2    0  502  0.85421737198E+02  0.22429311947E+02 -0.24722506635E+03  0.26255980852E+03  0.41800000000E+01 0. -1.
        -11    1    1    2    0    0 -0.47956526251E+00  0.26991967583E+02 -0.31175406213E+02  0.41239571402E+02  0.00000000000E+00 0.  1.
         11    1    1    2    0    0 -0.74052060852E+02 -0.55647137758E+02 -0.65957803163E+02  0.11371342689E+03  0.00000000000E+00 0. -1.
</event>
<event>
 6    1  0.4988969E-006  0.1334714E+03  0.7561462E-02  0.1222394E+00
         -1   -1    0    0    0  501 -0.00000000000E+00  0.00000000000E+00  0.11662948460E+03  0.11662948460E+03  0.00000000000E+00 0.  1.
          1   -1    0    0  501    0  0.00000000000E+00 -0.00000000000E+00 -0.22890473635E+03  0.22890473635E+03  0.00000000000E+00 0. -1.
          5    1    1    2  502    0  0.52087730476E+02  0.84087743096E+02 -0.58980169188E+01  0.99177311965E+02  0.41800000000E+01 0.  1.
         -5    1    1    2    0  502  0.37528440623E+02 -0.43380297403E+02  0.18815227177E+02  0.60512141195E+02  0.41800000000E+01 0.  1.
        -11    1    1    2    0    0 -0.90994786834E+02 -0.24599083724E+02 -0.45755774245E+02  0.10477956398E+03  0.00000000000E+00 0.  1.
         11    1    1    2    0    0  0.13786157353E+01 -0.16108361969E+02 -0.79436687765E+02  0.81065203816E+02  0.00000000000E+00 0. -1.
</event>
<event>
 6    1  0.4988969E-006  0.9228939E+02  0.7561462E-02  0.1297400E+00
         -1   -1    0    0    0  501 -0.00000000000E+00  0.00000000000E+00  0.47351650071E+02  0.47351650071E+02  0.00000000000E+00 0.  1.
          1   -1    0    0  501    0  0.00000000000E+00 -0.00000000000E+00 -0.43469399924E+03  0.43469399924E+03  0.00000000000E+00 0. -1.
          5    1    1    2  502    0  0.22592490556E+02 -0.40563832304E+02 -0.12161814470E+03  0.13024703698E+03  0.41800000000E+01 0. -1.
         -5    1    1    2    0  502 -0.35436870487E+02  0.33814625994E+02  0.19611443385E+02  0.52927137016E+02  0.41800000000E+01 0.  1.
        -11    1    1    2    0    0  0.39384571129E+02  0.33065727510E+02 -0.15734960890E+03  0.16553968165E+03  0.00000000000E+00 0. -1.
         11    1    1    2    0    0 -0.26540191197E+02 -0.26316521200E+02 -0.12798603895E+03  0.13333179367E+03  0.00000000000E+00 0.  1.
</event>
<event>
 6    1  0.4988969E-006  0.7938466E+02  0.7561462E-02  0.1330807E+00
         -2   -1    0    0    0  501 -0.00000000000E+00  0.00000000000E+00  0.54780257539E+02  0.54780257539E+02  0.00000000000E+00 0.  1.
          2   -1    0    0  501    0  0.00000000000E+00 -0.00000000000E+00 -0.26310028687E+03  0.26310028687E+03  0.00000000000E+00 0. -1.
          5    1    1    2  502    0 -0.21935600096E+02  0.44251098466E+02  0.15550413056E+02  0.51948224351E+02  0.41800000000E+01 0. -1.
         -5    1    1    2    0  502  0.28841172841E+02 -0.45354105792E+02 -0.60801561302E+02  0.81259525102E+02  0.41800000000E+01 0. -1.
        -11    1    1    2    0    0 -0.30924253483E+02 -0.24144945256E+01 -0.15647290686E+03  0.15951774139E+03  0.00000000000E+00 0. -1.
         11    1    1    2    0    0  0.24018680738E+02  0.35175018517E+01 -0.65959742205E+01  0.25155053560E+02  0.00000000000E+00 0.  1.
</event>
<event>
 6    1  0.4988969E-006  0.7959598E+02  0.7561462E-02  0.1330202E+00
         -2   -1    0    0    0  501 -0.00000000000E+00  0.00000000000E+00  0.62390622235E+02  0.62390622235E+02  0.00000000000E+00 0.  1.
          2   -1    0    0  501    0  0.00000000000E+00 -0.00000000000E+00 -0.28672648258E+03  0.28672648258E+03  0.00000000000E+00 0. -1.
          5    1    1    2  502    0  0.17761073889E+02 -0.26680875591E+02 -0.98931854660E+02  0.10407837976E+03  0.41800000000E+01 0. -1.
         -5    1    1    2    0  502 -0.27801339617E+02 -0.41329482745E+02  0.25859559608E+02  0.56278147194E+02  0.41800000000E+01 0. -1.
        -11    1    1    2    0    0 -0.12066033236E+02  0.36106615376E+02 -0.61712607419E+01  0.38566323277E+02  0.00000000000E+00 0.  1.
         11    1    1    2    0    0  0.22106298964E+02  0.31903742960E+02 -0.14509230455E+03  0.15019425458E+03  0.00000000000E+00 0. -1.
</event>
<event>
 6    1  0.4988969E-006  0.2164219E+03  0.7561462E-02  0.1136579E+00
         -2   -1    0    0    0  501 -0.00000000000E+00  0.00000000000E+00  0.35407508508E+02  0.35407508508E+02  0.00000000000E+00 0.  1.
          2   -1    0    0  501    0  0.00000000000E+00 -0.00000000000E+00 -0.15092642420E+04  0.15092642420E+04  0.00000000000E+00 0. -1.
          5    1    1    2  502    0 -0.20902128542E+03  0.64408696773E+01 -0.52793298938E+03  0.56785746120E+03  0.41800000000E+01 0.  1.
         -5    1    1    2    0  502  0.22557674526E+01 -0.13906043763E+02 -0.17261506123E+03  0.17323942480E+03  0.41800000000E+01 0.  1.
        -11    1    1    2    0    0  0.17929900600E+03 -0.37009788930E+01 -0.72535058448E+03  0.74719160944E+03  0.00000000000E+00 0. -1.
         11    1    1    2    0    0  0.27466511970E+02  0.11166152979E+02 -0.47958098439E+02  0.56383255121E+02  0.00000000000E+00 0.  1.
</event>
<event>
 6    1  0.4988969E-006  0.2178903E+03  0.7561462E-02  0.1135466E+00
         -2   -1    0    0    0  501 -0.00000000000E+00  0.00000000000E+00  0.26075219573E+02  0.26075219573E+02  0.00000000000E+00 0.  1.
          2   -1    0    0  501    0  0.00000000000E+00 -0.00000000000E+00 -0.19380957367E+04  0.19380957367E+04  0.00000000000E+00 0. -1.
          5    1    1    2  502    0  0.12743335209E+03 -0.51123876251E+02 -0.51435143226E+03  0.53237935555E+03  0.41800000000E+01 0.  1.
         -5    1    1    2    0  502  0.11563463192E+02 -0.86756599906E+02 -0.55931228398E+03  0.56613436985E+03  0.41800000000E+01 0.  1.
        -11    1    1    2    0    0 -0.47723549411E+02  0.10218977387E+03 -0.35574923617E+03  0.37319941866E+03  0.00000000000E+00 0. -1.
         11    1    1    2    0    0 -0.91273265874E+02  0.35690702285E+02 -0.48260756476E+03  0.49245781226E+03  0.00000000000E+00 0.  1.
</event>
<event>
 6    1  0.4988969E-006  0.1443210E+03  0.7561462E-02  0.1207630E+00
          2   -1    0    0  501    0  0.00000000000E+00  0.00000000000E+00  0.47001956361E+03  0.47001956361E+03  0.00000000000E+00 0. -1.
         -2   -1    0    0    0  501 -0.00000000000E+00 -0.00000000000E+00 -0.44760112344E+02  0.44760112344E+02  0.00000000000E+00 0.  1.
          5    1    1    2  502    0 -0.11852250848E+03 -0.19722812349E+02  0.16963391981E+03  0.20791756417E+03  0.41800000000E+01 0.  1.
         -5    1    1    2    0  502  0.31510026472E+02 -0.16938862457E+02  0.40018962488E+02  0.53840473514E+02  0.41800000000E+01 0.  1.
        -11    1    1    2    0    0  0.40324835108E+02  0.65938472497E+02  0.12778972126E+03  0.14934586483E+03  0.00000000000E+00 0. -1.
         11    1    1    2    0    0  0.46687646899E+02 -0.29276797691E+02  0.87816847707E+02  0.10367577343E+03  0.00000000000E+00 0.  1.
</event>
<event>
 6    1  0.4988969E-006  0.2393976E+03  0.7561462E-02  0.1120195E+00
          1   -1    0    0  501    0  0.00000000000E+00  0.00000000000E+00  0.24494876423E+03  0.24494876423E+03  0.00000000000E+00 0. -1.
         -1   -1    0    0    0  501 -0.00000000000E+00 -0.00000000000E+00 -0.28153103352E+03  0.28153103352E+03  0.00000000000E+00 0.  1.
          5    1    1    2  502    0  0.16137042714E+02  0.40729807004E+02  0.29177330047E+02  0.52802559738E+02  0.41800000000E+01 0.  1.
         -5    1    1    2    0  502  0.17545022562E+03  0.84353075938E+02 -0.92334152797E+02  0.21550241591E+03  0.41800000000E+01 0.  1.
        -11    1    1    2    0    0 -0.11350577282E+03 -0.30723453738E+02  0.58882406184E+02  0.13150904467E+03  0.00000000000E+00 0.  1.
         11    1    1    2    0    0 -0.78081495520E+02 -0.94359429205E+02 -0.32307852724E+02  0.12666577742E+03  0.00000000000E+00 0. -1.
</event>
<event>
 6    1  0.4988969E-006  0.2087652E+03  0.7561462E-02  0.1142548E+00
          1   -1    0    0  501    0  0.00000000000E+00  0.00000000000E+00  0.21427046012E+03  0.21427046012E+03  0.00000000000E+00 0. -1.
         -1   -1    0    0    0  501 -0.00000000000E+00 -0.00000000000E+00 -0.26579974698E+03  0.26579974698E+03  0.00000000000E+00 0.  1.
          5    1    1    2  502    0 -0.12360393341E+03  0.14664917148E+03 -0.10340884643E+03  0.21793295705E+03  0.41800000000E+01 0.  1.
         -5    1    1    2    0  502 -0.14634861091E+01  0.18222019044E+02  0.29469711181E+02  0.34930216814E+02  0.41800000000E+01 0.  1.
        -11    1    1    2    0    0  0.93540798609E+02 -0.12366710844E+03 -0.24837020065E+02  0.15703602223E+03  0.00000000000E+00 0.  1.
         11    1    1    2    0    0  0.31526620907E+02 -0.41204082089E+02  0.47246868452E+02  0.70171011003E+02  0.00000000000E+00 0. -1.
</event>
<event>
 6    1  0.4988969E-006  0.1119581E+03  0.7561462E-02  0.1256986E+00
         -1   -1    0    0    0  501 -0.00000000000E+00  0.00000000000E+00  0.34473785436E+03  0.34473785436E+03  0.00000000000E+00 0.  1.
          1   -1    0    0  501    0  0.00000000000E+00 -0.00000000000E+00 -0.16375285352E+03  0.16375285352E+03  0.00000000000E+00 0. -1.
          5    1    1    2  502    0 -0.15300889763E+01  0.25595196947E+02  0.25632663390E+02  0.36496042409E+02  0.41800000000E+01 0. -1.
         -5    1    1    2    0  502  0.48972858419E+02 -0.89063171874E+02  0.28044606059E+03  0.29832541753E+03  0.41800000000E+01 0.  1.
        -11    1    1    2    0    0 -0.52753482728E+02  0.26818382726E+02 -0.12309662499E+03  0.13658306878E+03  0.00000000000E+00 0. -1.
         11    1    1    2    0    0  0.53107132855E+01  0.36649592201E+02 -0.19970981491E+01  0.37086179166E+02  0.00000000000E+00 0.  1.
</event>
<event>
 6    1  0.4988969E-006  0.1117594E+03  0.7561462E-02  0.1257346E+00
         -2   -1    0    0    0  501 -0.00000000000E+00  0.00000000000E+00  0.47849358260E+02  0.47849358260E+02  0.00000000000E+00 0.  1.
          2   -1    0    0  501    0  0.00000000000E+00 -0.00000000000E+00 -0.27986362781E+03  0.27986362781E+03  0.00000000000E+00 0. -1.
          5    1    1    2  502    0 -0.79892911672E+02 -0.21777438992E+02 -0.73299062145E+02  0.11066778707E+03  0.41800000000E+01 0.  1.
         -5    1    1    2    0  502  0.46493603308E+02  0.77394767210E+01 -0.41806485213E+02  0.63141185089E+02  0.41800000000E+01 0.  1.
        -11    1    1    2    0    0  0.15530101796E+02 -0.36508929731E+02 -0.78489123515E+02  0.87946736847E+02  0.00000000000E+00 0. -1.
         11    1    1    2    0    0  0.17869206568E+02  0.50546892003E+02 -0.38419598675E+02  0.65957277058E+02  0.00000000000E+00 0.  1.
</event>
<event>
 6    1  0.4988969E-006  0.7801897E+02  0.7561462E-02  0.1334769E+00
          2   -1    0    0  501    0  0.00000000000E+00  0.00000000000E+00  0.14966234628E+03  0.14966234628E+03  0.00000000000E+00 0. -1.
         -2   -1    0    0    0  501 -0.00000000000E+00 -0.00000000000E+00 -0.81848818201E+02  0.81848818201E+02  0.00000000000E+00 0.  1.
          5    1    1    2  502    0  0.35342277553E+02 -0.22789900982E+02  0.53587470112E+02  0.68246212513E+02  0.41800000000E+01 0. -1.
         -5    1    1    2    0  502 -0.29034093643E+02  0.22205104882E+02 -0.44020126507E+02  0.57369758707E+02  0.41800000000E+01 0. -1.
        -11    1    1    2    0    0 -0.18214085880E+02 -0.35004410094E+02  0.36268584861E+01  0.39625947976E+02  0.00000000000E+00 0.  1.
         11    1    1    2    0    0  0.11905901969E+02  0.35589206194E+02  0.54619325988E+02  0.66269245285E+02  0.00000000000E+00 0. -1.
</event>
<event>
 6    1  0.4988969E-006  0.8382262E+02  0.7561462E-02  0.1318541E+00
          1   -1    0    0  501    0  0.00000000000E+00  0.00000000000E+00  0.22047544617E+03  0.22047544617E+03  0.00000000000E+00 0. -1.
         -1   -1    0    0    0  501 -0.00000000000E+00 -0.00000000000E+00 -0.68808174456E+02  0.68808174456E+02  0.00000000000E+00 0.  1.
          5    1    1    2  502    0 -0.92472413581E+01 -0.52130145581E+02 -0.31912388075E+02  0.61959151573E+02  0.41800000000E+01 0.  1.
         -5    1    1    2    0  502 -0.10073929042E+02  0.58170951651E+01  0.80296926559E+02  0.81242793264E+02  0.41800000000E+01 0.  1.
        -11    1    1    2    0    0 -0.12053159859E+02  0.64698087298E+02  0.55862075322E+02  0.86323187046E+02  0.00000000000E+00 0.  1.
         11    1    1    2    0    0  0.31374330259E+02 -0.18385036882E+02  0.47420657905E+02  0.59758488740E+02  0.00000000000E+00 0. -1.
</event>
<event>
 6    1  0.4988969E-006  0.1139476E+03  0.7561462E-02  0.1253429E+00
         -1   -1    0    0    0  501 -0.00000000000E+00  0.00000000000E+00  0.39012441593E+02  0.39012441593E+02  0.00000000000E+00 0.  1.
          1   -1    0    0  501    0  0.00000000000E+00 -0.00000000000E+00 -0.50618602055E+03  0.50618602055E+03  0.00000000000E+00 0. -1.
          5    1    1    2  502    0  0.40523779500E+02 -0.69328094183E+01 -0.65746393914E+02  0.77655014417E+02  0.41800000000E+01 0.  1.
         -5    1    1    2    0  502 -0.89615877906E+02 -0.56482494510E+02 -0.11719838939E+03  0.15803231516E+03  0.41800000000E+01 0.  1.
        -11    1    1    2    0    0  0.21295924334E+02  0.21486021433E+02 -0.11791978818E+02  0.32468696844E+02  0.00000000000E+00 0.  1.
         11    1    1    2    0    0  0.27796174072E+02  0.41929282495E+02 -0.27243681684E+03  0.27704243572E+03  0.00000000000E+00 0. -1.
</event>
<event>
 6    1  0.4988969E-006  0.9494453E+02  0.7561462E-02  0.1291301E+00
          2   -1    0    0  501    0  0.00000000000E+00  0.00000000000E+00  0.32476810835E+03  0.32476810835E+03  0.00000000000E+00 0. -1.
         -2   -1    0    0    0  501 -0.00000000000E+00 -0.00000000000E+00 -0.48149714933E+02  0.48149714933E+02  0.00000000000E+00 0.  1.
          5    1    1    2  502    0  0.23002134187E+02 -0.68542140386E+02  0.96405635994E+02  0.12057629219E+03  0.41800000000E+01 0. -1.
         -5    1    1    2    0  502  0.79511321491E+01  0.37689245553E+02 -0.68586943674E+01  0.39347348338E+02  0.41800000000E+01 0. -1.
        -11    1    1    2    0    0 -0.44315683986E+02 -0.84658909777E+00  0.33346093169E+02  0.55466733182E+02  0.00000000000E+00 0.  1.
         11    1    1    2    0    0  0.13362417651E+02  0.31699483931E+02  0.15372535862E+03  0.15752744957E+03  0.00000000000E+00 0. -1.
</event>
<event>
 6    1  0.4988969E-006  0.9676341E+02  0.7561462E-02  0.1287253E+00
         -1   -1    0    0    0  501 -0.00000000000E+00  0.00000000000E+00  0.54556175103E+02  0.54556175103E+02  0.00000000000E+00 0.  1.
          1   -1    0    0  501    0  0.00000000000E+00 -0.00000000000E+00 -0.35081225795E+03  0.35081225795E+03  0.00000000000E+00 0. -1.
          5    1    1    2  502    0  0.60665592714E+01 -0.41671492877E+02 -0.13962853026E+03  0.14590036095E+03  0.41800000000E+01 0. -1.
         -5    1    1    2    0  502 -0.33970373459E+01 -0.37497126257E+02  0.21714663642E+02  0.43664325912E+02  0.41800000000E+01 0.  1.
        -11    1    1    2    0    0  0.38104603671E+02  0.51447986749E+02 -0.13789008983E+03  0.15202806660E+03  0.00000000000E+00 0.  1.
         11    1    1    2    0    0 -0.40774125597E+02  0.27720632385E+02 -0.40452126398E+02  0.63775679598E+02  0.00000000000E+00 0. -1.
</event>
<event>
 6    1  0.4988969E-006  0.1240200E+03  0.7561462E-02  0.1236609E+00
          1   -1    0    0  501    0  0.00000000000E+00  0.00000000000E+00  0.42575525972E+03  0.42575525972E+03  0.00000000000E+00 0. -1.
         -1   -1    0    0    0  501 -0.00000000000E+00 -0.00000000000E+00 -0.68122484854E+02  0.68122484854E+02  0.00000000000E+00 0.  1.
          5    1    1    2  502    0  0.20316326140E+02  0.33247606112E+02  0.28037633971E+02  0.48184413856E+02  0.41800000000E+01 0. -1.
         -5    1    1    2    0  502 -0.95997514718E+02 -0.23213966310E+02  0.36270101897E+01  0.98919354359E+02  0.41800000000E+01 0.  1.
        -11    1    1    2    0    0  0.36619033323E+02  0.34813377150E+02  0.21517170182E+03  0.22102440158E+03  0.00000000000E+00 0. -1.
         11    1    1    2    0    0  0.39062155255E+02 -0.44847016952E+02  0.11079642888E+03  0.12574957477E+03  0.00000000000E+00 0.  1.
</event>
<event>
 6    1  0.4988969E-006  0.2395352E+03  0.7561462E-02  0.1120103E+00
          2   -1    0    0  501    0  0.00000000000E+00  0.00000000000E+00  0.17154539649E+04  0.17154539649E+04  0.00000000000E+00 0. -1.
         -2   -1    0    0    0  501 -0.00000000000E+00 -0.00000000000E+00 -0.44056669410E+02  0.44056669410E+02  0.00000000000E+00 0.  1.
          5    1    1    2  502    0 -0.12271843668E+02  0.11783671589E+02  0.23458123571E+02  0.29278132191E+02  0.41800000000E+01 0. -1.
         -5    1    1    2    0  502  0.20844093817E+03 -0.95662667875E+02  0.40204302931E+03  0.46287691728E+03  0.41800000000E+01 0. -1.
        -11    1    1    2    0    0 -0.11988080518E+03  0.14987349496E+01  0.65849373493E+03  0.66931879743E+03  0.00000000000E+00 0.  1.
         11    1    1    2    0    0 -0.76288289326E+02  0.82380261337E+02  0.58740240763E+03  0.59803678736E+03  0.00000000000E+00 0. -1.
</event>
<event>
 6    1  0.4988969E-006  0.9669196E+02  0.7561462E-02  0.1287410E+00
          2   -1    0    0  501    0  0.00000000000E+00  0.00000000000E+00  0.64565090183E+03  0.64565090183E+03  0.00000000000E+00 0. -1.
         -2   -1    0    0    0  501 -0.00000000000E+00 -0.00000000000E+00 -0.50817162144E+02  0.50817162144E+02  0.00000000000E+00 0.  1.
          5    1    1    2  502    0  0.33400201804E+02  0.40718791819E+02 -0.26547631696E+02  0.59125651256E+02  0.41800000000E+01 0.  1.
         -5    1    1    2    0  502 -0.11664806242E+02  0.25513593030E+02  0.95877995958E+02  0.99985367144E+02  0.41800000000E+01 0.  1.
        -11    1    1    2    0    0  0.71555273781E+00  0.21560253801E+02  0.10779593838E+03  0.10993325653E+03  0.00000000000E+00 0.  1.
         11    1    1    2    0    0 -0.22450948300E+02 -0.87792638650E+02  0.41770743704E+03  0.42742378904E+03  0.00000000000E+00 0. -1.
</event>
<event>
 6    1  0.6842920E-006  0.1295075E+03  0.7561462E-02  0.1228188E+00
         -1   -1    0    0    0  501 -0.00000000000E+00  0.00000000000E+00  0.36778472108E+02  0.36778472108E+02  0.00000000000E+00 0.  1.
          1   -1    0    0  501    0  0.00000000000E+00 -0.00000000000E+00 -0.74062871033E+03  0.74062871033E+03  0.00000000000E+00 0. -1.
          5    1    1    2  502    0 -0.74907395596E+02 -0.77774012555E+02 -0.12840794423E+03  0.16782725489E+03  0.41800000000E+01 0. -1.
         -5    1    1    2    0  502 -0.25633154892E+02  0.54218720944E+01 -0.22952531218E+03  0.23105366618E+03  0.41800000000E+01 0. -1.
        -11    1    1    2    0    0  0.71977545875E+02  0.45079108940E+02 -0.10819685762E+03  0.13754800315E+03  0.00000000000E+00 0.  1.
         11    1    1    2    0    0  0.28563004613E+02  0.27273031520E+02 -0.23772012420E+03  0.24097825821E+03  0.00000000000E+00 0. -1.
</event>
<event>
 6    1  0.4988969E-006  0.1107290E+03  0.7561462E-02  0.1259226E+00
          2   -1    0    0  501    0  0.00000000000E+00  0.00000000000E+00  0.23662960251E+02  0.23662960251E+02  0.00000000000E+00 0. -1.
         -2   -1    0    0    0  501 -0.00000000000E+00 -0.00000000000E+00 -0.62991049322E+03  0.62991049322E+03  0.00000000000E+00 0.  1.
          5    1    1    2  502    0  0.23456492370E+01  0.41433726155E+02 -0.10932902057E+03  0.11701522496E+03  0.41800000000E+01 0. -1.
         -5    1    1    2    0  502 -0.25765203739E+02 -0.90808214353E+02 -0.28930360537E+03  0.30434195570E+03  0.41800000000E+01 0. -1.
        -11    1    1    2    0    0  0.39060076534E+02  0.64648962221E+01 -0.16523242344E+03  0.16990950008E+03  0.00000000000E+00 0.  1.
         11    1    1    2    0    0 -0.15640522032E+02  0.42909591976E+02 -0.42382483580E+02  0.62306772725E+02  0.00000000000E+00 0. -1.
</event>
<event>
 6    1  0.9737888E-006  0.1615897E+03  0.7561462E-02  0.1186914E+00
         -1   -1    0    0    0  501 -0.00000000000E+00  0.00000000000E+00  0.44083542861E+02  0.44083542861E+02  0.00000000000E+00 0.  1.
          1   -1    0    0  501    0  0.00000000000E+00 -0.00000000000E+00 -0.90695735966E+03  0.90695735966E+03  0.00000000000E+00 0. -1.
          5    1    1    2  502    0  0.11888018983E+02  0.32577204705E+02 -0.21422473474E+03  0.21705369989E+03  0.41800000000E+01 0.  1.
         -5    1    1    2    0  502  0.40613046702E+02  0.11853354920E+03 -0.11709150947E+03  0.17154450104E+03  0.41800000000E+01 0.  1.
        -11    1    1    2    0    0 -0.35972451124E+01 -0.54314420585E+02 -0.71990633304E+02  0.90253242265E+02  0.00000000000E+00 0.  1.
         11    1    1    2    0    0 -0.48903820573E+02 -0.96796333319E+02 -0.45956693928E+03  0.47218945932E+03  0.00000000000E+00 0. -1.
</event>
<event>
 6    1  0.4988969E-006  0.4943116E+02  0.7561462E-02  0.1448434E+00
          1   -1    0    0  501    0  0.00000000000E+00  0.00000000000E+00  0.31072633572E+02  0.31072633572E+02  0.00000000000E+00 0. -1.
         -1   -1    0    0    0  501 -0.00000000000E+00 -0.00000000000E+00 -0.39553047678E+03  0.39553047678E+03  0.00000000000E+00 0.  1.
          5    1    1    2  502    0  0.14586948687E+02  0.24390411278E+02  0.20902759887E+01  0.28801265389E+02  0.41800000000E+01 0.  1.
         -5    1    1    2    0  502  0.95396096579E+00 -0.22435788967E+02 -0.23451029080E+03  0.23562008310E+03  0.41800000000E+01 0.  1.
        -11    1    1    2    0    0  0.10374372526E+02  0.13573318600E+02  0.80412438964E+01  0.18881848070E+02  0.00000000000E+00 0. -1.
         11    1    1    2    0    0 -0.25915282179E+02 -0.15527940912E+02 -0.14007907230E+03  0.14329991380E+03  0.00000000000E+00 0.  1.
</event>
<event>
 6    1  0.4988969E-006  0.9751367E+02  0.7561462E-02  0.1285613E+00
          2   -1    0    0  501    0  0.00000000000E+00  0.00000000000E+00  0.27554011112E+03  0.27554011112E+03  0.00000000000E+00 0. -1.
         -2   -1    0    0    0  501 -0.00000000000E+00 -0.00000000000E+00 -0.49458371915E+02  0.49458371915E+02  0.00000000000E+00 0.  1.
          5    1    1    2  502    0 -0.24001769003E+01 -0.73292085400E+02  0.60754736388E+02  0.95321041880E+02  0.41800000000E+01 0.  1.
         -5    1    1    2    0  502 -0.26081863077E+02  0.45897086535E+02  0.90878369585E+02  0.10518154112E+03  0.41800000000E+01 0.  1.
        -11    1    1    2    0    0 -0.16171684400E+02 -0.11829619385E+00  0.70016141658E+02  0.71859567651E+02  0.00000000000E+00 0. -1.
         11    1    1    2    0    0  0.44653724377E+02  0.27513295059E+02  0.44324915789E+01  0.52636332389E+02  0.00000000000E+00 0.  1.
</event>
<event>
 6    1  0.4988969E-006  0.2082089E+03  0.7561462E-02  0.1142992E+00
          4   -1    0    0  501    0  0.00000000000E+00  0.00000000000E+00  0.21477308000E+03  0.21477308000E+03  0.00000000000E+00 0. -1.
         -4   -1    0    0    0  501 -0.00000000000E+00 -0.00000000000E+00 -0.21091382040E+03  0.21091382040E+03  0.00000000000E+00 0.  1.
          5    1    1    2  502    0 -0.68357708357E+02 -0.68975539800E+02  0.37051432057E+02  0.10402250910E+03  0.41800000000E+01 0. -1.
         -5    1    1    2    0  502 -0.79172476341E+02  0.11520229512E+03 -0.43768427284E+01  0.13991597108E+03  0.41800000000E+01 0.  1.
        -11    1    1    2    0    0  0.89451500942E+02  0.19611417292E+02 -0.17414720665E+02  0.93217225902E+02  0.00000000000E+00 0.  1.
         11    1    1    2    0    0  0.58078683755E+02 -0.65838172612E+02 -0.11400609060E+02  0.88531194313E+02  0.00000000000E+00 0. -1.
</event>
<event>
 6    1  0.4988969E-006  0.1059703E+03  0.7561462E-02  0.1268220E+00
         -1   -1    0    0    0  501 -0.00000000000E+00  0.00000000000E+00  0.17795250556E+03  0.17795250556E+03  0.00000000000E+00 0.  1.
          1   -1    0    0  501    0  0.00000000000E+00 -0.00000000000E+00 -0.12748948587E+03  0.12748948587E+03  0.00000000000E+00 0. -1.
          5    1    1    2  502    0 -0.48966475073E+02  0.12739530629E+02  0.39137725393E+02  0.64103395157E+02  0.41800000000E+01 0.  1.
         -5    1    1    2    0  502  0.43990879298E+02 -0.79873091357E+02  0.68234473629E+02  0.11396632825E+03  0.41800000000E+01 0.  1.
        -11    1    1    2    0    0 -0.52672211568E+01  0.47061604926E+02 -0.81349340860E+02  0.94128919761E+02  0.00000000000E+00 0. -1.
         11    1    1    2    0    0  0.10242816932E+02  0.20071955802E+02  0.24440161528E+02  0.33243348266E+02  0.00000000000E+00 0.  1.
</event>
<event>
 6    1  0.4988969E-006  0.1896242E+03  0.7561462E-02  0.1158801E+00
         -1   -1    0    0    0  501 -0.00000000000E+00  0.00000000000E+00  0.76162468725E+02  0.76162468725E+02  0.00000000000E+00 0.  1.
          1   -1    0    0  501    0  0.00000000000E+00 -0.00000000000E+00 -0.54248655421E+03  0.54248655421E+03  0.00000000000E+00 0. -1.
          5    1    1    2  502    0 -0.10098953167E+03  0.81321909395E+02 -0.68811487905E+02  0.14684900994E+03  0.41800000000E+01 0. -1.
         -5    1    1    2    0  502  0.16589167818E+02  0.60546499834E+02 -0.11025802581E+03  0.12694638154E+03  0.41800000000E+01 0. -1.
        -11    1    1    2    0    0 -0.16136445573E+02 -0.41562810965E+02 -0.40940569429E+02  0.60530838060E+02  0.00000000000E+00 0.  1.
         11    1    1    2    0    0  0.10053680942E+03 -0.10030559826E+03 -0.24631400235E+03  0.28432279339E+03  0.00000000000E+00 0. -1.
</event>
<event>
 6    1  0.4988969E-006  0.1064973E+03  0.7561462E-02  0.1267197E+00
          2   -1    0    0  501    0  0.00000000000E+00  0.00000000000E+00  0.59604331494E+02  0.59604331494E+02  0.00000000000E+00 0. -1.
         -2   -1    0    0    0  501 -0.00000000000E+00 -0.00000000000E+00 -0.40799928615E+03  0.40799928615E+03  0.00000000000E+00 0.  1.
          5    1    1    2  502    0  0.87060680617E+00  0.52338841912E+02 -0.75727751284E+02  0.92153551442E+02  0.41800000000E+01 0. -1.
         -5    1    1    2    0  502  0.70910658973E+02 -0.36333160973E+02 -0.24301224884E+03  0.25577499023E+03  0.41800000000E+01 0.  1.
        -11    1    1    2    0    0 -0.46951786374E+02 -0.26300623350E+02 -0.59015589802E+02  0.79868847944E+02  0.00000000000E+00 0.  1.
         11    1    1    2    0    0 -0.24829479405E+02  0.10294942411E+02  0.29360635264E+02  0.39806228029E+02  0.00000000000E+00 0. -1.
</event>
<event>
 6    1  0.4988969E-006  0.8918343E+02  0.7561462E-02  0.1304841E+00
         -4   -1    0    0    0  501 -0.00000000000E+00  0.00000000000E+00  0.23038757002E+03  0.23038757002E+03  0.00000000000E+00 0.  1.
          4   -1    0    0  501    0  0.00000000000E+00 -0.00000000000E+00 -0.42358764708E+02  0.42358764708E+02  0.00000000000E+00 0. -1.
          5    1    1    2  502    0 -0.39178953881E+02  0.63318951366E+02  0.12771574901E+03  0.14789545285E+03  0.41800000000E+01 0.  1.
         -5    1    1    2    0  502  0.12665702625E+02 -0.40626896804E+02  0.15618747798E+02  0.45523427482E+02  0.41800000000E+01 0.  1.
        -11    1    1    2    0    0  0.36961844227E+02 -0.30552366291E+02  0.21182154937E+02  0.52424314039E+02  0.00000000000E+00 0. -1.
         11    1    1    2    0    0 -0.10448592971E+02  0.78603117291E+01  0.23512153568E+02  0.26903140355E+02  0.00000000000E+00 0.  1.
</event>
<event>
 6    1  0.4988969E-006  0.1001693E+03  0.7561462E-02  0.1279940E+00
         -1   -1    0    0    0  501 -0.00000000000E+00  0.00000000000E+00  0.16923637117E+02  0.16923637117E+02  0.00000000000E+00 0.  1.
          1   -1    0    0  501    0  0.00000000000E+00 -0.00000000000E+00 -0.76399779872E+03  0.76399779872E+03  0.00000000000E+00 0. -1.
          5    1    1    2  502    0 -0.15775270059E+01  0.68762863345E+02 -0.16257177555E+03  0.17657257593E+03  0.41800000000E+01 0.  1.
         -5    1    1    2    0  502  0.26877673437E+02 -0.43960580304E+02 -0.27862802388E+03  0.28338311531E+03  0.41800000000E+01 0.  1.
        -11    1    1    2    0    0 -0.92921734369E+01 -0.49466478916E+02 -0.26966267801E+03  0.27431958905E+03  0.00000000000E+00 0. -1.
         11    1    1    2    0    0 -0.16007972994E+02  0.24664195875E+02 -0.36211684167E+02  0.46646155552E+02  0.00000000000E+00 0.  1.
</event>
<event>
 6    1  0.4988969E-006  0.8247898E+02  0.7561462E-02  0.1322160E+00
         -1   -1    0    0    0  501 -0.00000000000E+00  0.00000000000E+00  0.74016271431E+02  0.74016271431E+02  0.00000000000E+00 0.  1.
          1   -1    0    0  501    0  0.00000000000E+00 -0.00000000000E+00 -0.22240633565E+03  0.22240633565E+03  0.00000000000E+00 0. -1.
          5    1    1    2  502    0 -0.20558132443E+02  0.35705579150E+02  0.16872045020E+02  0.44717597153E+02  0.41800000000E+01 0.  1.
         -5    1    1    2    0  502  0.13612330829E+02 -0.25877809932E+02 -0.10424184040E+03  0.10834569806E+03  0.41800000000E+01 0.  1.
        -11    1    1    2    0    0 -0.32217577668E+02 -0.34907742530E+02 -0.80072146110E+02  0.93102477851E+02  0.00000000000E+00 0. -1.
         11    1    1    2    0    0  0.39163379282E+02  0.25079973313E+02  0.19051877270E+02  0.50256834019E+02  0.00000000000E+00 0.  1.
</event>
<event>
 6    1  0.4988969E-006  0.1211728E+03  0.7561462E-02  0.1241175E+00
         -2   -1    0    0    0  501 -0.00000000000E+00  0.00000000000E+00  0.96696156866E+03  0.96696156866E+03  0.00000000000E+00 0. -1.
          2   -1    0    0  501    0  0.00000000000E+00 -0.00000000000E+00 -0.40288334842E+02  0.40288334842E+02  0.00000000000E+00 0.  1.
          5    1    1    2  502    0 -0.43017764471E+02  0.67356359329E+02  0.20360031898E+03  0.21876464406E+03  0.41800000000E+01 0.  1.
         -5    1    1    2    0  502  0.10448942836E+02  0.30378763687E+02  0.60751289521E+03  0.60837606785E+03  0.41800000000E+01 0.  1.
        -11    1    1    2    0    0 -0.21224420881E+02 -0.61500645554E+02  0.27240092340E+02  0.70532461151E+02  0.00000000000E+00 0.  1.
         11    1    1    2    0    0  0.53793242516E+02 -0.36234477463E+02  0.88319927289E+02  0.10957673044E+03  0.00000000000E+00 0. -1.
</event>
<event>
 6    1  0.4988969E-006  0.1596860E+03  0.7561462E-02  0.1189052E+00
          1   -1    0    0  501    0  0.00000000000E+00  0.00000000000E+00  0.99990181545E+02  0.99990181545E+02  0.00000000000E+00 0. -1.
         -1   -1    0    0    0  501 -0.00000000000E+00 -0.00000000000E+00 -0.52263164833E+03  0.52263164833E+03  0.00000000000E+00 0.  1.
          5    1    1    2  502    0  0.16141727753E+02  0.19688439349E+02 -0.58311594076E+02  0.63764444815E+02  0.41800000000E+01 0. -1.
         -5    1    1    2    0  502 -0.92214064286E+02 -0.12092954020E+03 -0.37404821965E+03  0.40380308365E+03  0.41800000000E+01 0. -1.
        -11    1    1    2    0    0  0.96015567876E+01  0.65045549191E+02  0.35967320288E+02  0.74945056482E+02  0.00000000000E+00 0. -1.
         11    1    1    2    0    0  0.66470779746E+02  0.36195551662E+02 -0.26248973345E+02  0.80109244921E+02  0.00000000000E+00 0.  1.
</event>
<event>
 6    1  0.4988969E-006  0.1219968E+03  0.7561462E-02  0.1239839E+00
         -1   -1    0    0    0  501 -0.00000000000E+00  0.00000000000E+00  0.14756870780E+02  0.14756870780E+02  0.00000000000E+00 0.  1.
          1   -1    0    0  501    0  0.00000000000E+00 -0.00000000000E+00 -0.11883225193E+04  0.11883225193E+04  0.00000000000E+00 0. -1.
          5    1    1    2  502    0  0.60127047090E+02 -0.41595897718E+02 -0.58581720261E+03  0.59037678458E+03  0.41800000000E+01 0. -1.
         -5    1    1    2    0  502  0.99536473638E+01  0.55653531375E+02 -0.17082346795E+03  0.17998477783E+03  0.41800000000E+01 0.  1.
        -11    1    1    2    0    0  0.17597552359E+02  0.13482433627E+02 -0.54824313044E+02  0.59136749710E+02  0.00000000000E+00 0. -1.
         11    1    1    2    0    0 -0.87678246813E+02 -0.27540067283E+02 -0.36210066488E+03  0.37358107792E+03  0.00000000000E+00 0.  1.
</event>
<event>
 6    1  0.4988969E-006  0.1293867E+03  0.7561462E-02  0.1228369E+00
         -3   -1    0    0    0  501 -0.00000000000E+00  0.00000000000E+00  0.18110119651E+03  0.18110119651E+03  0.00000000000E+00 0.  1.
          3   -1    0    0  501    0  0.00000000000E+00 -0.00000000000E+00 -0.11106497521E+03  0.11106497521E+03  0.00000000000E+00 0. -1.
          5    1    1    2  502    0 -0.43468995765E+02  0.24107437530E+02 -0.12333093763E+02  0.51383847062E+02  0.41800000000E+01 0.  1.
         -5    1    1    2    0  502 -0.23272878297E+02 -0.80333947503E+02  0.78804152724E+02  0.11499015989E+03  0.41800000000E+01 0.  1.
        -11    1    1    2    0    0 -0.18274632502E+02  0.31828854775E+02 -0.45015764755E+01  0.36977052075E+02  0.00000000000E+00 0.  1.
         11    1    1    2    0    0  0.85016506564E+02  0.24397655198E+02  0.80667388202E+01  0.88815112693E+02  0.00000000000E+00 0. -1.
</event>
<event>
 6    1  0.4988969E-006  0.1249926E+03  0.7561462E-02  0.1235081E+00
          2   -1    0    0  501    0  0.00000000000E+00  0.00000000000E+00  0.65988993885E+03  0.65988993885E+03  0.00000000000E+00 0. -1.
         -2   -1    0    0    0  501 -0.00000000000E+00 -0.00000000000E+00 -0.38059292323E+02  0.38059292323E+02  0.00000000000E+00 0.  1.
          5    1    1    2  502    0  0.27173746908E+02  0.16735320191E+02  0.21442304573E+03  0.21682527159E+03  0.41800000000E+01 0. -1.
         -5    1    1    2    0  502  0.82582132970E+02  0.35232593647E+01  0.51334590009E+02  0.97390628778E+02  0.41800000000E+01 0. -1.
        -11    1    1    2    0    0 -0.26486900759E+02 -0.41379127846E+02  0.19601985733E+03  0.20208308341E+03  0.00000000000E+00 0.  1.
         11    1    1    2    0    0 -0.83268979120E+02  0.21120548290E+02  0.16005315345E+03  0.18165024738E+03  0.00000000000E+00 0. -1.
</event>
<event>
 6    1  0.4988969E-006  0.1273954E+03  0.7561462E-02  0.1231372E+00
         -1   -1    0    0    0  501 -0.00000000000E+00  0.00000000000E+00  0.17235896934E+03  0.17235896934E+03  0.00000000000E+00 0.  1.
          1   -1    0    0  501    0  0.00000000000E+00 -0.00000000000E+00 -0.14770096787E+03  0.14770096787E+03  0.00000000000E+00 0. -1.
          5    1    1    2  502    0 -0.27431904437E+01 -0.17641653287E+00 -0.34781370014E+02  0.35139327209E+02  0.41800000000E+01 0.  1.
         -5    1    1    2    0  502  0.54961763358E+01  0.11000020874E+03  0.83662136775E+02  0.13837297209E+03  0.41800000000E+01 0.  1.
        -11    1    1    2    0    0 -0.37210357254E+02 -0.95061609583E+02 -0.31329712822E+00  0.10208534889E+03  0.00000000000E+00 0.  1.
         11    1    1    2    0    0  0.34457371361E+02 -0.14762182620E+02 -0.23909468157E+02  0.44462289014E+02  0.00000000000E+00 0. -1.
</event>
<event>
 6    1  0.4988969E-006  0.1162618E+03  0.7561462E-02  0.1249395E+00
         -3   -1    0    0    0  501 -0.00000000000E+00  0.00000000000E+00  0.29186452160E+03  0.29186452160E+03  0.00000000000E+00 0.  1.
          3   -1    0    0  501    0  0.00000000000E+00 -0.00000000000E+00 -0.47597687030E+02  0.47597687030E+02  0.00000000000E+00 0. -1.
          5    1    1    2  502    0  0.47038149644E+02  0.22051376649E+02  0.76809408767E+02  0.92822456384E+02  0.41800000000E+01 0. -1.
         -5    1    1    2    0  502 -0.77607540412E+02  0.13066195571E+02  0.67830830266E+02  0.10398148744E+03  0.41800000000E+01 0. -1.
        -11    1    1    2    0    0  0.59760103423E+02 -0.40119778348E+02  0.76873154515E+02  0.10531072339E+03  0.00000000000E+00 0.  1.
         11    1    1    2    0    0 -0.29190712655E+02  0.50022061274E+01  0.22753441019E+02  0.37347541414E+02  0.00000000000E+00 0. -1.
</event>
<event>
 6    1  0.4988969E-006  0.9046408E+02  0.7561462E-02  0.1301732E+00
         -2   -1    0    0    0  501 -0.00000000000E+00  0.00000000000E+00  0.64792231546E+02  0.64792231546E+02  0.00000000000E+00 0.  1.
          2   -1    0    0  501    0  0.00000000000E+00 -0.00000000000E+00 -0.19726605863E+03  0.19726605863E+03  0.00000000000E+00 0. -1.
          5    1    1    2  502    0 -0.54179744084E+02  0.13404409723E+02  0.22722388729E+02  0.60406143881E+02  0.41800000000E+01 0. -1.
         -5    1    1    2    0  502  0.30757144157E+02 -0.14510950477E+02 -0.65294167145E+02  0.73738526319E+02  0.41800000000E+01 0. -1.
        -11    1    1    2    0    0  0.53354910865E+02 -0.16648697562E+02 -0.50308094930E+02  0.75198604106E+02  0.00000000000E+00 0.  1.
         11    1    1    2    0    0 -0.29932310938E+02  0.17755238316E+02 -0.39593953741E+02  0.52715015874E+02  0.00000000000E+00 0. -1.
</event>
<event>
 6    1  0.4988969E-006  0.1280126E+03  0.7561462E-02  0.1230435E+00
         -4   -1    0    0    0  501 -0.00000000000E+00  0.00000000000E+00  0.78834394764E+02  0.78834394764E+02  0.00000000000E+00 0. -1.
          4   -1    0    0  501    0  0.00000000000E+00 -0.00000000000E+00 -0.36808102506E+03  0.36808102506E+03  0.00000000000E+00 0.  1.
          5    1    1    2  502    0  0.61432920415E+02  0.43386231852E+01 -0.46750636352E+02  0.77433337531E+02  0.41800000000E+01 0. -1.
         -5    1    1    2    0  502 -0.71792871827E+01 -0.82128375545E+02  0.11799672360E+02  0.83386551086E+02  0.41800000000E+01 0. -1.
        -11    1    1    2    0    0  0.10161076194E+02  0.29625505226E+02 -0.17205928352E+02  0.35734605074E+02  0.00000000000E+00 0. -1.
         11    1    1    2    0    0 -0.64414709426E+02  0.48164247134E+02 -0.23708973796E+03  0.25036092614E+03  0.00000000000E+00 0.  1.
</event>
<event>
 6    1  0.4988969E-006  0.1214897E+03  0.7561462E-02  0.1240660E+00
          2   -1    0    0  501    0  0.00000000000E+00  0.00000000000E+00  0.88982257263E+02  0.88982257263E+02  0.00000000000E+00 0. -1.
         -2   -1    0    0    0  501 -0.00000000000E+00 -0.00000000000E+00 -0.25483656323E+03  0.25483656323E+03  0.00000000000E+00 0.  1.
          5    1    1    2  502    0 -0.10158940769E+02 -0.35704625177E+02 -0.61860632096E+02  0.72265029854E+02  0.41800000000E+01 0. -1.
         -5    1    1    2    0  502  0.10240947803E+03  0.46854753108E+02 -0.77344865089E+02  0.13668492833E+03  0.41800000000E+01 0. -1.
        -11    1    1    2    0    0 -0.32896743151E+02 -0.44104931171E+01 -0.58434762024E+02  0.67203196146E+02  0.00000000000E+00 0.  1.
         11    1    1    2    0    0 -0.59353794106E+02 -0.67396348141E+01  0.31785953247E+02  0.67665666153E+02  0.00000000000E+00 0. -1.
</event>
<event>
 6    1  0.4988969E-006  0.1144919E+03  0.7561462E-02  0.1252471E+00
          2   -1    0    0  501    0  0.00000000000E+00  0.00000000000E+00  0.11294826387E+03  0.11294826387E+03  0.00000000000E+00 0. -1.
         -2   -1    0    0    0  501 -0.00000000000E+00 -0.00000000000E+00 -0.14429127423E+03  0.14429127423E+03  0.00000000000E+00 0.  1.
          5    1    1    2  502    0 -0.31338625927E+02  0.87066504736E+02 -0.25200097407E+01  0.92663415494E+02  0.41800000000E+01 0.  1.
         -5    1    1    2    0  502  0.41193341663E+02 -0.23089309606E+02 -0.12172001406E+02  0.48945251391E+02  0.41800000000E+01 0.  1.
        -11    1    1    2    0    0  0.24574253064E+02 -0.40162889749E+02 -0.44953892387E+02  0.65098418317E+02  0.00000000000E+00 0.  1.
         11    1    1    2    0    0 -0.34428968801E+02 -0.23814305381E+02  0.28302893183E+02  0.50532452899E+02  0.00000000000E+00 0. -1.
</event>
<event>
 6    1  0.4988969E-006  0.1171150E+03  0.7561462E-02  0.1247934E+00
          1   -1    0    0  501    0  0.00000000000E+00  0.00000000000E+00  0.12819994656E+03  0.12819994656E+03  0.00000000000E+00 0. -1.
         -1   -1    0    0    0  501 -0.00000000000E+00 -0.00000000000E+00 -0.16342967484E+03  0.16342967484E+03  0.00000000000E+00 0.  1.
          5    1    1    2  502    0  0.38260238738E+02 -0.10636322808E+02 -0.42462254286E+02  0.58288014808E+02  0.41800000000E+01 0.  1.
         -5    1    1    2    0  502 -0.71804009690E+02  0.68945240608E+02 -0.53110781519E+02  0.11290478078E+03  0.41800000000E+01 0.  1.
        -11    1    1    2    0    0 -0.15626016710E+02 -0.38691479730E+02  0.21736610268E+01  0.41784300930E+02  0.00000000000E+00 0.  1.
         11    1    1    2    0    0  0.49169787662E+02 -0.19617438070E+02  0.58169646502E+02  0.78652524876E+02  0.00000000000E+00 0. -1.
</event>
<event>
 6    1  0.4988969E-006  0.1005271E+03  0.7561462E-02  0.1279192E+00
          1   -1    0    0  501    0  0.00000000000E+00  0.00000000000E+00  0.45035298991E+03  0.45035298991E+03  0.00000000000E+00 0. -1.
         -1   -1    0    0    0  501 -0.00000000000E+00 -0.00000000000E+00 -0.49124074097E+02  0.49124074097E+02  0.00000000000E+00 0.  1.
          5    1    1    2  502    0 -0.59193614389E+02  0.45193911397E+02  0.59412633161E+01  0.74827432280E+02  0.41800000000E+01 0.  1.
         -5    1    1    2    0  502 -0.96644817549E+01  0.78864392813E+01  0.12605509934E+03  0.12673972780E+03  0.41800000000E+01 0.  1.
        -11    1    1    2    0    0  0.55124589865E+02  0.33534161023E+01  0.20028318692E+03  0.20775784166E+03  0.00000000000E+00 0. -1.
         11    1    1    2    0    0  0.13733506279E+02 -0.56433766781E+02  0.68949366238E+02  0.90152062275E+02  0.00000000000E+00 0.  1.
</event>
<event>
 6    1  0.4988969E-006  0.9322398E+02  0.7561462E-02  0.1295227E+00
          1   -1    0    0  501    0  0.00000000000E+00  0.00000000000E+00  0.14529427516E+03  0.14529427516E+03  0.00000000000E+00 0. -1.
         -1   -1    0    0    0  501 -0.00000000000E+00 -0.00000000000E+00 -0.89271200310E+02  0.89271200310E+02  0.00000000000E+00 0.  1.
          5    1    1    2  502    0 -0.22278064846E+01 -0.46637441790E+02  0.59312667338E+02  0.75600787068E+02  0.41800000000E+01 0. -1.
         -5    1    1    2    0  502  0.98214349391E+01  0.52093857055E+02 -0.25795744208E+02  0.59102650925E+02  0.41800000000E+01 0.  1.
        -11    1    1    2    0    0  0.32156989444E+02  0.21215407737E+02  0.33149192378E+02  0.50823561966E+02  0.00000000000E+00 0.  1.
         11    1    1    2    0    0 -0.39750617899E+02 -0.26671823001E+02 -0.10643040662E+02  0.49038475507E+02  0.00000000000E+00 0. -1.
</event>
<event>
 6    1  0.4988969E-006  0.2284907E+03  0.7561462E-02  0.1127707E+00
          1   -1    0    0  501    0  0.00000000000E+00  0.00000000000E+00  0.15581266328E+04  0.15581266328E+04  0.00000000000E+00 0. -1.
         -1   -1    0    0    0  501 -0.00000000000E+00 -0.00000000000E+00 -0.34991695423E+02  0.34991695423E+02  0.00000000000E+00 0.  1.
          5    1    1    2  502    0 -0.16358145420E+03 -0.72156727742E+02  0.56260054101E+03  0.59034085633E+03  0.41800000000E+01 0.  1.
         -5    1    1    2    0  502 -0.41136197105E+02  0.41714292488E+02  0.11519485494E+03  0.12930427647E+03  0.41800000000E+01 0.  1.
        -11    1    1    2    0    0  0.61185301008E+02  0.43814324491E+02  0.31826613878E+03  0.32704230794E+03  0.00000000000E+00 0.  1.
         11    1    1    2    0    0  0.14353235029E+03 -0.13371889237E+02  0.52707340265E+03  0.54643088747E+03  0.00000000000E+00 0. -1.
</event>
<event>
 6    1  0.4988969E-006  0.1106506E+03  0.7561462E-02  0.1259370E+00
         -2   -1    0    0    0  501 -0.00000000000E+00  0.00000000000E+00  0.84898366651E+03  0.84898366651E+03  0.00000000000E+00 0. -1.
          2   -1    0    0  501    0  0.00000000000E+00 -0.00000000000E+00 -0.29628356408E+02  0.29628356408E+02  0.00000000000E+00 0.  1.
          5    1    1    2  502    0 -0.86378196496E+02 -0.10613452556E+01  0.21609218313E+03  0.23275657519E+03  0.41800000000E+01 0.  1.
         -5    1    1    2    0  502  0.42161168659E+02 -0.49615865824E+02  0.55621466900E+03  0.56002814991E+03  0.41800000000E+01 0. -1.
        -11    1    1    2    0    0  0.22925867499E+02  0.39127876245E+02  0.20133536702E+02  0.49617994721E+02  0.00000000000E+00 0.  1.
         11    1    1    2    0    0  0.21291160337E+02  0.11549334835E+02  0.26914921267E+02  0.36209303093E+02  0.00000000000E+00 0. -1.
</event>
<event>
 6    1  0.4988969E-006  0.1889541E+03  0.7561462E-02  0.1159408E+00
         -1   -1    0    0    0  501 -0.00000000000E+00  0.00000000000E+00  0.11696573295E+03  0.11696573295E+03  0.00000000000E+00 0.  1.
          1   -1    0    0  501    0  0.00000000000E+00 -0.00000000000E+00 -0.31679054604E+03  0.31679054604E+03  0.00000000000E+00 0. -1.
          5    1    1    2  502    0 -0.77337170014E+02 -0.23456268920E+02 -0.24726950760E+02  0.84617544938E+02  0.41800000000E+01 0.  1.
         -5    1    1    2    0  502  0.46212451026E+01 -0.11838375598E+03 -0.84366767868E+02  0.14550358589E+03  0.41800000000E+01 0.  1.
        -11    1    1    2    0    0  0.72076404784E+02  0.52684221918E+02 -0.24530874466E+02  0.92587251648E+02  0.00000000000E+00 0.  1.
         11    1    1    2    0    0  0.63952012751E+00  0.89155802987E+02 -0.66200219993E+02  0.11104789651E+03  0.00000000000E+00 0. -1.
</event>
<event>
 6    1  0.1218947E-005  0.5416958E+03  0.7561462E-02  0.1003434E+00
          2   -1    0    0  501    0  0.00000000000E+00  0.00000000000E+00  0.10554916917E+04  0.10554916917E+04  0.00000000000E+00 0. -1.
         -2   -1    0    0    0  501 -0.00000000000E+00 -0.00000000000E+00 -0.63942174886E+03  0.63942174886E+03  0.00000000000E+00 0.  1.
          5    1    1    2  502    0 -0.24797113596E+02  0.76067145039E+02 -0.11544431557E+02  0.80943521649E+02  0.41800000000E+01 0. -1.
         -5    1    1    2    0  502 -0.15926886475E+03  0.19459863687E+03 -0.39482404307E+03  0.46812252471E+03  0.41800000000E+01 0.  1.
        -11    1    1    2    0    0 -0.18726181263E+03 -0.32638477132E+03  0.21973720333E+03  0.43575043769E+03  0.00000000000E+00 0.  1.
         11    1    1    2    0    0  0.37132779098E+03  0.55718989404E+02  0.60270121417E+03  0.71009695655E+03  0.00000000000E+00 0. -1.
</event>
<event>
 6    1  0.4988969E-006  0.1128299E+03  0.7561462E-02  0.1255417E+00
         -2   -1    0    0    0  501 -0.00000000000E+00  0.00000000000E+00  0.23098912536E+02  0.23098912536E+02  0.00000000000E+00 0.  1.
          2   -1    0    0  501    0  0.00000000000E+00 -0.00000000000E+00 -0.63639171680E+03  0.63639171680E+03  0.00000000000E+00 0. -1.
          5    1    1    2  502    0 -0.30713140696E+02 -0.59632853516E+02 -0.11088523301E+03  0.12966256796E+03  0.41800000000E+01 0.  1.
         -5    1    1    2    0  502  0.61936897684E+02  0.16964085443E+02 -0.18576081690E+03  0.19659225057E+03  0.41800000000E+01 0.  1.
        -11    1    1    2    0    0 -0.18570112115E+02  0.65452951619E+02 -0.28074708756E+03  0.28887344134E+03  0.00000000000E+00 0.  1.
         11    1    1    2    0    0 -0.12653644873E+02 -0.22784183546E+02 -0.35899666795E+02  0.44362369464E+02  0.00000000000E+00 0. -1.
</event>
<event>
 6    1  0.4988969E-006  0.1232527E+03  0.7561462E-02  0.1237826E+00
         -2   -1    0    0    0  501 -0.00000000000E+00  0.00000000000E+00  0.45395517308E+02  0.45395517308E+02  0.00000000000E+00 0.  1.
          2   -1    0    0  501    0  0.00000000000E+00 -0.00000000000E+00 -0.48302702518E+03  0.48302702518E+03  0.00000000000E+00 0. -1.
          5    1    1    2  502    0 -0.28317303908E+02  0.98718995043E+02 -0.79550084044E+02  0.12997306626E+03  0.41800000000E+01 0.  1.
         -5    1    1    2    0  502 -0.17078871647E+02 -0.75071005199E+01 -0.14651020103E+03  0.14775234625E+03  0.41800000000E+01 0.  1.
        -11    1    1    2    0    0  0.34955079219E+02 -0.22480502291E+01 -0.10914753814E+03  0.11463025942E+03  0.00000000000E+00 0. -1.
         11    1    1    2    0    0  0.10441096336E+02 -0.88963844294E+02 -0.10242368465E+03  0.13606687055E+03  0.00000000000E+00 0.  1.
</event>
<event>
 6    1  0.4988969E-006  0.1335734E+03  0.7561462E-02  0.1222248E+00
         -1   -1    0    0    0  501 -0.00000000000E+00  0.00000000000E+00  0.46584283108E+03  0.46584283108E+03  0.00000000000E+00 0.  1.
          1   -1    0    0  501    0  0.00000000000E+00 -0.00000000000E+00 -0.43479175608E+02  0.43479175608E+02  0.00000000000E+00 0. -1.
          5    1    1    2  502    0 -0.11977561227E+02  0.84990000300E+02  0.19379577995E+03  0.21199301604E+03  0.41800000000E+01 0. -1.
         -5    1    1    2    0  502  0.58952141571E+02 -0.10530049706E+02  0.63831099902E+02  0.87624874650E+02  0.41800000000E+01 0. -1.
        -11    1    1    2    0    0  0.78736650221E+01 -0.65062050141E+02  0.50855142672E+02  0.82953664811E+02  0.00000000000E+00 0. -1.
         11    1    1    2    0    0 -0.54848245367E+02 -0.93979004527E+01  0.11388163295E+03  0.12675045119E+03  0.00000000000E+00 0.  1.
</event>
<event>
 6    1  0.4988969E-006  0.1264546E+03  0.7561462E-02  0.1232813E+00
          1   -1    0    0  501    0  0.00000000000E+00  0.00000000000E+00  0.90784354007E+03  0.90784354007E+03  0.00000000000E+00 0. -1.
         -1   -1    0    0    0  501 -0.00000000000E+00 -0.00000000000E+00 -0.25067646346E+02  0.25067646346E+02  0.00000000000E+00 0.  1.
          5    1    1    2  502    0  0.71558772046E+01  0.16434590427E+02  0.96900022437E+01  0.20800742404E+02  0.41800000000E+01 0.  1.
         -5    1    1    2    0  502  0.12964146335E+02 -0.12240550756E+03  0.50202337188E+03  0.51691016211E+03  0.41800000000E+01 0.  1.
        -11    1    1    2    0    0 -0.12806889218E+02  0.13594656481E+02  0.76897289584E+01  0.20198094656E+02  0.00000000000E+00 0.  1.
         11    1    1    2    0    0 -0.73131343217E+01  0.92376260654E+02  0.36337279064E+03  0.37500218725E+03  0.00000000000E+00 0. -1.
</event>
<event>
 6    1  0.4988969E-006  0.1469107E+03  0.7561462E-02  0.1204321E+00
          2   -1    0    0  501    0  0.00000000000E+00  0.00000000000E+00  0.37350681821E+03  0.37350681821E+03  0.00000000000E+00 0. -1.
         -2   -1    0    0    0  501 -0.00000000000E+00 -0.00000000000E+00 -0.84634464557E+02  0.84634464557E+02  0.00000000000E+00 0.  1.
          5    1    1    2  502    0 -0.65477986790E+02  0.32558048075E+02 -0.19532577084E+01  0.73271282671E+02  0.41800000000E+01 0.  1.
         -5    1    1    2    0  502  0.45252355359E+02  0.76376547950E+02  0.43343514673E+02  0.98880156788E+02  0.41800000000E+01 0.  1.
        -11    1    1    2    0    0  0.44023091429E+02 -0.42730958211E+02  0.60298660663E+02  0.86022647288E+02  0.00000000000E+00 0.  1.
         11    1    1    2    0    0 -0.23797459998E+02 -0.66203637814E+02  0.18718343603E+03  0.19996719602E+03  0.00000000000E+00 0. -1.
</event>
<event>
 6    1  0.4988969E-006  0.1286120E+03  0.7561462E-02  0.1229530E+00
          1   -1    0    0  501    0  0.00000000000E+00  0.00000000000E+00  0.16413863785E+02  0.16413863785E+02  0.00000000000E+00 0. -1.
         -1   -1    0    0    0  501 -0.00000000000E+00 -0.00000000000E+00 -0.15565999071E+04  0.15565999071E+04  0.00000000000E+00 0.  1.
          5    1    1    2  502    0 -0.66767874908E+01 -0.49573929389E+02 -0.86636555790E+03  0.86781847542E+03  0.41800000000E+01 0. -1.
         -5    1    1    2    0  502  0.65945843154E+02 -0.26757885219E+02 -0.26038001962E+03  0.26996308205E+03  0.41800000000E+01 0. -1.
        -11    1    1    2    0    0  0.25998636215E+02  0.25769191023E+02 -0.10002214525E+03  0.10651013957E+03  0.00000000000E+00 0. -1.
         11    1    1    2    0    0 -0.85267691878E+02  0.50562623584E+02 -0.31341832056E+03  0.32872207386E+03  0.00000000000E+00 0.  1.
</event>
<event>
 6    1  0.4988969E-006  0.1246395E+03  0.7561462E-02  0.1235634E+00
         -1   -1    0    0    0  501 -0.00000000000E+00  0.00000000000E+00  0.22972221010E+02  0.22972221010E+02  0.00000000000E+00 0.  1.
          1   -1    0    0  501    0  0.00000000000E+00 -0.00000000000E+00 -0.84874783287E+03  0.84874783287E+03  0.00000000000E+00 0. -1.
          5    1    1    2  502    0 -0.48059953454E+02 -0.81732609622E+02 -0.14986903652E+03  0.17739272563E+03  0.41800000000E+01 0. -1.
         -5    1    1    2    0  502 -0.90670520211E+01  0.40166111066E+02 -0.14209114441E+03  0.14799626222E+03  0.41800000000E+01 0. -1.
        -11    1    1    2    0    0  0.70561889377E+01 -0.27097798430E+02 -0.83584900099E+02  0.88150530382E+02  0.00000000000E+00 0.  1.
         11    1    1    2    0    0  0.50070816537E+02  0.68664296986E+02 -0.45023053084E+03  0.45818053565E+03  0.00000000000E+00 0. -1.
</event>
<event>
 6    1  0.4988969E-006  0.1902044E+03  0.7561462E-02  0.1158277E+00
         -1   -1    0    0    0  501 -0.00000000000E+00  0.00000000000E+00  0.40812424367E+02  0.40812424367E+02  0.00000000000E+00 0.  1.
          1   -1    0    0  501    0  0.00000000000E+00 -0.00000000000E+00 -0.10059834917E+04  0.10059834917E+04  0.00000000000E+00 0. -1.
          5    1    1    2  502    0 -0.99286576456E+02 -0.40399170047E+02 -0.15104086145E+03  0.18525855293E+03  0.41800000000E+01 0.  1.
         -5    1    1    2    0  502 -0.61144513549E+01 -0.90572100092E+02 -0.27308985369E+03  0.28781284269E+03  0.41800000000E+01 0.  1.
        -11    1    1    2    0    0  0.33612096348E+01  0.54859635092E+02 -0.93764716493E+02  0.10868624270E+03  0.00000000000E+00 0.  1.
         11    1    1    2    0    0  0.10203981818E+03  0.76111635048E+02 -0.44727563569E+03  0.46503827774E+03  0.00000000000E+00 0. -1.
</event>
<event>
 6    1  0.4988969E-006  0.1089312E+03  0.7561462E-02  0.1262562E+00
          2   -1    0    0  501    0  0.00000000000E+00  0.00000000000E+00  0.45679119469E+03  0.45679119469E+03  0.00000000000E+00 0.  1.
         -2   -1    0    0    0  501 -0.00000000000E+00 -0.00000000000E+00 -0.42258150665E+02  0.42258150665E+02  0.00000000000E+00 0. -1.
          5    1    1    2  502    0  0.80416771329E+02 -0.52215603989E+02  0.90945673455E+02  0.13221919048E+03  0.41800000000E+01 0. -1.
         -5    1    1    2    0  502 -0.78451525512E+01  0.47816553510E+02  0.50830157526E+02  0.70350170733E+02  0.41800000000E+01 0. -1.
        -11    1    1    2    0    0 -0.27850924042E+02  0.60581261625E+01  0.10410749447E+02  0.30344003801E+02  0.00000000000E+00 0. -1.
         11    1    1    2    0    0 -0.44720694736E+02 -0.16590756830E+01  0.26234646360E+03  0.26613598034E+03  0.00000000000E+00 0.  1.
</event>
<event>
 6    1  0.4988969E-006  0.7960066E+02  0.7561462E-02  0.1330189E+00
         -2   -1    0    0    0  501 -0.00000000000E+00  0.00000000000E+00  0.59622852481E+02  0.59622852481E+02  0.00000000000E+00 0. -1.
          2   -1    0    0  501    0  0.00000000000E+00 -0.00000000000E+00 -0.19426245667E+03  0.19426245667E+03  0.00000000000E+00 0.  1.
          5    1    1    2  502    0  0.64340644931E+01  0.56268440607E+02  0.56517088878E+01  0.57069683787E+02  0.41800000000E+01 0. -1.
         -5    1    1    2    0  502  0.85174743411E+01 -0.44370144995E+02 -0.73857742397E+02  0.86681576173E+02  0.41800000000E+01 0. -1.
        -11    1    1    2    0    0 -0.34729255833E+02 -0.16614354022E+01 -0.77738070890E+02  0.85159199409E+02  0.00000000000E+00 0.  1.
         11    1    1    2    0    0  0.19777716998E+02 -0.10236860210E+02  0.11304500209E+02  0.24974849781E+02  0.00000000000E+00 0. -1.
</event>
<event>
 6    1  0.4988969E-006  0.1038535E+03  0.7561462E-02  0.1272395E+00
         -1   -1    0    0    0  501 -0.00000000000E+00  0.00000000000E+00  0.44847024550E+02  0.44847024550E+02  0.00000000000E+00 0.  1.
          1   -1    0    0  501    0  0.00000000000E+00 -0.00000000000E+00 -0.33009829264E+03  0.33009829264E+03  0.00000000000E+00 0. -1.
          5    1    1    2  502    0 -0.35571918920E+02  0.42148939811E+02 -0.24123818615E+02  0.60343397049E+02  0.41800000000E+01 0.  1.
         -5    1    1    2    0  502  0.67418063773E+02  0.20356335418E+01 -0.12272049388E+03  0.14009686344E+03  0.41800000000E+01 0.  1.
        -11    1    1    2    0    0 -0.51326027319E+02 -0.23649393316E+02 -0.13455327736E+03  0.14593916313E+03  0.00000000000E+00 0.  1.
         11    1    1    2    0    0  0.19479882466E+02 -0.20535180037E+02 -0.38536782337E+01  0.28565893579E+02  0.00000000000E+00 0. -1.
</event>
<event>
 6    1  0.4988969E-006  0.1073307E+03  0.7561462E-02  0.1265594E+00
         -1   -1    0    0    0  501 -0.00000000000E+00  0.00000000000E+00  0.40772602368E+03  0.40772602368E+03  0.00000000000E+00 0.  1.
          1   -1    0    0  501    0  0.00000000000E+00 -0.00000000000E+00 -0.77126345133E+02  0.77126345133E+02  0.00000000000E+00 0. -1.
          5    1    1    2  502    0 -0.78884754157E+02  0.41962939627E+02  0.10658295338E+03  0.13914413782E+03  0.41800000000E+01 0. -1.
         -5    1    1    2    0  502 -0.48947816697E+01 -0.21611370223E+02  0.21880108536E+03  0.21995999083E+03  0.41800000000E+01 0. -1.
        -11    1    1    2    0    0  0.19570300327E+02 -0.31898439746E+02  0.37481798366E+02  0.52965954366E+02  0.00000000000E+00 0.  1.
         11    1    1    2    0    0  0.64209235500E+02  0.11546870342E+02 -0.32266158552E+02  0.72782285798E+02  0.00000000000E+00 0. -1.
</event>
<event>
 6    1  0.4988969E-006  0.1891060E+03  0.7561462E-02  0.1159270E+00
         -2   -1    0    0    0  501 -0.00000000000E+00  0.00000000000E+00  0.33844881777E+02  0.33844881777E+02  0.00000000000E+00 0.  1.
          2   -1    0    0  501    0  0.00000000000E+00 -0.00000000000E+00 -0.11723393411E+04  0.11723393411E+04  0.00000000000E+00 0. -1.
          5    1    1    2  502    0  0.67415939343E+02 -0.82059791341E+02 -0.30959522749E+03  0.32733071276E+03  0.41800000000E+01 0. -1.
         -5    1    1    2    0  502 -0.55479192901E+02 -0.83413559842E+02 -0.23094281425E+03  0.25176937595E+03  0.41800000000E+01 0. -1.
        -11    1    1    2    0    0 -0.28799196648E+02  0.10202878516E+03 -0.22921391295E+03  0.25254362914E+03  0.00000000000E+00 0. -1.
         11    1    1    2    0    0  0.16862450206E+02  0.63444566022E+02 -0.36874250466E+03  0.37454050505E+03  0.00000000000E+00 0.  1.
</event>
<event>
 6    1  0.4988969E-006  0.1055946E+03  0.7561462E-02  0.1268952E+00
          1   -1    0    0  501    0  0.00000000000E+00  0.00000000000E+00  0.74992176043E+02  0.74992176043E+02  0.00000000000E+00 0. -1.
         -1   -1    0    0    0  501 -0.00000000000E+00 -0.00000000000E+00 -0.34041005268E+03  0.34041005268E+03  0.00000000000E+00 0.  1.
          5    1    1    2  502    0  0.14593273590E+02 -0.52533593554E+02 -0.38398967505E+02  0.66818374653E+02  0.41800000000E+01 0. -1.
         -5    1    1    2    0  502 -0.44204453681E+02  0.73620311284E+02 -0.23679289654E+03  0.25191731225E+03  0.41800000000E+01 0.  1.
        -11    1    1    2    0    0  0.31411480219E+02 -0.40378259699E+02 -0.24938841526E+02  0.56912483363E+02  0.00000000000E+00 0.  1.
         11    1    1    2    0    0 -0.18003001279E+01  0.19291541969E+02  0.34712828929E+02  0.39754058464E+02  0.00000000000E+00 0. -1.
</event>
<event>
 6    1  0.4988969E-006  0.5933595E+02  0.7561462E-02  0.1400640E+00
         -2   -1    0    0    0  501 -0.00000000000E+00  0.00000000000E+00  0.27685686200E+02  0.27685686200E+02  0.00000000000E+00 0.  1.
          2   -1    0    0  501    0  0.00000000000E+00 -0.00000000000E+00 -0.44540076869E+03  0.44540076869E+03  0.00000000000E+00 0. -1.
          5    1    1    2  502    0  0.23376244979E+01 -0.18056241809E+02 -0.26197021860E+03  0.26263541305E+03  0.41800000000E+01 0. -1.
         -5    1    1    2    0  502 -0.13306555091E+02 -0.27443170874E+01  0.79321482452E+01  0.16278423156E+02  0.41800000000E+01 0.  1.
        -11    1    1    2    0    0  0.46674924721E+02  0.17765157080E+02 -0.36005541495E+02  0.61567429880E+02  0.00000000000E+00 0.  1.
         11    1    1    2    0    0 -0.35705994128E+02  0.30354018167E+01 -0.12767147064E+03  0.13260518880E+03  0.00000000000E+00 0. -1.
</event>
<event>
 6    1  0.4988969E-006  0.1123808E+03  0.7561462E-02  0.1256224E+00
         -1   -1    0    0    0  501 -0.00000000000E+00  0.00000000000E+00  0.27676261609E+03  0.27676261609E+03  0.00000000000E+00 0.  1.
          1   -1    0    0  501    0  0.00000000000E+00 -0.00000000000E+00 -0.55931861515E+02  0.55931861515E+02  0.00000000000E+00 0. -1.
          5    1    1    2  502    0  0.74818969193E+02  0.21701697696E+02  0.54358334384E+02  0.95084923889E+02  0.41800000000E+01 0. -1.
         -5    1    1    2    0  502 -0.26301833650E+02 -0.42388052236E+02  0.90641519429E+02  0.10354656378E+03  0.41800000000E+01 0. -1.
        -11    1    1    2    0    0 -0.64002300912E+02 -0.75870848421E+01  0.16482326253E+02  0.66524622938E+02  0.00000000000E+00 0. -1.
         11    1    1    2    0    0  0.15485165369E+02  0.28273439382E+02  0.59348574513E+02  0.67538367005E+02  0.00000000000E+00 0.  1.
</event>
<event>
 6    1  0.4988969E-006  0.1072815E+03  0.7561462E-02  0.1265689E+00
          1   -1    0    0  501    0  0.00000000000E+00  0.00000000000E+00  0.36296877738E+03  0.36296877738E+03  0.00000000000E+00 0. -1.
         -1   -1    0    0    0  501 -0.00000000000E+00 -0.00000000000E+00 -0.46580163456E+02  0.46580163456E+02  0.00000000000E+00 0.  1.
          5    1    1    2  502    0  0.76093893284E+02  0.40734083194E+02  0.46368115007E+02  0.98066409224E+02  0.41800000000E+01 0. -1.
         -5    1    1    2    0  502 -0.45221850705E+01 -0.38688653977E+02  0.99789864935E+02  0.10720425201E+03  0.41800000000E+01 0. -1.
        -11    1    1    2    0    0 -0.42121851972E+02  0.25007508444E+02  0.27766621601E+02  0.56308180287E+02  0.00000000000E+00 0.  1.
         11    1    1    2    0    0 -0.29449856242E+02 -0.27052937660E+02  0.14246401238E+03  0.14797009932E+03  0.00000000000E+00 0. -1.
</event>
<event>
 6    1  0.4988969E-006  0.1374645E+03  0.7561462E-02  0.1216782E+00
          2   -1    0    0  501    0  0.00000000000E+00  0.00000000000E+00  0.84249473735E+02  0.84249473735E+02  0.00000000000E+00 0. -1.
         -2   -1    0    0    0  501 -0.00000000000E+00 -0.00000000000E+00 -0.25490863739E+03  0.25490863739E+03  0.00000000000E+00 0.  1.
          5    1    1    2  502    0  0.80297301288E+02 -0.90229851389E+02 -0.84831991694E+02  0.14765846366E+03  0.41800000000E+01 0. -1.
         -5    1    1    2    0  502 -0.36574076048E+02  0.43063120030E+01 -0.26765034668E+02  0.45717030116E+02  0.41800000000E+01 0. -1.
        -11    1    1    2    0    0  0.11774214074E+02  0.48893042210E+02 -0.60973793683E+02  0.79037745474E+02  0.00000000000E+00 0.  1.
         11    1    1    2    0    0 -0.55497439314E+02  0.37030497176E+02  0.19116563873E+01  0.66744871875E+02  0.00000000000E+00 0. -1.
</event>
<event>
 6    1  0.4988969E-006  0.2356666E+03  0.7561462E-02  0.1122714E+00
         -2   -1    0    0    0  501 -0.00000000000E+00  0.00000000000E+00  0.17916646659E+03  0.17916646659E+03  0.00000000000E+00 0.  1.
          2   -1    0    0  501    0  0.00000000000E+00 -0.00000000000E+00 -0.32884704192E+03  0.32884704192E+03  0.00000000000E+00 0. -1.
          5    1    1    2  502    0  0.79277339681E+02 -0.47738219625E+02 -0.41599263683E+02  0.10154705973E+03  0.41800000000E+01 0.  1.
         -5    1    1    2    0  502  0.33632006591E+01 -0.14934919274E+03  0.63596955435E+00  0.14944687801E+03  0.41800000000E+01 0.  1.
        -11    1    1    2    0    0 -0.58639396181E+01  0.12106109048E+03 -0.79981642675E+02  0.14521445032E+03  0.00000000000E+00 0. -1.
         11    1    1    2    0    0 -0.76776600722E+02  0.76026321881E+02 -0.28735638519E+02  0.11180512045E+03  0.00000000000E+00 0.  1.
</event>
<event>
 6    1  0.4988969E-006  0.1494208E+03  0.7561462E-02  0.1201186E+00
         -2   -1    0    0    0  501 -0.00000000000E+00  0.00000000000E+00  0.31488179439E+03  0.31488179439E+03  0.00000000000E+00 0.  1.
          2   -1    0    0  501    0  0.00000000000E+00 -0.00000000000E+00 -0.89618427522E+02  0.89618427522E+02  0.00000000000E+00 0. -1.
          5    1    1    2  502    0 -0.10796088478E+03 -0.72093949471E+02  0.12659677613E+03  0.18137614595E+03  0.41800000000E+01 0. -1.
         -5    1    1    2    0  502  0.23504620695E+02 -0.24020668270E+02 -0.60157242068E+01  0.34396526509E+02  0.41800000000E+01 0. -1.
        -11    1    1    2    0    0  0.33965718185E+02  0.10249023112E+02  0.77870846914E+02  0.85572082396E+02  0.00000000000E+00 0.  1.
         11    1    1    2    0    0  0.50490545899E+02  0.85865594629E+02  0.26811468031E+02  0.10315546706E+03  0.00000000000E+00 0. -1.
</event>
<event>
 6    1  0.4988969E-006  0.1400635E+03  0.7561462E-02  0.1213244E+00
          1   -1    0    0  501    0  0.00000000000E+00  0.00000000000E+00  0.11552082563E+03  0.11552082563E+03  0.00000000000E+00 0. -1.
         -1   -1    0    0    0  501 -0.00000000000E+00 -0.00000000000E+00 -0.21885398179E+03  0.21885398179E+03  0.00000000000E+00 0.  1.
          5    1    1    2  502    0  0.38224721899E+02 -0.12746544175E+02 -0.52539748825E+02  0.66343811763E+02  0.41800000000E+01 0.  1.
         -5    1    1    2    0  502 -0.10330312227E+02  0.11701946530E+03 -0.47350002386E+02  0.12672713102E+03  0.41800000000E+01 0.  1.
        -11    1    1    2    0    0  0.17784317924E+02 -0.29571224475E+02  0.31791608808E+02  0.46919565979E+02  0.00000000000E+00 0. -1.
         11    1    1    2    0    0 -0.45678727596E+02 -0.74701696653E+02 -0.35235013761E+02  0.94384298654E+02  0.00000000000E+00 0.  1.
</event>
<event>
 6    1  0.4988969E-006  0.8703674E+02  0.7561462E-02  0.1310191E+00
          3   -1    0    0  501    0  0.00000000000E+00  0.00000000000E+00  0.36091950760E+03  0.36091950760E+03  0.00000000000E+00 0. -1.
         -3   -1    0    0    0  501 -0.00000000000E+00 -0.00000000000E+00 -0.35598506936E+02  0.35598506936E+02  0.00000000000E+00 0.  1.
          5    1    1    2  502    0  0.32937097759E+02 -0.15706828892E+02  0.10019014277E+02  0.38071116738E+02  0.41800000000E+01 0.  1.
         -5    1    1    2    0  502 -0.50309741683E+02 -0.28120576343E+01  0.21273659887E+03  0.21866254978E+03  0.41800000000E+01 0.  1.
        -11    1    1    2    0    0  0.33471369777E+02 -0.24086849024E+02  0.20791799840E+02  0.46182332458E+02  0.00000000000E+00 0.  1.
         11    1    1    2    0    0 -0.16098725853E+02  0.42605735550E+02  0.81773587669E+02  0.93602015556E+02  0.00000000000E+00 0. -1.
</event>
<event>
 6    1  0.4988969E-006  0.1989255E+03  0.7561462E-02  0.1150649E+00
          2   -1    0    0  501    0  0.00000000000E+00  0.00000000000E+00  0.12278542675E+04  0.12278542675E+04  0.00000000000E+00 0. -1.
         -2   -1    0    0    0  501 -0.00000000000E+00 -0.00000000000E+00 -0.39448903079E+02  0.39448903079E+02  0.00000000000E+00 0.  1.
          5    1    1    2  502    0 -0.80969085900E+01  0.66347379527E+02  0.27053411516E+03  0.27870004407E+03  0.41800000000E+01 0.  1.
         -5    1    1    2    0  502  0.91189854299E+02  0.95842220263E+02  0.18325268181E+03  0.22605383983E+03  0.41800000000E+01 0.  1.
        -11    1    1    2    0    0 -0.28261216333E+02 -0.13384776060E+03  0.58329054508E+03  0.59911750045E+03  0.00000000000E+00 0.  1.
         11    1    1    2    0    0 -0.54831729375E+02 -0.28341839188E+02  0.15132802238E+03  0.16343178624E+03  0.00000000000E+00 0. -1.
</event>
<event>
 6    1  0.4988969E-006  0.1078358E+03  0.7561462E-02  0.1264631E+00
          2   -1    0    0  501    0  0.00000000000E+00  0.00000000000E+00  0.27201294829E+03  0.27201294829E+03  0.00000000000E+00 0. -1.
         -2   -1    0    0    0  501 -0.00000000000E+00 -0.00000000000E+00 -0.49180523495E+02  0.49180523495E+02  0.00000000000E+00 0.  1.
          5    1    1    2  502    0 -0.73345142981E+01 -0.40508310598E+02  0.63467599216E+01  0.41862538014E+02  0.41800000000E+01 0. -1.
         -5    1    1    2    0  502 -0.96977012664E+01  0.74703037930E+02  0.10879854511E+03  0.13239782892E+03  0.41800000000E+01 0. -1.
        -11    1    1    2    0    0  0.39535810966E+02 -0.55310665471E+02  0.63450277876E+02  0.92996171030E+02  0.00000000000E+00 0.  1.
         11    1    1    2    0    0 -0.22503595402E+02  0.21115938139E+02  0.44236841888E+02  0.53936933818E+02  0.00000000000E+00 0. -1.
</event>
<event>
 6    1  0.4988969E-006  0.6231169E+02  0.7561462E-02  0.1388379E+00
          1   -1    0    0  501    0  0.00000000000E+00  0.00000000000E+00  0.57606240372E+02  0.57606240372E+02  0.00000000000E+00 0. -1.
         -1   -1    0    0    0  501 -0.00000000000E+00 -0.00000000000E+00 -0.23051936691E+03  0.23051936691E+03  0.00000000000E+00 0.  1.
          5    1    1    2  502    0  0.19642287753E+02  0.32040117703E+02 -0.12973251309E+03  0.13513099557E+03  0.41800000000E+01 0. -1.
         -5    1    1    2    0  502 -0.17533569934E+02 -0.45572543079E+02  0.41109999761E+01  0.49179827960E+02  0.41800000000E+01 0.  1.
        -11    1    1    2    0    0 -0.82469782698E+01  0.24160287057E+02 -0.71909758647E+02  0.76306916527E+02  0.00000000000E+00 0.  1.
         11    1    1    2    0    0  0.61382604516E+01 -0.10627861681E+02  0.24618145222E+02  0.27507867228E+02  0.00000000000E+00 0. -1.
</event>
<event>
 6    1  0.4988969E-006  0.1579174E+03  0.7561462E-02  0.1191068E+00
         -2   -1    0    0    0  501 -0.00000000000E+00  0.00000000000E+00  0.41999798779E+02  0.41999798779E+02  0.00000000000E+00 0.  1.
          2   -1    0    0  501    0  0.00000000000E+00 -0.00000000000E+00 -0.72102499034E+03  0.72102499034E+03  0.00000000000E+00 0. -1.
          5    1    1    2  502    0  0.15189504665E+02  0.12269248265E+03 -0.27412980146E+03  0.30074704787E+03  0.41800000000E+01 0. -1.
         -5    1    1    2    0  502 -0.40150714472E+02 -0.84881466698E+02 -0.86777244062E+02  0.12792460963E+03  0.41800000000E+01 0.  1.
        -11    1    1    2    0    0 -0.13824798657E+02 -0.54274764230E+02 -0.12961528893E+03  0.14119843560E+03  0.00000000000E+00 0.  1.
         11    1    1    2    0    0  0.38786008463E+02  0.16463748274E+02 -0.18850285711E+03  0.19315469603E+03  0.00000000000E+00 0. -1.
</event>
<event>
 6    1  0.4988969E-006  0.1225867E+03  0.7561462E-02  0.1238890E+00
          1   -1    0    0  501    0  0.00000000000E+00  0.00000000000E+00  0.60023658976E+02  0.60023658976E+02  0.00000000000E+00 0. -1.
         -1   -1    0    0    0  501 -0.00000000000E+00 -0.00000000000E+00 -0.36681678972E+03  0.36681678972E+03  0.00000000000E+00 0.  1.
          5    1    1    2  502    0  0.21037942941E+02  0.37546664804E+02  0.12675835049E+02  0.45061028343E+02  0.41800000000E+01 0. -1.
         -5    1    1    2    0  502  0.68860095427E+02 -0.26204709065E+02 -0.12780670256E+03  0.14758192687E+03  0.41800000000E+01 0. -1.
        -11    1    1    2    0    0 -0.43021199387E+02  0.39907872275E+02 -0.52819796713E+02  0.78951838427E+02  0.00000000000E+00 0. -1.
         11    1    1    2    0    0 -0.46876838982E+02 -0.51249828014E+02 -0.13884246652E+03  0.15524565505E+03  0.00000000000E+00 0.  1.
</event>
<event>
 6    1  0.4988969E-006  0.1030255E+03  0.7561462E-02  0.1274059E+00
          2   -1    0    0  501    0  0.00000000000E+00  0.00000000000E+00  0.82106324201E+03  0.82106324201E+03  0.00000000000E+00 0. -1.
         -2   -1    0    0    0  501 -0.00000000000E+00 -0.00000000000E+00 -0.15280991153E+02  0.15280991153E+02  0.00000000000E+00 0.  1.
          5    1    1    2  502    0 -0.95715054189E+01 -0.48842880910E+02  0.90359499565E+02  0.10324510784E+03  0.41800000000E+01 0.  1.
         -5    1    1    2    0  502 -0.10074243568E+02  0.60867679911E+02  0.33753875102E+03  0.34315629920E+03  0.41800000000E+01 0.  1.
        -11    1    1    2    0    0  0.24489553269E+02  0.37345736777E+02  0.21849727398E+03  0.22301457578E+03  0.00000000000E+00 0. -1.
         11    1    1    2    0    0 -0.48438042820E+01 -0.49370535778E+02  0.15938672629E+03  0.16692825034E+03  0.00000000000E+00 0.  1.
</event>
<event>
 6    1  0.4988969E-006  0.1701699E+03  0.7561462E-02  0.1177671E+00
          1   -1    0    0  501    0  0.00000000000E+00  0.00000000000E+00  0.35009586284E+03  0.35009586284E+03  0.00000000000E+00 0. -1.
         -1   -1    0    0    0  501 -0.00000000000E+00 -0.00000000000E+00 -0.11023478189E+03  0.11023478189E+03  0.00000000000E+00 0.  1.
          5    1    1    2  502    0 -0.19038036086E+02 -0.13596851120E+03  0.12764483648E+03  0.18751149174E+03  0.41800000000E+01 0.  1.
         -5    1    1    2    0  502 -0.96555972957E+01 -0.23179355715E+02 -0.29758713061E+02  0.39160777489E+02  0.41800000000E+01 0.  1.
        -11    1    1    2    0    0 -0.19470215531E+02  0.12418173722E+02 -0.11222710921E+01  0.23120549816E+02  0.00000000000E+00 0.  1.
         11    1    1    2    0    0  0.48163848912E+02  0.14672969319E+03  0.14309722862E+03  0.21053782568E+03  0.00000000000E+00 0. -1.
</event>
<event>
 6    1  0.4988969E-006  0.1415826E+03  0.7561462E-02  0.1211215E+00
          1   -1    0    0  501    0  0.00000000000E+00  0.00000000000E+00  0.68204561619E+03  0.68204561619E+03  0.00000000000E+00 0. -1.
         -1   -1    0    0    0  501 -0.00000000000E+00 -0.00000000000E+00 -0.30811738778E+02  0.30811738778E+02  0.00000000000E+00 0.  1.
          5    1    1    2  502    0 -0.76111826907E+02 -0.50837380938E+02  0.18925081316E+03  0.21026362542E+03  0.41800000000E+01 0. -1.
         -5    1    1    2    0  502 -0.15266014985E+02  0.60882611125E+02  0.10412946020E+03  0.12165590997E+03  0.41800000000E+01 0. -1.
        -11    1    1    2    0    0  0.21027461698E+02 -0.45302057620E+02  0.10808140986E+03  0.11906309978E+03  0.00000000000E+00 0.  1.
         11    1    1    2    0    0  0.70350380194E+02  0.35256827433E+02  0.24977219420E+03  0.26187471979E+03  0.00000000000E+00 0. -1.
</event>
<event>
 6    1  0.4988969E-006  0.1749351E+03  0.7561462E-02  0.1172797E+00
         -2   -1    0    0    0  501 -0.00000000000E+00  0.00000000000E+00  0.55995562285E+02  0.55995562285E+02  0.00000000000E+00 0.  1.
          2   -1    0    0  501    0  0.00000000000E+00 -0.00000000000E+00 -0.10925470606E+04  0.10925470606E+04  0.00000000000E+00 0. -1.
          5    1    1    2  502    0  0.43863916165E+02 -0.61452363475E+02 -0.10073073805E+02  0.76284830300E+02  0.41800000000E+01 0. -1.
         -5    1    1    2    0  502  0.15578463828E+02 -0.97013767033E+02 -0.19077480849E+03  0.21463191627E+03  0.41800000000E+01 0. -1.
        -11    1    1    2    0    0 -0.27429664470E+02  0.20413199063E+02 -0.59786134318E+02  0.68872832421E+02  0.00000000000E+00 0.  1.
         11    1    1    2    0    0 -0.32012715523E+02  0.13805293144E+03 -0.77591748172E+03  0.78875304391E+03  0.00000000000E+00 0. -1.
</event>
<event>
 6    1  0.4988969E-006  0.9234217E+02  0.7561462E-02  0.1297277E+00
         -2   -1    0    0    0  501 -0.00000000000E+00  0.00000000000E+00  0.81864286876E+02  0.81864286876E+02  0.00000000000E+00 0. -1.
          2   -1    0    0  501    0  0.00000000000E+00 -0.00000000000E+00 -0.18572260572E+03  0.18572260572E+03  0.00000000000E+00 0.  1.
          5    1    1    2  502    0  0.71472232830E+02  0.41678636322E+01 -0.27580454020E+02  0.76836221907E+02  0.41800000000E+01 0. -1.
         -5    1    1    2    0  502 -0.43266635480E+02 -0.27059831734E+02  0.16739990750E+02  0.53869619728E+02  0.41800000000E+01 0. -1.
        -11    1    1    2    0    0 -0.13026442244E+02  0.38108345837E+02 -0.10486973224E+03  0.11233697059E+03  0.00000000000E+00 0.  1.
         11    1    1    2    0    0 -0.15179155105E+02 -0.15216377735E+02  0.11851876665E+02  0.24544080377E+02  0.00000000000E+00 0. -1.
</event>
<event>
 6    1  0.4988969E-006  0.8528717E+02  0.7561462E-02  0.1314683E+00
         -1   -1    0    0    0  501 -0.00000000000E+00  0.00000000000E+00  0.11451469070E+03  0.11451469070E+03  0.00000000000E+00 0.  1.
          1   -1    0    0  501    0  0.00000000000E+00 -0.00000000000E+00 -0.18896499548E+03  0.18896499548E+03  0.00000000000E+00 0. -1.
          5    1    1    2  502    0  0.19078747182E+02 -0.51480813444E+02  0.49560270031E+02  0.74080803940E+02  0.41800000000E+01 0.  1.
         -5    1    1    2    0  502 -0.29222799063E+02  0.57580972224E+02  0.11898282272E+02  0.65791958995E+02  0.41800000000E+01 0.  1.
        -11    1    1    2    0    0 -0.98963351074E+01  0.17340860115E+02  0.39800480161E+01  0.20358871783E+02  0.00000000000E+00 0.  1.
         11    1    1    2    0    0  0.20040386989E+02 -0.23441018895E+02 -0.13988890510E+03  0.14324805147E+03  0.00000000000E+00 0. -1.
</event>
<event>
 6    1  0.1529168E-005  0.1830773E+03  0.7561462E-02  0.1164858E+00
         -1   -1    0    0    0  501 -0.00000000000E+00  0.00000000000E+00  0.21401803997E+03  0.21401803997E+03  0.00000000000E+00 0.  1.
          1   -1    0    0  501    0  0.00000000000E+00 -0.00000000000E+00 -0.20269254231E+03  0.20269254231E+03  0.00000000000E+00 0. -1.
          5    1    1    2  502    0  0.37103228079E+01  0.13814200445E+02  0.31611731227E+02  0.34948141302E+02  0.41800000000E+01 0. -1.
         -5    1    1    2    0  502  0.52148793918E+02 -0.17390262315E+03  0.25695397109E+02  0.18341031836E+03  0.41800000000E+01 0. -1.
        -11    1    1    2    0    0 -0.22922147385E+02  0.74374265443E+02  0.25594055993E+02  0.81926869238E+02  0.00000000000E+00 0. -1.
         11    1    1    2    0    0 -0.32936969341E+02  0.85714157265E+02 -0.71575686669E+02  0.11642525339E+03  0.00000000000E+00 0.  1.
</event>
<event>
 6    1  0.4988969E-006  0.1842893E+03  0.7561462E-02  0.1163715E+00
         -1   -1    0    0    0  501 -0.00000000000E+00  0.00000000000E+00  0.40375167047E+03  0.40375167047E+03  0.00000000000E+00 0.  1.
          1   -1    0    0  501    0  0.00000000000E+00 -0.00000000000E+00 -0.12491359208E+03  0.12491359208E+03  0.00000000000E+00 0. -1.
          5    1    1    2  502    0 -0.43707100808E+02 -0.46253780477E+02  0.78993850222E+01  0.64261929267E+02  0.41800000000E+01 0. -1.
         -5    1    1    2    0  502 -0.37198633606E+02 -0.11577806614E+03  0.22760593836E+03  0.25808958623E+03  0.41800000000E+01 0. -1.
        -11    1    1    2    0    0  0.31925075656E+02  0.94161135422E+02 -0.19920331634E+02  0.10140192055E+03  0.00000000000E+00 0.  1.
         11    1    1    2    0    0  0.48980658758E+02  0.67870711197E+02  0.63253086635E+02  0.10491182650E+03  0.00000000000E+00 0. -1.
</event>
<event>
 6    1  0.4988969E-006  0.7830723E+02  0.7561462E-02  0.1333925E+00
          1   -1    0    0  501    0  0.00000000000E+00  0.00000000000E+00  0.86582614661E+02  0.86582614661E+02  0.00000000000E+00 0. -1.
         -1   -1    0    0    0  501 -0.00000000000E+00 -0.00000000000E+00 -0.16814922343E+03  0.16814922343E+03  0.00000000000E+00 0.  1.
          5    1    1    2  502    0  0.62539310107E+02 -0.22066917814E+02 -0.15463210689E+02  0.68225343204E+02  0.41800000000E+01 0.  1.
         -5    1    1    2    0  502 -0.37357751638E+02  0.19742996350E+02 -0.82053323996E+02  0.92388353655E+02  0.41800000000E+01 0.  1.
        -11    1    1    2    0    0 -0.20025642656E+02 -0.17884164927E+02  0.48514095060E+02  0.55448058022E+02  0.00000000000E+00 0. -1.
         11    1    1    2    0    0 -0.51559158124E+01  0.20208086392E+02 -0.32564169147E+02  0.38670083213E+02  0.00000000000E+00 0.  1.
</event>
<event>
 6    1  0.4988969E-006  0.1116563E+03  0.7561462E-02  0.1257533E+00
          1   -1    0    0  501    0  0.00000000000E+00  0.00000000000E+00  0.10274416428E+03  0.10274416428E+03  0.00000000000E+00 0. -1.
         -1   -1    0    0    0  501 -0.00000000000E+00 -0.00000000000E+00 -0.14462014796E+03  0.14462014796E+03  0.00000000000E+00 0.  1.
          5    1    1    2  502    0  0.93303324335E+01  0.49999822668E+02 -0.36742700286E-01  0.51034411137E+02  0.41800000000E+01 0.  1.
         -5    1    1    2    0  502  0.32822989774E+02 -0.66557811312E+02 -0.57211133443E+02  0.93796999388E+02  0.41800000000E+01 0.  1.
        -11    1    1    2    0    0  0.17055994691E+02  0.32437032890E+02  0.18695823349E+02  0.41141242912E+02  0.00000000000E+00 0. -1.
         11    1    1    2    0    0 -0.59209316898E+02 -0.15879044246E+02 -0.33239308910E+01  0.61391658800E+02  0.00000000000E+00 0.  1.
</event>
<event>
 6    1  0.4988969E-006  0.9041621E+02  0.7561462E-02  0.1301847E+00
         -1   -1    0    0    0  501 -0.00000000000E+00  0.00000000000E+00  0.39709034523E+03  0.39709034523E+03  0.00000000000E+00 0.  1.
          1   -1    0    0  501    0  0.00000000000E+00 -0.00000000000E+00 -0.69964004439E+02  0.69964004439E+02  0.00000000000E+00 0. -1.
          5    1    1    2  502    0 -0.32766803169E+02 -0.59857088335E+02  0.84743422508E+02  0.10888275562E+03  0.41800000000E+01 0.  1.
         -5    1    1    2    0  502 -0.15163187475E+02  0.33728766152E+02  0.24779386490E+03  0.25057299097E+03  0.41800000000E+01 0.  1.
        -11    1    1    2    0    0  0.31497470500E+02  0.41936643618E+02  0.33689054499E+02  0.62335584692E+02  0.00000000000E+00 0.  1.
         11    1    1    2    0    0  0.16432520144E+02 -0.15808321435E+02 -0.39100001123E+02  0.45263018378E+02  0.00000000000E+00 0. -1.
</event>
<event>
 6    1  0.4988969E-006  0.2040011E+03  0.7561462E-02  0.1146406E+00
          1   -1    0    0  501    0  0.00000000000E+00  0.00000000000E+00  0.27307999712E+03  0.27307999712E+03  0.00000000000E+00 0. -1.
         -1   -1    0    0    0  501 -0.00000000000E+00 -0.00000000000E+00 -0.20612690555E+03  0.20612690555E+03  0.00000000000E+00 0.  1.
          5    1    1    2  502    0 -0.19426323902E+02  0.84112587276E+02  0.19870181390E+02  0.88682613330E+02  0.41800000000E+01 0.  1.
         -5    1    1    2    0  502 -0.11306692416E+03  0.53500440268E+02 -0.76150040958E+02  0.14650162998E+03  0.41800000000E+01 0.  1.
        -11    1    1    2    0    0  0.10105583109E+03 -0.73322928491E+02  0.33545050422E+02  0.12928187517E+03  0.00000000000E+00 0.  1.
         11    1    1    2    0    0  0.31437416973E+02 -0.64290099053E+02  0.89687900713E+02  0.11474078419E+03  0.00000000000E+00 0. -1.
</event>
<event>
 6    1  0.4988969E-006  0.1290435E+03  0.7561462E-02  0.1228882E+00
         -1   -1    0    0    0  501 -0.00000000000E+00  0.00000000000E+00  0.20496195720E+03  0.20496195720E+03  0.00000000000E+00 0.  1.
          1   -1    0    0  501    0  0.00000000000E+00 -0.00000000000E+00 -0.14180029918E+03  0.14180029918E+03  0.00000000000E+00 0. -1.
          5    1    1    2  502    0  0.34144647880E+02  0.17098254540E+02  0.33401143212E+02  0.50904970828E+02  0.41800000000E+01 0.  1.
         -5    1    1    2    0  502 -0.57268521899E+02 -0.94042119395E+02  0.10624423850E+03  0.15306506602E+03  0.41800000000E+01 0.  1.
        -11    1    1    2    0    0  0.12418176636E+02 -0.13539152725E+02 -0.41153477539E+02  0.45068042791E+02  0.00000000000E+00 0. -1.
         11    1    1    2    0    0  0.10705697383E+02  0.90483017580E+02 -0.35330246150E+02  0.97724176742E+02  0.00000000000E+00 0.  1.
</event>
<event>
 6    1  0.4988969E-006  0.1209147E+03  0.7561462E-02  0.1241596E+00
         -2   -1    0    0    0  501 -0.00000000000E+00  0.00000000000E+00  0.51271735649E+03  0.51271735649E+03  0.00000000000E+00 0.  1.
          2   -1    0    0  501    0  0.00000000000E+00 -0.00000000000E+00 -0.55302908058E+02  0.55302908058E+02  0.00000000000E+00 0. -1.
          5    1    1    2  502    0 -0.86019979691E+01  0.34512120189E+02  0.12199517731E+03  0.12714313390E+03  0.41800000000E+01 0. -1.
         -5    1    1    2    0  502  0.65405982789E+02 -0.85965160245E+02  0.29622493041E+03  0.31533257548E+03  0.41800000000E+01 0.  1.
        -11    1    1    2    0    0 -0.58555365144E+01 -0.13881559869E+02 -0.19036245790E+02  0.24276813342E+02  0.00000000000E+00 0.  1.
         11    1    1    2    0    0 -0.50948448305E+02  0.65334599925E+02  0.58230586494E+02  0.10126774183E+03  0.00000000000E+00 0. -1.
</event>
<event>
 6    1  0.4988969E-006  0.1154125E+03  0.7561462E-02  0.1250863E+00
          1   -1    0    0  501    0  0.00000000000E+00  0.00000000000E+00  0.11287068151E+03  0.11287068151E+03  0.00000000000E+00 0. -1.
         -1   -1    0    0    0  501 -0.00000000000E+00 -0.00000000000E+00 -0.13034771242E+03  0.13034771242E+03  0.00000000000E+00 0.  1.
          5    1    1    2  502    0  0.47621812267E+02 -0.65831254557E+02 -0.13235828696E+02  0.82427244533E+02  0.41800000000E+01 0. -1.
         -5    1    1    2    0  502 -0.56302887502E+01  0.49159990562E+02 -0.27010978711E+02  0.56528490113E+02  0.41800000000E+01 0. -1.
        -11    1    1    2    0    0 -0.10407193139E+01 -0.34361908745E+02  0.17615023767E+02  0.38627877649E+02  0.00000000000E+00 0. -1.
         11    1    1    2    0    0 -0.40950804202E+02  0.51033172740E+02  0.51547527258E+01  0.65634781636E+02  0.00000000000E+00 0.  1.
</event>
<event>
 6    1  0.4988969E-006  0.1540748E+03  0.7561462E-02  0.1195553E+00
         -1   -1    0    0    0  501 -0.00000000000E+00  0.00000000000E+00  0.37010736624E+03  0.37010736624E+03  0.00000000000E+00 0.  1.
          1   -1    0    0  501    0  0.00000000000E+00 -0.00000000000E+00 -0.10120989152E+03  0.10120989152E+03  0.00000000000E+00 0. -1.
          5    1    1    2  502    0 -0.10208319921E+03  0.36557532999E+02  0.92655852980E+02  0.14268851485E+03  0.41800000000E+01 0. -1.
         -5    1    1    2    0  502  0.84506393510E+02 -0.59027129207E+02  0.20345758417E+03  0.22811837603E+03  0.41800000000E+01 0.  1.
        -11    1    1    2    0    0 -0.60663018712E+00  0.57235386297E+02 -0.19906689388E+02  0.60601433375E+02  0.00000000000E+00 0. -1.
         11    1    1    2    0    0  0.18183435883E+02 -0.34765790090E+02 -0.73092730430E+01  0.39908933505E+02  0.00000000000E+00 0.  1.
</event>
<event>
 6    1  0.4988969E-006  0.1083544E+03  0.7561462E-02  0.1263648E+00
          1   -1    0    0  501    0  0.00000000000E+00  0.00000000000E+00  0.85509673472E+02  0.85509673472E+02  0.00000000000E+00 0. -1.
         -1   -1    0    0    0  501 -0.00000000000E+00 -0.00000000000E+00 -0.16412629837E+03  0.16412629837E+03  0.00000000000E+00 0.  1.
          5    1    1    2  502    0  0.49673990369E+02 -0.32844508288E+02 -0.69665651919E+02  0.91744441255E+02  0.41800000000E+01 0. -1.
         -5    1    1    2    0  502 -0.57248311773E+02 -0.70112636098E+01 -0.16410956083E+01  0.57850605987E+02  0.41800000000E+01 0. -1.
        -11    1    1    2    0    0  0.35625639973E+02  0.56332244383E+02 -0.99976522252E+01  0.67397782090E+02  0.00000000000E+00 0.  1.
         11    1    1    2    0    0 -0.28051318568E+02 -0.16476472485E+02  0.26877748590E+01  0.32643142506E+02  0.00000000000E+00 0. -1.
</event>
<event>
 6    1  0.4988969E-006  0.2293783E+03  0.7561462E-02  0.1127078E+00
          2   -1    0    0  501    0  0.00000000000E+00  0.00000000000E+00  0.13994483197E+04  0.13994483197E+04  0.00000000000E+00 0. -1.
         -2   -1    0    0    0  501 -0.00000000000E+00 -0.00000000000E+00 -0.42110925839E+02  0.42110925839E+02  0.00000000000E+00 0.  1.
          5    1    1    2  502    0  0.20383258934E+03  0.12811511335E+02  0.64630068558E+03  0.67781554119E+03  0.41800000000E+01 0.  1.
         -5    1    1    2    0  502  0.12326821915E+02 -0.17396846677E+02  0.90737185877E+01  0.23545818777E+02  0.41800000000E+01 0.  1.
        -11    1    1    2    0    0 -0.12595995711E+03 -0.39967898062E+02  0.44629600482E+03  0.46544974765E+03  0.00000000000E+00 0.  1.
         11    1    1    2    0    0 -0.90199454146E+02  0.44553233405E+02  0.25566698487E+03  0.27474813791E+03  0.00000000000E+00 0. -1.
</event>
<event>
 6    1  0.4988969E-006  0.7591898E+02  0.7561462E-02  0.1341049E+00
         -2   -1    0    0    0  501 -0.00000000000E+00  0.00000000000E+00  0.37820974706E+03  0.37820974706E+03  0.00000000000E+00 0.  1.
          2   -1    0    0  501    0  0.00000000000E+00 -0.00000000000E+00 -0.40087507164E+02  0.40087507164E+02  0.00000000000E+00 0. -1.
          5    1    1    2  502    0 -0.22012849003E+02  0.24329503245E+02 -0.97951279711E+01  0.34495031256E+02  0.41800000000E+01 0. -1.
         -5    1    1    2    0  502 -0.19015387962E+02  0.17853968675E+02  0.19409293334E+03  0.19588233292E+03  0.41800000000E+01 0. -1.
        -11    1    1    2    0    0 -0.72643423709E+01 -0.43434477196E+02  0.12292286438E+03  0.13057317898E+03  0.00000000000E+00 0.  1.
         11    1    1    2    0    0  0.48292579337E+02  0.12510052756E+01  0.30901570133E+02  0.57346711064E+02  0.00000000000E+00 0. -1.
</event>
<event>
 6    1  0.4988969E-006  0.1652139E+03  0.7561462E-02  0.1182933E+00
          1   -1    0    0  501    0  0.00000000000E+00  0.00000000000E+00  0.76396804404E+03  0.76396804404E+03  0.00000000000E+00 0. -1.
         -1   -1    0    0    0  501 -0.00000000000E+00 -0.00000000000E+00 -0.44903305903E+02  0.44903305903E+02  0.00000000000E+00 0.  1.
          5    1    1    2  502    0 -0.10281141212E+03  0.79041083030E+02  0.12902288898E+03  0.18298103057E+03  0.41800000000E+01 0. -1.
         -5    1    1    2    0  502  0.35369065525E+02  0.28315014725E+02  0.76185519727E+02  0.88737909999E+02  0.41800000000E+01 0. -1.
        -11    1    1    2    0    0 -0.14313393614E+02 -0.57866403908E+02  0.16479613960E+03  0.17524600299E+03  0.00000000000E+00 0. -1.
         11    1    1    2    0    0  0.81755740207E+02 -0.49489693846E+02  0.34906018984E+03  0.36190640638E+03  0.00000000000E+00 0.  1.
</event>
<event>
 6    1  0.4988969E-006  0.9112740E+02  0.7561462E-02  0.1300144E+00
          1   -1    0    0  501    0  0.00000000000E+00  0.00000000000E+00  0.24342678272E+02  0.24342678272E+02  0.00000000000E+00 0. -1.
         -1   -1    0    0    0  501 -0.00000000000E+00 -0.00000000000E+00 -0.58935522506E+03  0.58935522506E+03  0.00000000000E+00 0.  1.
          5    1    1    2  502    0 -0.16201672895E+02  0.55319053610E+02 -0.90830330527E+02  0.10765831710E+03  0.41800000000E+01 0.  1.
         -5    1    1    2    0  502 -0.24280516551E+02 -0.44271274861E+02 -0.31591395741E+03  0.31995091834E+03  0.41800000000E+01 0.  1.
        -11    1    1    2    0    0 -0.10404653087E+02 -0.19604278825E+02 -0.11950830048E+03  0.12155171096E+03  0.00000000000E+00 0.  1.
         11    1    1    2    0    0  0.50886842534E+02  0.85565000760E+01 -0.38759958368E+02  0.64536956926E+02  0.00000000000E+00 0. -1.
</event>
<event>
 6    1  0.4988969E-006  0.1230283E+03  0.7561462E-02  0.1238183E+00
         -1   -1    0    0    0  501 -0.00000000000E+00  0.00000000000E+00  0.37617014999E+02  0.37617014999E+02  0.00000000000E+00 0.  1.
          1   -1    0    0  501    0  0.00000000000E+00 -0.00000000000E+00 -0.51537221292E+03  0.51537221292E+03  0.00000000000E+00 0. -1.
          5    1    1    2  502    0  0.44851350758E+02  0.16740940562E+02 -0.31813500741E+02  0.57632230437E+02  0.41800000000E+01 0. -1.
         -5    1    1    2    0  502 -0.43313307111E+02 -0.76890618066E+02 -0.10572769682E+03  0.13778253878E+03  0.41800000000E+01 0. -1.
        -11    1    1    2    0    0 -0.99692899355E+01 -0.23526169323E+02 -0.93052061197E+02  0.96496391009E+02  0.00000000000E+00 0. -1.
         11    1    1    2    0    0  0.84312462880E+01  0.83675846828E+02 -0.24716193916E+03  0.26107806769E+03  0.00000000000E+00 0.  1.
</event>
<event>
 6    1  0.4988969E-006  0.1042979E+03  0.7561462E-02  0.1271509E+00
          2   -1    0    0  501    0  0.00000000000E+00  0.00000000000E+00  0.28980249998E+03  0.28980249998E+03  0.00000000000E+00 0. -1.
         -2   -1    0    0    0  501 -0.00000000000E+00 -0.00000000000E+00 -0.98707981448E+02  0.98707981448E+02  0.00000000000E+00 0.  1.
          5    1    1    2  502    0 -0.27715872383E+02  0.42537125190E+02  0.41384177536E+02  0.65633064470E+02  0.41800000000E+01 0. -1.
         -5    1    1    2    0  502  0.12624673781E+01 -0.68700717510E+02 -0.59765606280E+02  0.91163493265E+02  0.41800000000E+01 0.  1.
        -11    1    1    2    0    0  0.55657106637E+02  0.16421261537E+02  0.81253122758E+02  0.99847089630E+02  0.00000000000E+00 0.  1.
         11    1    1    2    0    0 -0.29203701632E+02  0.97423307832E+01  0.12822282451E+03  0.13186683406E+03  0.00000000000E+00 0. -1.
</event>
<event>
 6    1  0.4988969E-006  0.9709458E+02  0.7561462E-02  0.1286527E+00
         -2   -1    0    0    0  501 -0.00000000000E+00  0.00000000000E+00  0.19719070450E+02  0.19719070450E+02  0.00000000000E+00 0.  1.
          2   -1    0    0  501    0  0.00000000000E+00 -0.00000000000E+00 -0.66287148880E+03  0.66287148880E+03  0.00000000000E+00 0. -1.
          5    1    1    2  502    0  0.42994061923E+02  0.33931549223E+02 -0.55577980438E+02  0.78142329777E+02  0.41800000000E+01 0. -1.
         -5    1    1    2    0  502 -0.37841766088E+02 -0.30158955000E+02 -0.20922029371E+03  0.21478399738E+03  0.41800000000E+01 0. -1.
        -11    1    1    2    0    0  0.40734804095E+02  0.11500462921E+02 -0.13242767086E+03  0.13902759769E+03  0.00000000000E+00 0.  1.
         11    1    1    2    0    0 -0.45887099929E+02 -0.15273057144E+02 -0.24592647335E+03  0.25063663441E+03  0.00000000000E+00 0. -1.
</event>
<event>
 6    1  0.4988969E-006  0.2515744E+03  0.7561462E-02  0.1112314E+00
         -2   -1    0    0    0  501 -0.00000000000E+00  0.00000000000E+00  0.67081224609E+02  0.67081224609E+02  0.00000000000E+00 0.  1.
          2   -1    0    0  501    0  0.00000000000E+00 -0.00000000000E+00 -0.11487906907E+04  0.11487906907E+04  0.00000000000E+00 0. -1.
          5    1    1    2  502    0  0.31035137141E+02  0.53814691911E+01 -0.14896021972E+03  0.15231138962E+03  0.41800000000E+01 0. -1.
         -5    1    1    2    0  502  0.16719467838E+03  0.13307611214E+03 -0.22605674914E+03  0.31109875977E+03  0.41800000000E+01 0. -1.
        -11    1    1    2    0    0 -0.40332130096E+02  0.93038775900E+01 -0.13653238298E+03  0.14266861763E+03  0.00000000000E+00 0.  1.
         11    1    1    2    0    0 -0.15789768543E+03 -0.14776145892E+03 -0.57016011423E+03  0.60979314826E+03  0.00000000000E+00 0. -1.
</event>
<event>
 6    1  0.4988969E-006  0.1083970E+03  0.7561462E-02  0.1263568E+00
         -4   -1    0    0    0  501 -0.00000000000E+00  0.00000000000E+00  0.59641584497E+03  0.59641584497E+03  0.00000000000E+00 0.  1.
          4   -1    0    0  501    0  0.00000000000E+00 -0.00000000000E+00 -0.21680648316E+02  0.21680648316E+02  0.00000000000E+00 0. -1.
          5    1    1    2  502    0 -0.29839375358E+02 -0.28761584997E+02  0.66587655723E+02  0.78543016163E+02  0.41800000000E+01 0. -1.
         -5    1    1    2    0  502  0.34323061029E+02  0.66932818349E+02  0.27127858326E+03  0.28154505293E+03  0.41800000000E+01 0.  1.
        -11    1    1    2    0    0 -0.18995127524E+02  0.27013218082E+02  0.10693523303E+03  0.11191815261E+03  0.00000000000E+00 0.  1.
         11    1    1    2    0    0  0.14511441853E+02 -0.65184451435E+02  0.12993372464E+03  0.14609027159E+03  0.00000000000E+00 0. -1.
</event>
<event>
 6    1  0.4988969E-006  0.1476470E+03  0.7561462E-02  0.1203394E+00
          1   -1    0    0  501    0  0.00000000000E+00  0.00000000000E+00  0.37185207266E+03  0.37185207266E+03  0.00000000000E+00 0. -1.
         -1   -1    0    0    0  501 -0.00000000000E+00 -0.00000000000E+00 -0.93948564404E+02  0.93948564404E+02  0.00000000000E+00 0.  1.
          5    1    1    2  502    0  0.61856914917E+01  0.13359086890E+03  0.10200305346E+03  0.16824648094E+03  0.41800000000E+01 0. -1.
         -5    1    1    2    0  502 -0.17824571455E+02  0.47440110820E+01 -0.27123003367E+02  0.33065853994E+02  0.41800000000E+01 0. -1.
        -11    1    1    2    0    0  0.22899224613E+02 -0.82270807931E+02  0.45195457047E+02  0.96620337731E+02  0.00000000000E+00 0.  1.
         11    1    1    2    0    0 -0.11260344649E+02 -0.56064072051E+02  0.15782800111E+03  0.16786796440E+03  0.00000000000E+00 0. -1.
</event>
<event>
 6    1  0.4988969E-006  0.8998249E+02  0.7561462E-02  0.1302894E+00
          2   -1    0    0  501    0  0.00000000000E+00  0.00000000000E+00  0.49996885262E+02  0.49996885262E+02  0.00000000000E+00 0. -1.
         -2   -1    0    0    0  501 -0.00000000000E+00 -0.00000000000E+00 -0.30048062407E+03  0.30048062407E+03  0.00000000000E+00 0.  1.
          5    1    1    2  502    0 -0.36274333970E+01  0.59430288825E+02 -0.86422522214E+02  0.10503067289E+03  0.41800000000E+01 0.  1.
         -5    1    1    2    0  502 -0.10975692563E+02 -0.63812514642E+02 -0.13363128345E+03  0.14855064850E+03  0.41800000000E+01 0.  1.
        -11    1    1    2    0    0  0.34880873494E+02  0.15149886241E+01 -0.54853861054E+02  0.65022431505E+02  0.00000000000E+00 0.  1.
         11    1    1    2    0    0 -0.20277747534E+02  0.28672371937E+01  0.24423927916E+02  0.31873756431E+02  0.00000000000E+00 0. -1.
</event>
<event>
 6    1  0.4988969E-006  0.1029386E+03  0.7561462E-02  0.1274235E+00
          2   -1    0    0  501    0  0.00000000000E+00  0.00000000000E+00  0.78575578413E+03  0.78575578413E+03  0.00000000000E+00 0.  1.
         -2   -1    0    0    0  501 -0.00000000000E+00 -0.00000000000E+00 -0.17570106600E+02  0.17570106600E+02  0.00000000000E+00 0. -1.
          5    1    1    2  502    0 -0.42360585991E+02 -0.24499188555E+02  0.31567861358E+03  0.31947627292E+03  0.41800000000E+01 0. -1.
         -5    1    1    2    0  502  0.57002741162E+02 -0.15806217129E+02  0.95215221518E+02  0.11217200992E+03  0.41800000000E+01 0. -1.
        -11    1    1    2    0    0 -0.42126849727E+02 -0.70469041835E+01  0.21529724416E+03  0.21949312898E+03  0.00000000000E+00 0.  1.
         11    1    1    2    0    0  0.27484694555E+02  0.47352309867E+02  0.14199459827E+03  0.15218447891E+03  0.00000000000E+00 0. -1.
</event>
<event>
 6    1  0.4988969E-006  0.1175635E+03  0.7561462E-02  0.1247172E+00
          1   -1    0    0  501    0  0.00000000000E+00  0.00000000000E+00  0.50795793525E+03  0.50795793525E+03  0.00000000000E+00 0. -1.
         -1   -1    0    0    0  501 -0.00000000000E+00 -0.00000000000E+00 -0.30723993926E+02  0.30723993926E+02  0.00000000000E+00 0.  1.
          5    1    1    2  502    0  0.50220226009E+02 -0.47117247138E+02  0.15919617360E+03  0.17350216185E+03  0.41800000000E+01 0.  1.
         -5    1    1    2    0  502 -0.61381709290E+02 -0.10693297975E+02  0.66916085986E+02  0.91527568637E+02  0.41800000000E+01 0.  1.
        -11    1    1    2    0    0  0.12620177563E+02  0.80233863776E+02  0.15559185827E+03  0.17551515074E+03  0.00000000000E+00 0. -1.
         11    1    1    2    0    0 -0.14586942815E+01 -0.22423318663E+02  0.95529823459E+02  0.98137047943E+02  0.00000000000E+00 0.  1.
</event>
<event>
 6    1  0.4988969E-006  0.1182277E+03  0.7561462E-02  0.1246050E+00
         -1   -1    0    0    0  501 -0.00000000000E+00  0.00000000000E+00  0.82984841933E+02  0.82984841933E+02  0.00000000000E+00 0.  1.
          1   -1    0    0  501    0  0.00000000000E+00 -0.00000000000E+00 -0.18967187231E+03  0.18967187231E+03  0.00000000000E+00 0. -1.
          5    1    1    2  502    0  0.46838970365E+02 -0.39531876929E+02 -0.36876525855E+02  0.71651999257E+02  0.41800000000E+01 0.  1.
         -5    1    1    2    0  502  0.11762906317E+01  0.70979924666E+02 -0.10948210295E+01  0.71121054536E+02  0.41800000000E+01 0.  1.
        -11    1    1    2    0    0 -0.60118738710E+02 -0.52375357787E+02 -0.69388969221E+02  0.10569895883E+03  0.00000000000E+00 0. -1.
         11    1    1    2    0    0  0.12103477713E+02  0.20927310051E+02  0.67328573348E+00  0.24184701619E+02  0.00000000000E+00 0.  1.
</event>
<event>
 6    1  0.4988969E-006  0.1109648E+03  0.7561462E-02  0.1258794E+00
          2   -1    0    0  501    0  0.00000000000E+00  0.00000000000E+00  0.31370846978E+03  0.31370846978E+03  0.00000000000E+00 0. -1.
         -2   -1    0    0    0  501 -0.00000000000E+00 -0.00000000000E+00 -0.75006560643E+02  0.75006560643E+02  0.00000000000E+00 0.  1.
          5    1    1    2  502    0  0.67616830396E+02 -0.53678514165E+02  0.44044361348E+02  0.97009261426E+02  0.41800000000E+01 0. -1.
         -5    1    1    2    0  502 -0.24072809815E+02  0.14611379737E+02 -0.30531292252E+02  0.41744757717E+02  0.41800000000E+01 0. -1.
        -11    1    1    2    0    0  0.13505550270E+02  0.47477022434E+02  0.12450210432E+03  0.13392998741E+03  0.00000000000E+00 0. -1.
         11    1    1    2    0    0 -0.57049570852E+02 -0.84098880057E+01  0.10068673572E+03  0.11603102387E+03  0.00000000000E+00 0.  1.
</event>
<event>
 6    1  0.4988969E-006  0.1876185E+03  0.7561462E-02  0.1160627E+00
         -1   -1    0    0    0  501 -0.00000000000E+00  0.00000000000E+00  0.24908661127E+04  0.24908661127E+04  0.00000000000E+00 0.  1.
          1   -1    0    0  501    0  0.00000000000E+00 -0.00000000000E+00 -0.21849605191E+02  0.21849605191E+02  0.00000000000E+00 0. -1.
          5    1    1    2  502    0  0.22014161799E+01 -0.94044663676E+01  0.55603447712E+03  0.55613406870E+03  0.41800000000E+01 0. -1.
         -5    1    1    2    0  502  0.55167440087E+02  0.16646276177E+03  0.13687288684E+04  0.13799237244E+04  0.41800000000E+01 0. -1.
        -11    1    1    2    0    0  0.11773480907E+02 -0.97001617529E+02  0.24736144288E+03  0.26596167408E+03  0.00000000000E+00 0.  1.
         11    1    1    2    0    0 -0.69142337174E+02 -0.60056677869E+02  0.29689171909E+03  0.31069625072E+03  0.00000000000E+00 0. -1.
</event>
<event>
 6    1  0.4988969E-006  0.1925726E+03  0.7561462E-02  0.1156161E+00
         -4   -1    0    0    0  501 -0.00000000000E+00  0.00000000000E+00  0.33031716520E+02  0.33031716520E+02  0.00000000000E+00 0.  1.
          4   -1    0    0  501    0  0.00000000000E+00 -0.00000000000E+00 -0.12235793813E+04  0.12235793813E+04  0.00000000000E+00 0. -1.
          5    1    1    2  502    0  0.14880509925E+02 -0.17936525052E+03 -0.66532457397E+03  0.68925146630E+03  0.41800000000E+01 0. -1.
         -5    1    1    2    0  502  0.43817332305E+01  0.20450967281E+02 -0.12265618849E+03  0.12449680568E+03  0.41800000000E+01 0. -1.
        -11    1    1    2    0    0  0.29408502490E+02  0.11339646214E+03 -0.27577679512E+03  0.29962719899E+03  0.00000000000E+00 0. -1.
         11    1    1    2    0    0 -0.48670745645E+02  0.45517821096E+02 -0.12679010724E+03  0.14323562690E+03  0.00000000000E+00 0.  1.
</event>
<event>
 6    1  0.4988969E-006  0.7954934E+02  0.7561462E-02  0.1330335E+00
         -2   -1    0    0    0  501 -0.00000000000E+00  0.00000000000E+00  0.60719910496E+03  0.60719910496E+03  0.00000000000E+00 0.  1.
          2   -1    0    0  501    0  0.00000000000E+00 -0.00000000000E+00 -0.27929067596E+02  0.27929067596E+02  0.00000000000E+00 0. -1.
          5    1    1    2  502    0  0.62843070501E+02  0.56461259535E+00  0.36448108893E+03  0.36988309895E+03  0.41800000000E+01 0. -1.
         -5    1    1    2    0  502 -0.45009307404E+02  0.60318135726E+01  0.78208268944E+02  0.90533011985E+02  0.41800000000E+01 0. -1.
        -11    1    1    2    0    0  0.11887461634E+02  0.10809787004E+02 -0.13341413333E+02  0.20884361347E+02  0.00000000000E+00 0. -1.
         11    1    1    2    0    0 -0.29721224730E+02 -0.17406213172E+02  0.14992209283E+03  0.15382770028E+03  0.00000000000E+00 0.  1.
</event>
<event>
 6    1  0.4988969E-006  0.6055655E+02  0.7561462E-02  0.1395511E+00
         -1   -1    0    0    0  501 -0.00000000000E+00  0.00000000000E+00  0.12345493497E+03  0.12345493497E+03  0.00000000000E+00 0.  1.
          1   -1    0    0  501    0  0.00000000000E+00 -0.00000000000E+00 -0.11424502292E+03  0.11424502292E+03  0.00000000000E+00 0. -1.
          5    1    1    2  502    0 -0.13854019890E+02  0.18339629161E+02  0.86467364053E+02  0.89567590741E+02  0.41800000000E+01 0. -1.
         -5    1    1    2    0  502 -0.53756613601E+00  0.14335951897E+02 -0.44643261492E+02  0.47077613478E+02  0.41800000000E+01 0. -1.
        -11    1    1    2    0    0  0.40794185516E+02  0.72655856459E-02 -0.41410104325E+02  0.58128842797E+02  0.00000000000E+00 0. -1.
         11    1    1    2    0    0 -0.26402599491E+02 -0.32682846643E+02  0.87959138202E+01  0.42925910876E+02  0.00000000000E+00 0.  1.
</event>
<event>
 6    1  0.5931542E-006  0.1573134E+03  0.7561462E-02  0.1191764E+00
          3   -1    0    0  501    0  0.00000000000E+00  0.00000000000E+00  0.72937161630E+03  0.72937161630E+03  0.00000000000E+00 0. -1.
         -3   -1    0    0    0  501 -0.00000000000E+00 -0.00000000000E+00 -0.43276762405E+02  0.43276762405E+02  0.00000000000E+00 0.  1.
          5    1    1    2  502    0 -0.22854889636E+02  0.92574289886E+01  0.44986655553E+02  0.51471521734E+02  0.41800000000E+01 0. -1.
         -5    1    1    2    0  502  0.13438916734E+03 -0.79563335142E+02  0.21771272787E+03  0.26796842514E+03  0.41800000000E+01 0. -1.
        -11    1    1    2    0    0 -0.65659955859E+02  0.52903189356E+02  0.37474029256E+03  0.38410970323E+03  0.00000000000E+00 0. -1.
         11    1    1    2    0    0 -0.45874321844E+02  0.17402716797E+02  0.48655177921E+02  0.69098728607E+02  0.00000000000E+00 0.  1.
</event>
<event>
 6    1  0.4988969E-006  0.1705967E+03  0.7561462E-02  0.1177227E+00
         -2   -1    0    0    0  501 -0.00000000000E+00  0.00000000000E+00  0.37552502508E+02  0.37552502508E+02  0.00000000000E+00 0.  1.
          2   -1    0    0  501    0  0.00000000000E+00 -0.00000000000E+00 -0.10194720858E+04  0.10194720858E+04  0.00000000000E+00 0. -1.
          5    1    1    2  502    0 -0.57575365249E+02  0.73403126064E+02 -0.53803518520E+03  0.54607900025E+03  0.41800000000E+01 0. -1.
         -5    1    1    2    0  502 -0.48707991050E+02  0.43778308203E+02 -0.76941528752E+02  0.10112605949E+03  0.41800000000E+01 0. -1.
        -11    1    1    2    0    0  0.58894889973E+02 -0.34715341820E+01 -0.13022286224E+03  0.14296381872E+03  0.00000000000E+00 0. -1.
         11    1    1    2    0    0  0.47388466326E+02 -0.11370990008E+03 -0.23672000714E+03  0.26685570988E+03  0.00000000000E+00 0.  1.
</event>
<event>
 6    1  0.4988969E-006  0.1880897E+03  0.7561462E-02  0.1160196E+00
         -2   -1    0    0    0  501 -0.00000000000E+00  0.00000000000E+00  0.21390853255E+03  0.21390853255E+03  0.00000000000E+00 0.  1.
          2   -1    0    0  501    0  0.00000000000E+00 -0.00000000000E+00 -0.18836871630E+03  0.18836871630E+03  0.00000000000E+00 0. -1.
          5    1    1    2  502    0 -0.10060343319E+02 -0.25493360613E+02 -0.83033844120E+00  0.27735965910E+02  0.41800000000E+01 0. -1.
         -5    1    1    2    0  502 -0.10362922687E+03  0.14688238598E+03  0.34021014363E+02  0.18299823439E+03  0.41800000000E+01 0. -1.
        -11    1    1    2    0    0  0.66009145606E+02 -0.50035281622E+02  0.41501894300E+02  0.92645258601E+02  0.00000000000E+00 0.  1.
         11    1    1    2    0    0  0.47680424580E+02 -0.71353743747E+02 -0.49152753970E+02  0.98897789953E+02  0.00000000000E+00 0. -1.
</event>
<event>
 6    1  0.4988969E-006  0.1147988E+03  0.7561462E-02  0.1251933E+00
         -1   -1    0    0    0  501 -0.00000000000E+00  0.00000000000E+00  0.82182199232E+02  0.82182199232E+02  0.00000000000E+00 0.  1.
          1   -1    0    0  501    0  0.00000000000E+00 -0.00000000000E+00 -0.18573433612E+03  0.18573433612E+03  0.00000000000E+00 0. -1.
          5    1    1    2  502    0 -0.78799934413E+02  0.40718214251E+02  0.31455681444E+00  0.88797375982E+02  0.41800000000E+01 0. -1.
         -5    1    1    2    0  502  0.40791591637E+02  0.10432172639E+01 -0.32079021744E+02  0.52072817156E+02  0.41800000000E+01 0. -1.
        -11    1    1    2    0    0  0.12546776641E+02 -0.64461314257E+02 -0.64735597119E+02  0.92213774319E+02  0.00000000000E+00 0. -1.
         11    1    1    2    0    0  0.25461566136E+02  0.22699882742E+02 -0.70520748380E+01  0.34832567894E+02  0.00000000000E+00 0.  1.
</event>
<event>
 6    1  0.4988969E-006  0.1426727E+03  0.7561462E-02  0.1209777E+00
         -2   -1    0    0    0  501 -0.00000000000E+00  0.00000000000E+00  0.63772742618E+02  0.63772742618E+02  0.00000000000E+00 0.  1.
          2   -1    0    0  501    0  0.00000000000E+00 -0.00000000000E+00 -0.44729787483E+03  0.44729787483E+03  0.00000000000E+00 0. -1.
          5    1    1    2  502    0  0.32776080263E+02  0.46317853426E+02 -0.14499731623E+03  0.15576042211E+03  0.41800000000E+01 0.  1.
         -5    1    1    2    0  502 -0.73339863238E+01  0.73538643228E+02 -0.39566861615E+01  0.74127236348E+02  0.41800000000E+01 0.  1.
        -11    1    1    2    0    0 -0.58122424183E+02 -0.47604370578E+02 -0.10158070734E+03  0.12634489461E+03  0.00000000000E+00 0. -1.
         11    1    1    2    0    0  0.32680330243E+02 -0.72252126076E+02 -0.13299042249E+03  0.15483806438E+03  0.00000000000E+00 0.  1.
</event>
<event>
 6    1  0.4988969E-006  0.8873057E+02  0.7561462E-02  0.1305955E+00
          2   -1    0    0  501    0  0.00000000000E+00  0.00000000000E+00  0.15831772575E+03  0.15831772575E+03  0.00000000000E+00 0. -1.
         -2   -1    0    0    0  501 -0.00000000000E+00 -0.00000000000E+00 -0.14394952458E+03  0.14394952458E+03  0.00000000000E+00 0.  1.
          5    1    1    2  502    0  0.43734867642E+02 -0.16199917857E+02 -0.55369044946E+01  0.47151942671E+02  0.41800000000E+01 0. -1.
         -5    1    1    2    0  502 -0.18992511818E+02  0.46733015200E+02 -0.92340482173E+02  0.10530397553E+03  0.41800000000E+01 0.  1.
        -11    1    1    2    0    0 -0.91625220996E+01  0.22738175848E+02  0.84060369851E+02  0.87562104998E+02  0.00000000000E+00 0. -1.
         11    1    1    2    0    0 -0.15579833725E+02 -0.53271273191E+02  0.28185217987E+02  0.62249227138E+02  0.00000000000E+00 0.  1.
</event>
<event>
 6    1  0.4988969E-006  0.2110474E+03  0.7561462E-02  0.1140739E+00
         -1   -1    0    0    0  501 -0.00000000000E+00  0.00000000000E+00  0.19587571365E+03  0.19587571365E+03  0.00000000000E+00 0.  1.
          1   -1    0    0  501    0  0.00000000000E+00 -0.00000000000E+00 -0.25845577038E+03  0.25845577038E+03  0.00000000000E+00 0. -1.
          5    1    1    2  502    0 -0.53435043972E+02  0.98970989738E+01  0.21492788336E+02  0.58588982266E+02  0.41800000000E+01 0.  1.
         -5    1    1    2    0  502 -0.11155532763E+03 -0.10791908623E+03 -0.94862429041E+02  0.18195459087E+03  0.41800000000E+01 0.  1.
        -11    1    1    2    0    0  0.95264558473E+02  0.41082725401E+01  0.16085011908E+02  0.96700266868E+02  0.00000000000E+00 0. -1.
         11    1    1    2    0    0  0.69725813126E+02  0.93913714713E+02 -0.52954279248E+01  0.11708764403E+03  0.00000000000E+00 0.  1.
</event>
<event>
 6    1  0.4988969E-006  0.6397948E+02  0.7561462E-02  0.1381852E+00
         -1   -1    0    0    0  501 -0.00000000000E+00  0.00000000000E+00  0.18556958997E+03  0.18556958997E+03  0.00000000000E+00 0.  1.
          1   -1    0    0  501    0  0.00000000000E+00 -0.00000000000E+00 -0.95583235197E+02  0.95583235197E+02  0.00000000000E+00 0. -1.
          5    1    1    2  502    0  0.26427964156E+02 -0.91381014441E+01 -0.20038046383E+02  0.34654550788E+02  0.41800000000E+01 0. -1.
         -5    1    1    2    0  502 -0.56373194496E+01 -0.17676535377E+02  0.14215023903E+03  0.14341688230E+03  0.41800000000E+01 0. -1.
        -11    1    1    2    0    0  0.25374997688E+02  0.23161858973E+02  0.14567847673E+02  0.37317347234E+02  0.00000000000E+00 0.  1.
         11    1    1    2    0    0 -0.46165642394E+02  0.36527778485E+01 -0.46693685548E+02  0.65764044840E+02  0.00000000000E+00 0. -1.
</event>
<event>
 6    1  0.4988969E-006  0.8870948E+02  0.7561462E-02  0.1306007E+00
         -3   -1    0    0    0  501 -0.00000000000E+00  0.00000000000E+00  0.70607050046E+02  0.70607050046E+02  0.00000000000E+00 0.  1.
          3   -1    0    0  501    0  0.00000000000E+00 -0.00000000000E+00 -0.17319047636E+03  0.17319047636E+03  0.00000000000E+00 0. -1.
          5    1    1    2  502    0 -0.15164269247E+02  0.39825312404E+02  0.28402339400E+02  0.51382641556E+02  0.41800000000E+01 0.  1.
         -5    1    1    2    0  502  0.21206600507E+02 -0.42462954529E+02 -0.62213121880E+02  0.78363048349E+02  0.41800000000E+01 0.  1.
        -11    1    1    2    0    0 -0.46266757569E+02  0.56736023587E+01 -0.19904274603E+02  0.50685133591E+02  0.00000000000E+00 0.  1.
         11    1    1    2    0    0  0.40224426309E+02 -0.30359602332E+01 -0.48868369228E+02  0.63366702908E+02  0.00000000000E+00 0. -1.
</event>
<event>
 6    1  0.4988969E-006  0.3391052E+03  0.7561462E-02  0.1067178E+00
         -2   -1    0    0    0  501 -0.00000000000E+00  0.00000000000E+00  0.10967427309E+03  0.10967427309E+03  0.00000000000E+00 0.  1.
          2   -1    0    0  501    0  0.00000000000E+00 -0.00000000000E+00 -0.12458951076E+04  0.12458951076E+04  0.00000000000E+00 0. -1.
          5    1    1    2  502    0 -0.72101947318E+02 -0.18947783998E+03 -0.19757222215E+03  0.28311269491E+03  0.41800000000E+01 0. -1.
         -5    1    1    2    0  502 -0.13103651432E+03 -0.66404181891E+02 -0.13324072627E+03  0.19836997503E+03  0.41800000000E+01 0. -1.
        -11    1    1    2    0    0  0.87908279934E+02  0.13805056659E+03 -0.51246703721E+03  0.53796681017E+03  0.00000000000E+00 0. -1.
         11    1    1    2    0    0  0.11523018170E+03  0.11783145528E+03 -0.29294084885E+03  0.33611990056E+03  0.00000000000E+00 0.  1.
</event>
<event>
 6    1  0.4988969E-006  0.5874605E+02  0.7561462E-02  0.1403171E+00
          1   -1    0    0  501    0  0.00000000000E+00  0.00000000000E+00  0.86562217197E+02  0.86562217197E+02  0.00000000000E+00 0. -1.
         -1   -1    0    0    0  501 -0.00000000000E+00 -0.00000000000E+00 -0.14897318726E+03  0.14897318726E+03  0.00000000000E+00 0.  1.
          5    1    1    2  502    0 -0.17131054913E+02 -0.86979017147E+01 -0.99720418305E+02  0.10164035008E+03  0.41800000000E+01 0.  1.
         -5    1    1    2    0  502  0.89736213827E+01 -0.12677285330E+02  0.36834142716E+02  0.40192858988E+02  0.41800000000E+01 0.  1.
        -11    1    1    2    0    0  0.22799512274E+02 -0.24572890555E+02 -0.22411009844E+02  0.40322426420E+02  0.00000000000E+00 0.  1.
         11    1    1    2    0    0 -0.14642078743E+02  0.45948077599E+02  0.22886315367E+02  0.53379768977E+02  0.00000000000E+00 0. -1.
</event>
<event>
 6    1  0.4988969E-006  0.1133018E+03  0.7561462E-02  0.1254575E+00
         -2   -1    0    0    0  501 -0.00000000000E+00  0.00000000000E+00  0.19653363441E+02  0.19653363441E+02  0.00000000000E+00 0.  1.
          2   -1    0    0  501    0  0.00000000000E+00 -0.00000000000E+00 -0.68287334037E+03  0.68287334037E+03  0.00000000000E+00 0. -1.
          5    1    1    2  502    0  0.33220856561E+02  0.29076052839E+02 -0.85277678131E+02  0.96118660763E+02  0.41800000000E+01 0.  1.
         -5    1    1    2    0  502 -0.46046575919E+02 -0.68428712656E+02 -0.29484419389E+03  0.30619168333E+03  0.41800000000E+01 0.  1.
        -11    1    1    2    0    0  0.33654125788E+02 -0.18346476843E+02 -0.98641688914E+02  0.10582710516E+03  0.00000000000E+00 0.  1.
         11    1    1    2    0    0 -0.20828406431E+02  0.57699136660E+02 -0.18445641600E+03  0.19438925456E+03  0.00000000000E+00 0. -1.
</event>
<event>
 6    1  0.4988969E-006  0.9419155E+02  0.7561462E-02  0.1293007E+00
          2   -1    0    0  501    0  0.00000000000E+00  0.00000000000E+00  0.32755623348E+03  0.32755623348E+03  0.00000000000E+00 0.  1.
         -2   -1    0    0    0  501 -0.00000000000E+00 -0.00000000000E+00 -0.60195742299E+02  0.60195742299E+02  0.00000000000E+00 0. -1.
          5    1    1    2  502    0 -0.24709138427E+02  0.58859941589E+02  0.89050330230E+02  0.10964701528E+03  0.41800000000E+01 0. -1.
         -5    1    1    2    0  502  0.36824991804E+02  0.31592998812E+01 -0.24599506158E+02  0.44594498544E+02  0.41800000000E+01 0. -1.
        -11    1    1    2    0    0 -0.29181573546E+02 -0.75614015536E+01  0.91234920819E+01  0.31495668525E+02  0.00000000000E+00 0. -1.
         11    1    1    2    0    0  0.17065720169E+02 -0.54457839916E+02  0.19378617502E+03  0.20201479343E+03  0.00000000000E+00 0.  1.
</event>
<event>
 6    1  0.4988969E-006  0.2480068E+03  0.7561462E-02  0.1114571E+00
          2   -1    0    0  501    0  0.00000000000E+00  0.00000000000E+00  0.77410992396E+03  0.77410992396E+03  0.00000000000E+00 0.  1.
         -2   -1    0    0    0  501 -0.00000000000E+00 -0.00000000000E+00 -0.85590075161E+02  0.85590075161E+02  0.00000000000E+00 0. -1.
          5    1    1    2  502    0 -0.15383367258E+02  0.69892261379E+02  0.13202787427E+03  0.15023451060E+03  0.41800000000E+01 0. -1.
         -5    1    1    2    0  502  0.11744775584E+03  0.13650419593E+03  0.14647329832E+03  0.23216216396E+03  0.41800000000E+01 0. -1.
        -11    1    1    2    0    0 -0.30607678457E+02 -0.56602607065E+01  0.57835283886E+02  0.65679438137E+02  0.00000000000E+00 0.  1.
         11    1    1    2    0    0 -0.71456710123E+02 -0.20073619660E+03  0.35218339233E+03  0.41162388643E+03  0.00000000000E+00 0. -1.
</event>
<event>
 6    1  0.4988969E-006  0.1591564E+03  0.7561462E-02  0.1189652E+00
         -1   -1    0    0    0  501 -0.00000000000E+00  0.00000000000E+00  0.43924690234E+03  0.43924690234E+03  0.00000000000E+00 0.  1.
          1   -1    0    0  501    0  0.00000000000E+00 -0.00000000000E+00 -0.75911254221E+02  0.75911254221E+02  0.00000000000E+00 0. -1.
          5    1    1    2  502    0 -0.23946732520E+02  0.78730469711E+01  0.50195626826E+02  0.56324987523E+02  0.41800000000E+01 0.  1.
         -5    1    1    2    0  502  0.13534171967E+03 -0.71499652850E+02  0.23504556826E+03  0.28052356942E+03  0.41800000000E+01 0.  1.
        -11    1    1    2    0    0 -0.10769397443E+03  0.38699427323E+02  0.94354623471E+02  0.14831868653E+03  0.00000000000E+00 0.  1.
         11    1    1    2    0    0 -0.37010127233E+01  0.24927178556E+02 -0.16260170433E+02  0.29990913098E+02  0.00000000000E+00 0. -1.
</event>
<event>
 6    1  0.4988969E-006  0.2076612E+03  0.7561462E-02  0.1143432E+00
         -1   -1    0    0    0  501 -0.00000000000E+00  0.00000000000E+00  0.12909443059E+03  0.12909443059E+03  0.00000000000E+00 0.  1.
          1   -1    0    0  501    0  0.00000000000E+00 -0.00000000000E+00 -0.39159014922E+03  0.39159014922E+03  0.00000000000E+00 0. -1.
          5    1    1    2  502    0  0.17834177742E+03 -0.26920910938E+02 -0.21300242075E+03  0.27913801007E+03  0.41800000000E+01 0. -1.
         -5    1    1    2    0  502  0.12594209298E+02  0.28316253456E+02  0.25055378286E+01  0.31371554591E+02  0.41800000000E+01 0. -1.
        -11    1    1    2    0    0 -0.12291680599E+03  0.33210286091E+02 -0.32754528914E+02  0.13146985761E+03  0.00000000000E+00 0.  1.
         11    1    1    2    0    0 -0.68019180732E+02 -0.34605628609E+02 -0.19244306795E+02  0.78705157537E+02  0.00000000000E+00 0. -1.
</event>
<event>
 6    1  0.6313546E-006  0.2542141E+03  0.7561462E-02  0.1110670E+00
         -1   -1    0    0    0  501 -0.00000000000E+00  0.00000000000E+00  0.85399220809E+02  0.85399220809E+02  0.00000000000E+00 0.  1.
          1   -1    0    0  501    0  0.00000000000E+00 -0.00000000000E+00 -0.80893607427E+03  0.80893607427E+03  0.00000000000E+00 0. -1.
          5    1    1    2  502    0 -0.36120032007E+01 -0.27665674393E+02 -0.18469634607E+02  0.33719963067E+02  0.41800000000E+01 0. -1.
         -5    1    1    2    0  502 -0.23520927457E+03  0.32452097794E+02 -0.34577115733E+03  0.41946597852E+03  0.41800000000E+01 0. -1.
        -11    1    1    2    0    0  0.18685480446E+03 -0.21657089001E+02 -0.32819829857E+03  0.37828279188E+03  0.00000000000E+00 0. -1.
         11    1    1    2    0    0  0.51966473320E+02  0.16870665600E+02 -0.31097762952E+02  0.62866561603E+02  0.00000000000E+00 0.  1.
</event>
<event>
 6    1  0.4988969E-006  0.1441431E+03  0.7561462E-02  0.1207860E+00
          1   -1    0    0  501    0  0.00000000000E+00  0.00000000000E+00  0.19011121285E+03  0.19011121285E+03  0.00000000000E+00 0. -1.
         -1   -1    0    0    0  501 -0.00000000000E+00 -0.00000000000E+00 -0.12730977146E+03  0.12730977146E+03  0.00000000000E+00 0.  1.
          5    1    1    2  502    0  0.24207875747E+02 -0.74607606097E+02  0.68130571359E+01  0.78842921579E+02  0.41800000000E+01 0.  1.
         -5    1    1    2    0  502  0.67863521048E+02  0.37249453539E+02 -0.27411073585E+02  0.82230278080E+02  0.41800000000E+01 0.  1.
        -11    1    1    2    0    0 -0.59507370423E+02 -0.22863829669E+02  0.38401530584E+02  0.74421498191E+02  0.00000000000E+00 0.  1.
         11    1    1    2    0    0 -0.32564026372E+02  0.60221982226E+02  0.44997927255E+02  0.81926286466E+02  0.00000000000E+00 0. -1.
</event>
<event>
 6    1  0.4988969E-006  0.1316233E+03  0.7561462E-02  0.1225067E+00
         -4   -1    0    0    0  501 -0.00000000000E+00  0.00000000000E+00  0.38313591794E+02  0.38313591794E+02  0.00000000000E+00 0.  1.
          4   -1    0    0  501    0  0.00000000000E+00 -0.00000000000E+00 -0.75468711068E+03  0.75468711068E+03  0.00000000000E+00 0. -1.
          5    1    1    2  502    0  0.34008596003E+02  0.12037333766E+02 -0.34649787519E+02  0.50195240625E+02  0.41800000000E+01 0.  1.
         -5    1    1    2    0  502 -0.97219340384E+02 -0.47079118524E+02 -0.94214138621E+02  0.14339393244E+03  0.41800000000E+01 0.  1.
        -11    1    1    2    0    0  0.88254399274E+02  0.30508970747E+02 -0.45645379715E+03  0.46590739984E+03  0.00000000000E+00 0.  1.
         11    1    1    2    0    0 -0.25043654893E+02  0.45328140109E+01 -0.13105579559E+03  0.13350412957E+03  0.00000000000E+00 0. -1.
</event>
<event>
 6    1  0.4988969E-006  0.1061322E+03  0.7561462E-02  0.1267905E+00
         -2   -1    0    0    0  501 -0.00000000000E+00  0.00000000000E+00  0.60190357481E+02  0.60190357481E+02  0.00000000000E+00 0.  1.
          2   -1    0    0  501    0  0.00000000000E+00 -0.00000000000E+00 -0.32950559522E+03  0.32950559522E+03  0.00000000000E+00 0. -1.
          5    1    1    2  502    0  0.55664315358E+02 -0.16286044488E+02 -0.73447134101E+02  0.93678733750E+02  0.41800000000E+01 0. -1.
         -5    1    1    2    0  502 -0.37237999041E+01  0.74495908070E+02 -0.90324459543E+01  0.75250013188E+02  0.41800000000E+01 0. -1.
        -11    1    1    2    0    0 -0.21975477018E+02 -0.35742480861E+02 -0.14474903322E+02  0.44384336814E+02  0.00000000000E+00 0.  1.
         11    1    1    2    0    0 -0.29965038436E+02 -0.22467382721E+02 -0.17236075436E+03  0.17638286895E+03  0.00000000000E+00 0. -1.
</event>
<event>
 6    1  0.4988969E-006  0.2419871E+03  0.7561462E-02  0.1118476E+00
          1   -1    0    0  501    0  0.00000000000E+00  0.00000000000E+00  0.17653089186E+03  0.17653089186E+03  0.00000000000E+00 0. -1.
         -1   -1    0    0    0  501 -0.00000000000E+00 -0.00000000000E+00 -0.41640156028E+03  0.41640156028E+03  0.00000000000E+00 0.  1.
          5    1    1    2  502    0  0.16593525548E+03 -0.10715783349E+03 -0.22016908135E+03  0.29581955154E+03  0.41800000000E+01 0.  1.
         -5    1    1    2    0  502  0.44427197398E+02  0.17046720850E+02 -0.37339423617E+01  0.47914311911E+02  0.41800000000E+01 0.  1.
        -11    1    1    2    0    0 -0.12979903220E+03  0.19013530850E+02 -0.43623609488E+02  0.13824732337E+03  0.00000000000E+00 0.  1.
         11    1    1    2    0    0 -0.80563420679E+02  0.71097581792E+02  0.27655964789E+02  0.11095126532E+03  0.00000000000E+00 0. -1.
</event>
<event>
 6    1  0.4988969E-006  0.2648169E+03  0.7561462E-02  0.1104283E+00
          1   -1    0    0  501    0  0.00000000000E+00  0.00000000000E+00  0.12052493825E+04  0.12052493825E+04  0.00000000000E+00 0. -1.
         -1   -1    0    0    0  501 -0.00000000000E+00 -0.00000000000E+00 -0.78072122683E+02  0.78072122683E+02  0.00000000000E+00 0.  1.
          5    1    1    2  502    0 -0.77459624520E+02 -0.81821139616E+02  0.15351106390E+03  0.19046735011E+03  0.41800000000E+01 0.  1.
         -5    1    1    2    0  502 -0.15568345418E+03  0.57763048942E+01  0.11120950521E+03  0.19145686212E+03  0.41800000000E+01 0.  1.
        -11    1    1    2    0    0  0.16295397472E+03  0.94620812453E+02  0.65704380226E+03  0.68353028764E+03  0.00000000000E+00 0. -1.
         11    1    1    2    0    0  0.70189103979E+02 -0.18575977731E+02  0.20541288844E+03  0.21786700531E+03  0.00000000000E+00 0.  1.
</event>
<event>
 6    1  0.4988969E-006  0.1142913E+03  0.7561462E-02  0.1252823E+00
          3   -1    0    0  501    0  0.00000000000E+00  0.00000000000E+00  0.97590248722E+01  0.97590248722E+01  0.00000000000E+00 0. -1.
         -3   -1    0    0    0  501 -0.00000000000E+00 -0.00000000000E+00 -0.18069515182E+04  0.18069515182E+04  0.00000000000E+00 0.  1.
          5    1    1    2  502    0  0.50802682740E+02  0.55506529601E+02 -0.10738168475E+04  0.10764580725E+04  0.41800000000E+01 0.  1.
         -5    1    1    2    0  502 -0.60493816761E+01 -0.47636171993E+02 -0.30780873214E+03  0.31155976615E+03  0.41800000000E+01 0.  1.
        -11    1    1    2    0    0 -0.59632379449E+02  0.28228093279E+02 -0.24659237586E+03  0.25526583352E+03  0.00000000000E+00 0.  1.
         11    1    1    2    0    0  0.14879078386E+02 -0.36098450887E+02 -0.16897453780E+03  0.17342687092E+03  0.00000000000E+00 0. -1.
</event>
<event>
 6    1  0.4988969E-006  0.1081117E+03  0.7561462E-02  0.1264107E+00
         -1   -1    0    0    0  501 -0.00000000000E+00  0.00000000000E+00  0.29010451127E+03  0.29010451127E+03  0.00000000000E+00 0.  1.
          1   -1    0    0  501    0  0.00000000000E+00 -0.00000000000E+00 -0.61016383436E+02  0.61016383436E+02  0.00000000000E+00 0. -1.
          5    1    1    2  502    0 -0.62707609156E+02  0.56742051601E+02  0.17908598055E+03  0.19809383003E+03  0.41800000000E+01 0.  1.
         -5    1    1    2    0  502  0.19746975617E+01 -0.32574908170E+02  0.40971992831E+01  0.33155444722E+02  0.41800000000E+01 0.  1.
        -11    1    1    2    0    0  0.75736647576E+02 -0.73188512974E+01  0.90037530724E+01  0.76620316756E+02  0.00000000000E+00 0. -1.
         11    1    1    2    0    0 -0.15003735982E+02 -0.16848292134E+02  0.36901194929E+02  0.43251303200E+02  0.00000000000E+00 0.  1.
</event>
<event>
 6    1  0.4988969E-006  0.9355232E+02  0.7561462E-02  0.1294470E+00
         -2   -1    0    0    0  501 -0.00000000000E+00  0.00000000000E+00  0.23299145179E+02  0.23299145179E+02  0.00000000000E+00 0.  1.
          2   -1    0    0  501    0  0.00000000000E+00 -0.00000000000E+00 -0.91475710667E+03  0.91475710667E+03  0.00000000000E+00 0. -1.
          5    1    1    2  502    0  0.44539262254E+02 -0.17560396840E+02 -0.38231917335E+03  0.38532782942E+03  0.41800000000E+01 0. -1.
         -5    1    1    2    0  502  0.18178647408E+02 -0.33074298534E+02 -0.18685435840E+02  0.42320094018E+02  0.41800000000E+01 0.  1.
        -11    1    1    2    0    0  0.68606970799E+01 -0.76745545097E+01  0.12728972181E+01  0.10372474086E+02  0.00000000000E+00 0.  1.
         11    1    1    2    0    0 -0.69578606742E+02  0.58309249884E+02 -0.49172624952E+03  0.50003585432E+03  0.00000000000E+00 0. -1.
</event>
<event>
 6    1  0.4988969E-006  0.1208521E+03  0.7561462E-02  0.1241698E+00
         -1   -1    0    0    0  501 -0.00000000000E+00  0.00000000000E+00  0.35911643491E+02  0.35911643491E+02  0.00000000000E+00 0.  1.
          1   -1    0    0  501    0  0.00000000000E+00 -0.00000000000E+00 -0.46896090839E+03  0.46896090839E+03  0.00000000000E+00 0. -1.
          5    1    1    2  502    0  0.17051065547E+02 -0.49457853260E+02 -0.75708200286E+02  0.92119607445E+02  0.41800000000E+01 0. -1.
         -5    1    1    2    0  502 -0.85138350199E+02  0.31727113017E+02 -0.14288938639E+03  0.16938121950E+03  0.41800000000E+01 0. -1.
        -11    1    1    2    0    0  0.46537174322E+02 -0.23209190796E+02 -0.48565347949E+02  0.71154537120E+02  0.00000000000E+00 0.  1.
         11    1    1    2    0    0  0.21550110329E+02  0.40939931039E+02 -0.16588633027E+03  0.17221718782E+03  0.00000000000E+00 0. -1.
</event>
<event>
 6    1  0.4988969E-006  0.1361801E+03  0.7561462E-02  0.1218563E+00
         -1   -1    0    0    0  501 -0.00000000000E+00  0.00000000000E+00  0.11726469465E+03  0.11726469465E+03  0.00000000000E+00 0.  1.
          1   -1    0    0  501    0  0.00000000000E+00 -0.00000000000E+00 -0.19692648803E+03  0.19692648803E+03  0.00000000000E+00 0. -1.
          5    1    1    2  502    0 -0.43477838087E+02  0.15463445060E+02 -0.35763080396E+02  0.58531281015E+02  0.41800000000E+01 0.  1.
         -5    1    1    2    0  502 -0.10805630860E+02 -0.10476324687E+03  0.12410170885E+02  0.10613003483E+03  0.41800000000E+01 0.  1.
        -11    1    1    2    0    0  0.49768609163E+01 -0.92067518579E+01  0.15011723907E+02  0.18299871011E+02  0.00000000000E+00 0.  1.
         11    1    1    2    0    0  0.49306608031E+02  0.98506553664E+02 -0.71320607778E+02  0.13122999582E+03  0.00000000000E+00 0. -1.
</event>
<event>
 6    1  0.4988969E-006  0.3487811E+03  0.7561462E-02  0.1063116E+00
          2   -1    0    0  501    0  0.00000000000E+00  0.00000000000E+00  0.21649007384E+04  0.21649007384E+04  0.00000000000E+00 0. -1.
         -2   -1    0    0    0  501 -0.00000000000E+00 -0.00000000000E+00 -0.76281870924E+02  0.76281870924E+02  0.00000000000E+00 0.  1.
          5    1    1    2  502    0  0.43799416475E+02  0.40884308791E+02  0.45533323599E+02  0.75370229844E+02  0.41800000000E+01 0. -1.
         -5    1    1    2    0  502  0.29047935558E+03 -0.13866495879E+02  0.45384518014E+03  0.53903938229E+03  0.41800000000E+01 0. -1.
        -11    1    1    2    0    0 -0.18355087216E+03  0.29063317607E+02  0.79784714595E+03  0.81920428917E+03  0.00000000000E+00 0.  1.
         11    1    1    2    0    0 -0.15072789989E+03 -0.56081130518E+02  0.79139321782E+03  0.80756870804E+03  0.00000000000E+00 0. -1.
</event>
<event>
 6    1  0.4988969E-006  0.1040279E+03  0.7561462E-02  0.1272047E+00
          1   -1    0    0  501    0  0.00000000000E+00  0.00000000000E+00  0.14702736498E+02  0.14702736498E+02  0.00000000000E+00 0. -1.
         -1   -1    0    0    0  501 -0.00000000000E+00 -0.00000000000E+00 -0.15248068028E+04  0.15248068028E+04  0.00000000000E+00 0.  1.
          5    1    1    2  502    0  0.53735333489E+01  0.69085900910E+02 -0.54916707474E+03  0.55353742867E+03  0.41800000000E+01 0. -1.
         -5    1    1    2    0  502 -0.30603988189E+00 -0.44390298408E+02 -0.76503824031E+03  0.76633646252E+03  0.41800000000E+01 0.  1.
        -11    1    1    2    0    0  0.37664657572E+02 -0.33512297304E+02 -0.69076738684E+02  0.85517812926E+02  0.00000000000E+00 0.  1.
         11    1    1    2    0    0 -0.42732151039E+02  0.88166948011E+01 -0.12682201253E+03  0.13411783513E+03  0.00000000000E+00 0. -1.
</event>
<event>
 6    1  0.4988969E-006  0.1383164E+03  0.7561462E-02  0.1215612E+00
          2   -1    0    0  501    0  0.00000000000E+00  0.00000000000E+00  0.20952248563E+03  0.20952248563E+03  0.00000000000E+00 0. -1.
         -2   -1    0    0    0  501 -0.00000000000E+00 -0.00000000000E+00 -0.99840676335E+02  0.99840676335E+02  0.00000000000E+00 0.  1.
          5    1    1    2  502    0  0.67956992849E+02 -0.85167819869E+02  0.35533217058E+02  0.11468126409E+03  0.41800000000E+01 0. -1.
         -5    1    1    2    0  502  0.13491933531E+02  0.45017211368E+02  0.40764035426E+02  0.62351909144E+02  0.41800000000E+01 0.  1.
        -11    1    1    2    0    0 -0.12497226662E+02  0.49298960713E+02 -0.78644086329E+01  0.51462774165E+02  0.00000000000E+00 0.  1.
         11    1    1    2    0    0 -0.68951699718E+02 -0.91483522114E+01  0.41248965448E+02  0.80867214573E+02  0.00000000000E+00 0. -1.
</event>
<event>
 6    1  0.4988969E-006  0.9113347E+02  0.7561462E-02  0.1300130E+00
         -3   -1    0    0    0  501 -0.00000000000E+00  0.00000000000E+00  0.10088167011E+04  0.10088167011E+04  0.00000000000E+00 0.  1.
          3   -1    0    0  501    0  0.00000000000E+00 -0.00000000000E+00 -0.23070040963E+02  0.23070040963E+02  0.00000000000E+00 0. -1.
          5    1    1    2  502    0  0.47479846693E+02 -0.13174326092E+02  0.43149110921E+03  0.43431549413E+03  0.41800000000E+01 0. -1.
         -5    1    1    2    0  502 -0.54037498549E+02  0.60676275848E+02  0.45778222410E+03  0.46495558799E+03  0.41800000000E+01 0. -1.
        -11    1    1    2    0    0  0.12979169530E+02 -0.26698108464E+02  0.10508839073E+03  0.10920081365E+03  0.00000000000E+00 0.  1.
         11    1    1    2    0    0 -0.64215176739E+01 -0.20803841291E+02 -0.86150638888E+01  0.23414846305E+02  0.00000000000E+00 0. -1.
</event>
<event>
 6    1  0.4988969E-006  0.1549592E+03  0.7561462E-02  0.1194508E+00
         -4   -1    0    0    0  501 -0.00000000000E+00  0.00000000000E+00  0.24247195121E+03  0.24247195121E+03  0.00000000000E+00 0.  1.
          4   -1    0    0  501    0  0.00000000000E+00 -0.00000000000E+00 -0.13860640517E+03  0.13860640517E+03  0.00000000000E+00 0. -1.
          5    1    1    2  502    0  0.11954087882E+02  0.36576909972E+01  0.54655054837E+02  0.56222116109E+02  0.41800000000E+01 0. -1.
         -5    1    1    2    0  502 -0.13708002229E+03  0.26570554083E+02  0.84751937153E+02  0.16339305403E+03  0.41800000000E+01 0.  1.
        -11    1    1    2    0    0  0.13526220486E+03 -0.41881848434E+02 -0.28271322211E+02  0.14439259314E+03  0.00000000000E+00 0. -1.
         11    1    1    2    0    0 -0.10136270456E+02  0.11653603353E+02 -0.72701237382E+01  0.17070593107E+02  0.00000000000E+00 0.  1.
</event>
<event>
 6    1  0.4988969E-006  0.8791245E+02  0.7561462E-02  0.1307987E+00
          1   -1    0    0  501    0  0.00000000000E+00  0.00000000000E+00  0.33329925273E+02  0.33329925273E+02  0.00000000000E+00 0. -1.
         -1   -1    0    0    0  501 -0.00000000000E+00 -0.00000000000E+00 -0.40984879808E+03  0.40984879808E+03  0.00000000000E+00 0.  1.
          5    1    1    2  502    0 -0.40959646249E+02 -0.11957439902E+02 -0.16953747068E+03  0.17487452460E+03  0.41800000000E+01 0.  1.
         -5    1    1    2    0  502  0.60524032876E+02  0.41375840762E+02 -0.96933172464E+02  0.12160851565E+03  0.41800000000E+01 0.  1.
        -11    1    1    2    0    0  0.10727125547E+02 -0.27089549273E+02 -0.11250408759E+03  0.11621568150E+03  0.00000000000E+00 0.  1.
         11    1    1    2    0    0 -0.30291512174E+02 -0.23288515873E+01  0.24558579266E+01  0.30480001602E+02  0.00000000000E+00 0. -1.
</event>
<event>
 6    1  0.4988969E-006  0.7831935E+02  0.7561462E-02  0.1333890E+00
         -2   -1    0    0    0  501 -0.00000000000E+00  0.00000000000E+00  0.27602153446E+02  0.27602153446E+02  0.00000000000E+00 0.  1.
          2   -1    0    0  501    0  0.00000000000E+00 -0.00000000000E+00 -0.50223781283E+03  0.50223781283E+03  0.00000000000E+00 0. -1.
          5    1    1    2  502    0 -0.14067101250E+02 -0.29056209292E+02  0.31300764226E+01  0.32701932885E+02  0.41800000000E+01 0.  1.
         -5    1    1    2    0  502  0.33627819800E+02 -0.40286224428E+01 -0.20544778824E+03  0.20826263745E+03  0.41800000000E+01 0.  1.
        -11    1    1    2    0    0  0.31260635963E+02  0.43009035482E+01 -0.15058937418E+03  0.15385995174E+03  0.00000000000E+00 0.  1.
         11    1    1    2    0    0 -0.50821354513E+02  0.28783928187E+02 -0.12172857338E+03  0.13501544420E+03  0.00000000000E+00 0. -1.
</event>
<event>
 6    1  0.4988969E-006  0.1090623E+03  0.7561462E-02  0.1262316E+00
         -1   -1    0    0    0  501 -0.00000000000E+00  0.00000000000E+00  0.41523866094E+03  0.41523866094E+03  0.00000000000E+00 0.  1.
          1   -1    0    0  501    0  0.00000000000E+00 -0.00000000000E+00 -0.52010853146E+02  0.52010853146E+02  0.00000000000E+00 0. -1.
          5    1    1    2  502    0 -0.31115352406E+02  0.14418619620E+02  0.24271290683E+03  0.24515931410E+03  0.41800000000E+01 0.  1.
         -5    1    1    2    0  502 -0.57738116210E+02  0.33875935821E+01  0.23375421193E+02  0.62522384549E+02  0.41800000000E+01 0.  1.
        -11    1    1    2    0    0  0.18490851182E+02 -0.46161745317E+02  0.48436661059E+02  0.69418502164E+02  0.00000000000E+00 0. -1.
         11    1    1    2    0    0  0.70362617433E+02  0.28355532115E+02  0.48702818712E+02  0.90149313276E+02  0.00000000000E+00 0.  1.
</event>
<event>
 6    1  0.4988969E-006  0.1340115E+03  0.7561462E-02  0.1221622E+00
          1   -1    0    0  501    0  0.00000000000E+00  0.00000000000E+00  0.14367435976E+03  0.14367435976E+03  0.00000000000E+00 0. -1.
         -1   -1    0    0    0  501 -0.00000000000E+00 -0.00000000000E+00 -0.17130284650E+03  0.17130284650E+03  0.00000000000E+00 0.  1.
          5    1    1    2  502    0  0.31769351238E+02  0.76708586160E+02 -0.36170472420E+02  0.90660213676E+02  0.41800000000E+01 0.  1.
         -5    1    1    2    0  502  0.60556630156E+02 -0.44908207681E+02 -0.28606126905E+02  0.80744259669E+02  0.41800000000E+01 0.  1.
        -11    1    1    2    0    0 -0.12047218946E+02 -0.26286685095E+02  0.54096199807E+02  0.61339417434E+02  0.00000000000E+00 0. -1.
         11    1    1    2    0    0 -0.80278762448E+02 -0.55136933837E+01 -0.16948087218E+02  0.82233315482E+02  0.00000000000E+00 0.  1.
</event>
<event>
 6    1  0.4988969E-006  0.1072770E+03  0.7561462E-02  0.1265697E+00
          2   -1    0    0  501    0  0.00000000000E+00  0.00000000000E+00  0.25501123754E+03  0.25501123754E+03  0.00000000000E+00 0. -1.
         -2   -1    0    0    0  501 -0.00000000000E+00 -0.00000000000E+00 -0.64116662137E+02  0.64116662137E+02  0.00000000000E+00 0.  1.
          5    1    1    2  502    0  0.25441421901E+00 -0.45979112967E+02 -0.92169958404E+01  0.47080452081E+02  0.41800000000E+01 0.  1.
         -5    1    1    2    0  502  0.54857637605E+02  0.52034604573E+02  0.68229012300E+02  0.10192953937E+03  0.41800000000E+01 0.  1.
        -11    1    1    2    0    0 -0.77314682477E+01  0.31351817813E+02  0.95048929976E+01  0.33660883416E+02  0.00000000000E+00 0.  1.
         11    1    1    2    0    0 -0.47380583576E+02 -0.37407309420E+02  0.12237766595E+03  0.13645702482E+03  0.00000000000E+00 0. -1.
</event>
<event>
 6    1  0.4988969E-006  0.7670100E+02  0.7561462E-02  0.1338683E+00
          2   -1    0    0  501    0  0.00000000000E+00  0.00000000000E+00  0.41308865829E+03  0.41308865829E+03  0.00000000000E+00 0. -1.
         -2   -1    0    0    0  501 -0.00000000000E+00 -0.00000000000E+00 -0.43626636714E+02  0.43626636714E+02  0.00000000000E+00 0.  1.
          5    1    1    2  502    0  0.21706144297E+02 -0.34874602669E+02 -0.21935187191E+02  0.46754886896E+02  0.41800000000E+01 0. -1.
         -5    1    1    2    0  502 -0.15274676984E+02  0.27467524401E+02  0.91225564782E+02  0.96578241460E+02  0.41800000000E+01 0. -1.
        -11    1    1    2    0    0  0.31169189035E+02 -0.17073037364E+02  0.20630399403E+03  0.20934264950E+03  0.00000000000E+00 0.  1.
         11    1    1    2    0    0 -0.37600656349E+02  0.24480115632E+02  0.93867649959E+02  0.10403951715E+03  0.00000000000E+00 0. -1.
</event>
<event>
 6    1  0.4988969E-006  0.1202245E+03  0.7561462E-02  0.1242727E+00
          2   -1    0    0  501    0  0.00000000000E+00  0.00000000000E+00  0.79306554136E+03  0.79306554136E+03  0.00000000000E+00 0. -1.
         -2   -1    0    0    0  501 -0.00000000000E+00 -0.00000000000E+00 -0.23749212699E+02  0.23749212699E+02  0.00000000000E+00 0.  1.
          5    1    1    2  502    0  0.38732455150E+02 -0.37974693822E+02  0.16965791875E+03  0.17816723113E+03  0.41800000000E+01 0.  1.
         -5    1    1    2    0  502 -0.39497326216E+01  0.66096215702E+02  0.74303542869E+02  0.99613247115E+02  0.41800000000E+01 0.  1.
        -11    1    1    2    0    0  0.37500457940E+02 -0.29008777432E+02  0.24226179013E+03  0.24685738488E+03  0.00000000000E+00 0.  1.
         11    1    1    2    0    0 -0.72283180469E+02  0.88725555237E+00  0.28309307691E+03  0.29217689093E+03  0.00000000000E+00 0. -1.
</event>
<event>
 6    1  0.4988969E-006  0.2155781E+03  0.7561462E-02  0.1137223E+00
          2   -1    0    0  501    0  0.00000000000E+00  0.00000000000E+00  0.34696644592E+03  0.34696644592E+03  0.00000000000E+00 0. -1.
         -2   -1    0    0    0  501 -0.00000000000E+00 -0.00000000000E+00 -0.17387815562E+03  0.17387815562E+03  0.00000000000E+00 0.  1.
          5    1    1    2  502    0 -0.65265267145E+02 -0.78471323859E+02  0.44114953950E+02  0.11126951661E+03  0.41800000000E+01 0.  1.
         -5    1    1    2    0  502 -0.11440600364E+03 -0.11907068489E+02 -0.50431223598E+02  0.12566341019E+03  0.41800000000E+01 0.  1.
        -11    1    1    2    0    0  0.22962010035E+02  0.45388367952E+02  0.16603042443E+02  0.53507185204E+02  0.00000000000E+00 0.  1.
         11    1    1    2    0    0  0.15670926075E+03  0.44990024396E+02  0.16280151751E+03  0.23040448954E+03  0.00000000000E+00 0. -1.
</event>
<event>
 6    1  0.4988969E-006  0.2150303E+03  0.7561462E-02  0.1137643E+00
          2   -1    0    0  501    0  0.00000000000E+00  0.00000000000E+00  0.27160189097E+03  0.27160189097E+03  0.00000000000E+00 0. -1.
         -2   -1    0    0    0  501 -0.00000000000E+00 -0.00000000000E+00 -0.20266968376E+03  0.20266968376E+03  0.00000000000E+00 0.  1.
          5    1    1    2  502    0  0.76489029762E+02  0.48616455383E+02 -0.36433431232E+02  0.97770132041E+02  0.41800000000E+01 0. -1.
         -5    1    1    2    0  502  0.11523123013E+03 -0.72699999495E+02 -0.71260624126E+01  0.13649827651E+03  0.41800000000E+01 0. -1.
        -11    1    1    2    0    0 -0.17216420020E+03  0.21627985081E+00  0.11791648347E+03  0.20867404171E+03  0.00000000000E+00 0. -1.
         11    1    1    2    0    0 -0.19556059689E+02  0.23867264261E+02 -0.54247826049E+01  0.31329124472E+02  0.00000000000E+00 0.  1.
</event>
<event>
 6    1  0.4988969E-006  0.9159021E+02  0.7561462E-02  0.1299046E+00
         -3   -1    0    0    0  501 -0.00000000000E+00  0.00000000000E+00  0.88550800505E+03  0.88550800505E+03  0.00000000000E+00 0.  1.
          3   -1    0    0  501    0  0.00000000000E+00 -0.00000000000E+00 -0.14558021320E+02  0.14558021320E+02  0.00000000000E+00 0. -1.
          5    1    1    2  502    0 -0.45081286898E+01  0.37790336327E+02  0.47107557468E+03  0.47262892654E+03  0.41800000000E+01 0.  1.
         -5    1    1    2    0  502  0.29982098762E+00 -0.57468495674E+02  0.13911617489E+03  0.15057722405E+03  0.41800000000E+01 0.  1.
        -11    1    1    2    0    0 -0.33108040277E+02  0.33855605369E+02  0.18798188846E+03  0.19385441634E+03  0.00000000000E+00 0.  1.
         11    1    1    2    0    0  0.37316347980E+02 -0.14177446022E+02  0.72776345692E+02  0.83005459426E+02  0.00000000000E+00 0. -1.
</event>
<event>
 6    1  0.4988969E-006  0.1572073E+03  0.7561462E-02  0.1191886E+00
          1   -1    0    0  501    0  0.00000000000E+00  0.00000000000E+00  0.74782133190E+02  0.74782133190E+02  0.00000000000E+00 0. -1.
         -1   -1    0    0    0  501 -0.00000000000E+00 -0.00000000000E+00 -0.45985654074E+03  0.45985654074E+03  0.00000000000E+00 0.  1.
          5    1    1    2  502    0  0.27060014209E+02 -0.31667754043E+02 -0.49384090860E+02  0.64740650639E+02  0.41800000000E+01 0. -1.
         -5    1    1    2    0  502 -0.39056073535E+02  0.14645470812E+03 -0.26588059307E+03  0.30607894502E+03  0.41800000000E+01 0.  1.
        -11    1    1    2    0    0  0.23987741256E+02 -0.93080789104E+02 -0.90122735761E+02  0.13176324424E+03  0.00000000000E+00 0.  1.
         11    1    1    2    0    0 -0.11991681929E+02 -0.21706164978E+02  0.20313012141E+02  0.32055834037E+02  0.00000000000E+00 0. -1.
</event>
<event>
 6    1  0.4988969E-006  0.1001760E+03  0.7561462E-02  0.1279926E+00
         -2   -1    0    0    0  501 -0.00000000000E+00  0.00000000000E+00  0.40874743667E+02  0.40874743667E+02  0.00000000000E+00 0.  1.
          2   -1    0    0  501    0  0.00000000000E+00 -0.00000000000E+00 -0.40459513518E+03  0.40459513518E+03  0.00000000000E+00 0. -1.
          5    1    1    2  502    0 -0.34423286863E+02  0.31270467906E+02 -0.82296004661E+02  0.94619816237E+02  0.41800000000E+01 0. -1.
         -5    1    1    2    0  502  0.27278087773E+02 -0.53628012718E+02 -0.67040960565E+01  0.60683400733E+02  0.41800000000E+01 0. -1.
        -11    1    1    2    0    0  0.31454990557E+02 -0.24956519960E+02 -0.12349308609E+03  0.12985679278E+03  0.00000000000E+00 0.  1.
         11    1    1    2    0    0 -0.24309791467E+02  0.47314064772E+02 -0.15122720471E+03  0.16030986910E+03  0.00000000000E+00 0. -1.
</event>
<event>
 6    1  0.4988969E-006  0.2027772E+03  0.7561462E-02  0.1147417E+00
          1   -1    0    0  501    0  0.00000000000E+00  0.00000000000E+00  0.72006594309E+03  0.72006594309E+03  0.00000000000E+00 0. -1.
         -1   -1    0    0    0  501 -0.00000000000E+00 -0.00000000000E+00 -0.68785332517E+02  0.68785332517E+02  0.00000000000E+00 0.  1.
          5    1    1    2  502    0 -0.16624818351E+02 -0.92549458185E+02  0.41895963314E+02  0.10302684571E+03  0.41800000000E+01 0. -1.
         -5    1    1    2    0  502 -0.64825639710E+02 -0.79911648859E+02  0.22909235954E+03  0.25117527105E+03  0.41800000000E+01 0. -1.
        -11    1    1    2    0    0  0.72537800048E+02  0.18167900293E+03  0.36860810913E+03  0.41730196580E+03  0.00000000000E+00 0. -1.
         11    1    1    2    0    0  0.89126580130E+01 -0.92178958830E+01  0.11684178589E+02  0.17347193048E+02  0.00000000000E+00 0.  1.
</event>
<event>
 6    1  0.4988969E-006  0.1082590E+03  0.7561462E-02  0.1263828E+00
         -1   -1    0    0    0  501 -0.00000000000E+00  0.00000000000E+00  0.10693946037E+03  0.10693946037E+03  0.00000000000E+00 0.  1.
          1   -1    0    0  501    0  0.00000000000E+00 -0.00000000000E+00 -0.13251128011E+03  0.13251128011E+03  0.00000000000E+00 0. -1.
          5    1    1    2  502    0 -0.25061478157E+02 -0.54020070851E+02  0.30933001393E+02  0.67235174703E+02  0.41800000000E+01 0. -1.
         -5    1    1    2    0  502 -0.92085039958E+01  0.62975931378E+02 -0.10016688178E+02  0.64564471041E+02  0.41800000000E+01 0. -1.
        -11    1    1    2    0    0  0.21960921344E+02 -0.47631972217E+02 -0.10683378583E+02  0.53527763091E+02  0.00000000000E+00 0.  1.
         11    1    1    2    0    0  0.12309060809E+02  0.38676111691E+02 -0.35804754367E+02  0.54123331649E+02  0.00000000000E+00 0. -1.
</event>
<event>
 6    1  0.4988969E-006  0.8880554E+02  0.7561462E-02  0.1305770E+00
         -4   -1    0    0    0  501 -0.00000000000E+00  0.00000000000E+00  0.14807367100E+03  0.14807367100E+03  0.00000000000E+00 0.  1.
          4   -1    0    0  501    0  0.00000000000E+00 -0.00000000000E+00 -0.99489937961E+02  0.99489937961E+02  0.00000000000E+00 0. -1.
          5    1    1    2  502    0  0.36231472376E+02 -0.55774392055E+01 -0.21731229672E+02  0.42819927156E+02  0.41800000000E+01 0.  1.
         -5    1    1    2    0  502 -0.52351575091E+02  0.53399176808E+02  0.64054764623E+02  0.98552751201E+02  0.41800000000E+01 0.  1.
        -11    1    1    2    0    0 -0.14544408258E+02 -0.14639361258E+02  0.43170548369E+02  0.47849210611E+02  0.00000000000E+00 0.  1.
         11    1    1    2    0    0  0.30664510973E+02 -0.33182376345E+02 -0.36910350285E+02  0.58341719989E+02  0.00000000000E+00 0. -1.
</event>
<event>
 6    1  0.4988969E-006  0.8841789E+02  0.7561462E-02  0.1306729E+00
          1   -1    0    0  501    0  0.00000000000E+00  0.00000000000E+00  0.22439274328E+03  0.22439274328E+03  0.00000000000E+00 0. -1.
         -1   -1    0    0    0  501 -0.00000000000E+00 -0.00000000000E+00 -0.57202289813E+02  0.57202289813E+02  0.00000000000E+00 0.  1.
          5    1    1    2  502    0  0.48726597557E+02  0.18596629245E+02  0.79531726640E+02  0.95199179992E+02  0.41800000000E+01 0.  1.
         -5    1    1    2    0  502 -0.51015933877E+02  0.33890731543E+01 -0.59249428254E+01  0.51639991031E+02  0.41800000000E+01 0.  1.
        -11    1    1    2    0    0  0.34176670409E+02 -0.23195348458E+02  0.62496722648E+01  0.41774721947E+02  0.00000000000E+00 0.  1.
         11    1    1    2    0    0 -0.31887334089E+02  0.12096460583E+01  0.87333997390E+02  0.92981140125E+02  0.00000000000E+00 0. -1.
</event>
<event>
 6    1  0.4988969E-006  0.9484193E+02  0.7561462E-02  0.1291533E+00
          3   -1    0    0  501    0  0.00000000000E+00  0.00000000000E+00  0.35824528992E+03  0.35824528992E+03  0.00000000000E+00 0. -1.
         -3   -1    0    0    0  501 -0.00000000000E+00 -0.00000000000E+00 -0.45269748443E+02  0.45269748443E+02  0.00000000000E+00 0.  1.
          5    1    1    2  502    0  0.18631439126E+02 -0.71287108180E+01  0.97993589083E+02  0.10009078351E+03  0.41800000000E+01 0.  1.
         -5    1    1    2    0  502 -0.42540846193E+02  0.60615816759E+02  0.92034967129E+01  0.74740735800E+02  0.41800000000E+01 0.  1.
        -11    1    1    2    0    0 -0.68203343323E+00 -0.67045237746E+02  0.17289956751E+03  0.18544484225E+03  0.00000000000E+00 0.  1.
         11    1    1    2    0    0  0.24591440501E+02  0.13558131804E+02  0.32878888171E+02  0.43238676799E+02  0.00000000000E+00 0. -1.
</event>
<event>
 6    1  0.4988969E-006  0.1020358E+03  0.7561462E-02  0.1276072E+00
          1   -1    0    0  501    0  0.00000000000E+00  0.00000000000E+00  0.12962961020E+03  0.12962961020E+03  0.00000000000E+00 0. -1.
         -1   -1    0    0    0  501 -0.00000000000E+00 -0.00000000000E+00 -0.13621801039E+03  0.13621801039E+03  0.00000000000E+00 0.  1.
          5    1    1    2  502    0 -0.77607380300E+02  0.16849205692E+02 -0.46087076976E+02  0.91914592278E+02  0.41800000000E+01 0. -1.
         -5    1    1    2    0  502  0.12033960105E+02 -0.49528494292E+02  0.20854243726E+02  0.55229157372E+02  0.41800000000E+01 0. -1.
        -11    1    1    2    0    0  0.17802335841E+02  0.66518568238E+01 -0.36556500139E+02  0.41201311423E+02  0.00000000000E+00 0.  1.
         11    1    1    2    0    0  0.47771084353E+02  0.26027431777E+02  0.55200933201E+02  0.77502559515E+02  0.00000000000E+00 0. -1.
</event>
<event>
 6    1  0.4988969E-006  0.1234691E+03  0.7561462E-02  0.1237481E+00
         -2   -1    0    0    0  501 -0.00000000000E+00  0.00000000000E+00  0.17483041671E+03  0.17483041671E+03  0.00000000000E+00 0.  1.
          2   -1    0    0  501    0  0.00000000000E+00 -0.00000000000E+00 -0.19070180772E+03  0.19070180772E+03  0.00000000000E+00 0. -1.
          5    1    1    2  502    0 -0.50827383960E+02 -0.78761920946E+02 -0.10514516736E+03  0.14092495084E+03  0.41800000000E+01 0. -1.
         -5    1    1    2    0  502  0.30203016553E+02  0.49482124076E+02  0.11018889521E+03  0.12457836024E+03  0.41800000000E+01 0.  1.
        -11    1    1    2    0    0 -0.32343961395E+02  0.26721997078E+02 -0.21180971575E+02  0.46998197023E+02  0.00000000000E+00 0. -1.
         11    1    1    2    0    0  0.52968328801E+02  0.25577997926E+01  0.26585270616E+00  0.53030716320E+02  0.00000000000E+00 0.  1.
</event>
<event>
 6    1  0.4988969E-006  0.1149461E+03  0.7561462E-02  0.1251675E+00
         -1   -1    0    0    0  501 -0.00000000000E+00  0.00000000000E+00  0.10712357768E+03  0.10712357768E+03  0.00000000000E+00 0.  1.
          1   -1    0    0  501    0  0.00000000000E+00 -0.00000000000E+00 -0.14748568256E+03  0.14748568256E+03  0.00000000000E+00 0. -1.
          5    1    1    2  502    0 -0.52655501749E+02 -0.22845184333E+02 -0.76183704706E+01  0.58051841317E+02  0.41800000000E+01 0. -1.
         -5    1    1    2    0  502  0.58804373410E+02 -0.48139563807E+02 -0.11967772276E+01  0.76120145897E+02  0.41800000000E+01 0.  1.
        -11    1    1    2    0    0 -0.35012330536E+02  0.30021899579E+02 -0.49078180770E+02  0.67348686487E+02  0.00000000000E+00 0. -1.
         11    1    1    2    0    0  0.28863458876E+02  0.40962848562E+02  0.17531223578E+02  0.53088586539E+02  0.00000000000E+00 0.  1.
</event>
<event>
 6    1  0.4988969E-006  0.1352569E+03  0.7561462E-02  0.1219857E+00
         -1   -1    0    0    0  501 -0.00000000000E+00  0.00000000000E+00  0.19293667375E+03  0.19293667375E+03  0.00000000000E+00 0.  1.
          1   -1    0    0  501    0  0.00000000000E+00 -0.00000000000E+00 -0.13183522427E+03  0.13183522427E+03  0.00000000000E+00 0. -1.
          5    1    1    2  502    0 -0.94702196250E+01 -0.98857794219E+02  0.94233964088E+02  0.13696737175E+03  0.41800000000E+01 0. -1.
         -5    1    1    2    0  502 -0.44536633212E+02  0.98152865119E+01 -0.91381540883E+01  0.46699355534E+02  0.41800000000E+01 0. -1.
        -11    1    1    2    0    0  0.53739779746E+02  0.21667458198E+02 -0.41763634711E+02  0.71425792653E+02  0.00000000000E+00 0. -1.
         11    1    1    2    0    0  0.26707309114E+00  0.67375049509E+02  0.17769274193E+02  0.69679378081E+02  0.00000000000E+00 0.  1.
</event>
<event>
 6    1  0.4988969E-006  0.7745492E+02  0.7561462E-02  0.1336433E+00
         -2   -1    0    0    0  501 -0.00000000000E+00  0.00000000000E+00  0.57879361799E+02  0.57879361799E+02  0.00000000000E+00 0.  1.
          2   -1    0    0  501    0  0.00000000000E+00 -0.00000000000E+00 -0.30178822717E+03  0.30178822717E+03  0.00000000000E+00 0. -1.
          5    1    1    2  502    0  0.16439265414E+02  0.18489708333E+02  0.39159178604E+02  0.46508412470E+02  0.41800000000E+01 0.  1.
         -5    1    1    2    0  502  0.19462569010E+01  0.28560963286E+02 -0.95333289644E+02  0.99626427488E+02  0.41800000000E+01 0.  1.
        -11    1    1    2    0    0  0.20305677044E+02  0.16715680114E+02 -0.61865845016E+02  0.67224379963E+02  0.00000000000E+00 0.  1.
         11    1    1    2    0    0 -0.38691199358E+02 -0.63766351732E+02 -0.12586890931E+03  0.14630836904E+03  0.00000000000E+00 0. -1.
</event>
<event>
 6    1  0.4988969E-006  0.1410252E+03  0.7561462E-02  0.1211956E+00
          2   -1    0    0  501    0  0.00000000000E+00  0.00000000000E+00  0.80683919626E+03  0.80683919626E+03  0.00000000000E+00 0. -1.
         -2   -1    0    0    0  501 -0.00000000000E+00 -0.00000000000E+00 -0.28329482915E+02  0.28329482915E+02  0.00000000000E+00 0.  1.
          5    1    1    2  502    0  0.45877965501E+02 -0.90727784155E+02  0.22816806653E+03  0.24982885646E+03  0.41800000000E+01 0.  1.
         -5    1    1    2    0  502 -0.49168442681E+02 -0.20226440358E+01  0.59719570256E+02  0.77495330931E+02  0.41800000000E+01 0.  1.
        -11    1    1    2    0    0 -0.39956785503E+02  0.16460960480E+02  0.17619650374E+03  0.18141862048E+03  0.00000000000E+00 0. -1.
         11    1    1    2    0    0  0.43247262683E+02  0.76289467710E+02  0.31442557282E+03  0.32642587130E+03  0.00000000000E+00 0.  1.
</event>
<event>
 6    1  0.4988969E-006  0.2358375E+03  0.7561462E-02  0.1122597E+00
         -1   -1    0    0    0  501 -0.00000000000E+00  0.00000000000E+00  0.16542380353E+03  0.16542380353E+03  0.00000000000E+00 0.  1.
          1   -1    0    0  501    0  0.00000000000E+00 -0.00000000000E+00 -0.39538623528E+03  0.39538623528E+03  0.00000000000E+00 0. -1.
          5    1    1    2  502    0 -0.24960660122E+02  0.21935813211E+02  0.85381394037E+01  0.34562793282E+02  0.41800000000E+01 0.  1.
         -5    1    1    2    0  502  0.13627528826E+03  0.16867613740E+03 -0.49094932185E+02  0.22237441014E+03  0.41800000000E+01 0.  1.
        -11    1    1    2    0    0 -0.16831629669E+02 -0.18915556430E+02 -0.69873765522E+02  0.74319883884E+02  0.00000000000E+00 0. -1.
         11    1    1    2    0    0 -0.94482998473E+02 -0.17169639418E+03 -0.11953187344E+03  0.22955295150E+03  0.00000000000E+00 0.  1.
</event>
<event>
 6    1  0.4988969E-006  0.1268913E+03  0.7561462E-02  0.1232143E+00
         -1   -1    0    0    0  501 -0.00000000000E+00  0.00000000000E+00  0.10570231756E+03  0.10570231756E+03  0.00000000000E+00 0.  1.
          1   -1    0    0  501    0  0.00000000000E+00 -0.00000000000E+00 -0.16465034636E+03  0.16465034636E+03  0.00000000000E+00 0. -1.
          5    1    1    2  502    0  0.18553926322E+02 -0.42430500686E+02  0.11372339393E+02  0.47868549944E+02  0.41800000000E+01 0. -1.
         -5    1    1    2    0  502  0.49147955836E+02  0.75225969674E+02 -0.13693371585E+02  0.90991477083E+02  0.41800000000E+01 0.  1.
        -11    1    1    2    0    0  0.21010066230E+02  0.38262250807E+01 -0.30365893830E+01  0.21570437094E+02  0.00000000000E+00 0.  1.
         11    1    1    2    0    0 -0.88711948388E+02 -0.36621694069E+02 -0.53590407223E+02  0.10992219980E+03  0.00000000000E+00 0. -1.
</event>
<event>
 6    1  0.4988969E-006  0.7576093E+02  0.7561462E-02  0.1341531E+00
          2   -1    0    0  501    0  0.00000000000E+00  0.00000000000E+00  0.15734631949E+02  0.15734631949E+02  0.00000000000E+00 0. -1.
         -2   -1    0    0    0  501 -0.00000000000E+00 -0.00000000000E+00 -0.11691494551E+04  0.11691494551E+04  0.00000000000E+00 0.  1.
          5    1    1    2  502    0  0.56626227684E+01 -0.26318334372E+02 -0.49401387507E+02  0.56415330437E+02  0.41800000000E+01 0. -1.
         -5    1    1    2    0  502 -0.93922714777E+01  0.44776335490E+02 -0.92821741550E+03  0.92935363443E+03  0.41800000000E+01 0. -1.
        -11    1    1    2    0    0 -0.36101407022E+02 -0.59496301654E+01 -0.13810446164E+03  0.14286900298E+03  0.00000000000E+00 0.  1.
         11    1    1    2    0    0  0.39831055731E+02 -0.12508370953E+02 -0.37691558543E+02  0.56246119244E+02  0.00000000000E+00 0. -1.
</event>
<event>
 6    1  0.4988969E-006  0.1595193E+03  0.7561462E-02  0.1189241E+00
         -1   -1    0    0    0  501 -0.00000000000E+00  0.00000000000E+00  0.39805817621E+02  0.39805817621E+02  0.00000000000E+00 0.  1.
          1   -1    0    0  501    0  0.00000000000E+00 -0.00000000000E+00 -0.65943873616E+03  0.65943873616E+03  0.00000000000E+00 0. -1.
          5    1    1    2  502    0  0.66482405237E+02 -0.83593154908E+02 -0.15761854697E+03  0.19044370428E+03  0.41800000000E+01 0. -1.
         -5    1    1    2    0  502 -0.52926985548E+02 -0.30678296677E+02 -0.12778634525E+03  0.14173653770E+03  0.41800000000E+01 0. -1.
        -11    1    1    2    0    0 -0.55853403760E+02  0.70787572489E+02 -0.17964647843E+03  0.20100582167E+03  0.00000000000E+00 0.  1.
         11    1    1    2    0    0  0.42297984071E+02  0.43483879096E+02 -0.15458154788E+03  0.16605849013E+03  0.00000000000E+00 0. -1.
</event>
<event>
 6    1  0.4988969E-006  0.1627503E+03  0.7561462E-02  0.1185626E+00
          2   -1    0    0  501    0  0.00000000000E+00  0.00000000000E+00  0.12979422010E+03  0.12979422010E+03  0.00000000000E+00 0. -1.
         -2   -1    0    0    0  501 -0.00000000000E+00 -0.00000000000E+00 -0.23810117320E+03  0.23810117320E+03  0.00000000000E+00 0.  1.
          5    1    1    2  502    0  0.10401833421E+03  0.20893733020E+02 -0.13880827863E+02  0.10708179917E+03  0.41800000000E+01 0. -1.
         -5    1    1    2    0  502  0.23787028449E+02 -0.52273109355E+02 -0.76462018296E+02  0.95719451137E+02  0.41800000000E+01 0. -1.
        -11    1    1    2    0    0 -0.10653978603E+03  0.62895595040E+02 -0.16728154945E+01  0.12373108015E+03  0.00000000000E+00 0. -1.
         11    1    1    2    0    0 -0.21265576628E+02 -0.31516218705E+02 -0.16291291455E+02  0.41363062847E+02  0.00000000000E+00 0.  1.
</event>
<event>
 6    1  0.4988969E-006  0.9564646E+02  0.7561462E-02  0.1289727E+00
         -2   -1    0    0    0  501 -0.00000000000E+00  0.00000000000E+00  0.57406608038E+02  0.57406608038E+02  0.00000000000E+00 0.  1.
          2   -1    0    0  501    0  0.00000000000E+00 -0.00000000000E+00 -0.27481044946E+03  0.27481044946E+03  0.00000000000E+00 0. -1.
          5    1    1    2  502    0 -0.43213352189E+02 -0.19648223163E+02 -0.53860518961E+02  0.71915745033E+02  0.41800000000E+01 0.  1.
         -5    1    1    2    0  502  0.72998666470E+02 -0.11202449430E+02 -0.90993842269E+01  0.74528996860E+02  0.41800000000E+01 0.  1.
        -11    1    1    2    0    0  0.15542215242E+02  0.15131466265E+02  0.23352532872E+01  0.21816854354E+02  0.00000000000E+00 0.  1.
         11    1    1    2    0    0 -0.45327529523E+02  0.15719206328E+02 -0.15677919152E+03  0.16395546125E+03  0.00000000000E+00 0. -1.
</event>
<event>
 6    1  0.4988969E-006  0.1275783E+03  0.7561462E-02  0.1231094E+00
          1   -1    0    0  501    0  0.00000000000E+00  0.00000000000E+00  0.62805344147E+03  0.62805344147E+03  0.00000000000E+00 0. -1.
         -1   -1    0    0    0  501 -0.00000000000E+00 -0.00000000000E+00 -0.40095438355E+02  0.40095438355E+02  0.00000000000E+00 0.  1.
          5    1    1    2  502    0 -0.43944527800E+02  0.16404434599E+02  0.99630671767E+02  0.11019968310E+03  0.41800000000E+01 0. -1.
         -5    1    1    2    0  502  0.32720496289E+02 -0.87632818824E+02  0.54929165193E+02  0.10855794490E+03  0.41800000000E+01 0.  1.
        -11    1    1    2    0    0  0.27093691851E+02 -0.12049344278E+02  0.66260243351E+02  0.72592524991E+02  0.00000000000E+00 0.  1.
         11    1    1    2    0    0 -0.15869660340E+02  0.83277728502E+02  0.36713792280E+03  0.37679872684E+03  0.00000000000E+00 0. -1.
</event>
<event>
 6    1  0.4988969E-006  0.1200938E+03  0.7561462E-02  0.1242942E+00
          2   -1    0    0  501    0  0.00000000000E+00  0.00000000000E+00  0.31748525916E+03  0.31748525916E+03  0.00000000000E+00 0.  1.
         -2   -1    0    0    0  501 -0.00000000000E+00 -0.00000000000E+00 -0.58105747086E+02  0.58105747086E+02  0.00000000000E+00 0. -1.
          5    1    1    2  502    0 -0.83936203648E+02  0.38438821203E+02  0.71847619461E+02  0.11705717441E+03  0.41800000000E+01 0. -1.
         -5    1    1    2    0  502  0.67206056055E+01 -0.54924389254E+02  0.48478893135E+02  0.73685348301E+02  0.41800000000E+01 0. -1.
        -11    1    1    2    0    0  0.14179275308E+02 -0.15990662331E+02  0.10319968980E+03  0.10538941647E+03  0.00000000000E+00 0.  1.
         11    1    1    2    0    0  0.63036322734E+02  0.32476230382E+02  0.35853309679E+02  0.79459067063E+02  0.00000000000E+00 0. -1.
</event>
<event>
 6    1  0.4988969E-006  0.9857025E+02  0.7561462E-02  0.1283332E+00
         -1   -1    0    0    0  501 -0.00000000000E+00  0.00000000000E+00  0.20805004515E+02  0.20805004515E+02  0.00000000000E+00 0.  1.
          1   -1    0    0  501    0  0.00000000000E+00 -0.00000000000E+00 -0.55933713737E+03  0.55933713737E+03  0.00000000000E+00 0. -1.
          5    1    1    2  502    0 -0.63626945047E+02 -0.20595222133E+02 -0.96219019434E+02  0.11725239192E+03  0.41800000000E+01 0. -1.
         -5    1    1    2    0  502  0.35067628532E+02  0.17347227395E+02 -0.17090170369E+03  0.17537254515E+03  0.41800000000E+01 0.  1.
        -11    1    1    2    0    0 -0.30838302820E+02 -0.33673832108E+01 -0.13616989925E+03  0.13965880442E+03  0.00000000000E+00 0. -1.
         11    1    1    2    0    0  0.59397619335E+02  0.66153779492E+01 -0.13524151048E+03  0.14785840039E+03  0.00000000000E+00 0.  1.
</event>
<event>
 6    1  0.4988969E-006  0.1189650E+03  0.7561462E-02  0.1244814E+00
          1   -1    0    0  501    0  0.00000000000E+00  0.00000000000E+00  0.23366849659E+03  0.23366849659E+03  0.00000000000E+00 0. -1.
         -1   -1    0    0    0  501 -0.00000000000E+00 -0.00000000000E+00 -0.86844381594E+02  0.86844381594E+02  0.00000000000E+00 0.  1.
          5    1    1    2  502    0 -0.32942335668E+02 -0.73222331782E+02 -0.19792745759E+01  0.80424481837E+02  0.41800000000E+01 0. -1.
         -5    1    1    2    0  502  0.41718302606E+02 -0.18239581406E+02  0.82757515658E+02  0.94548283433E+02  0.41800000000E+01 0. -1.
        -11    1    1    2    0    0  0.81470216325E+01  0.94297070054E+02  0.20463713722E+02  0.96835298117E+02  0.00000000000E+00 0.  1.
         11    1    1    2    0    0 -0.16922988571E+02 -0.28351568655E+01  0.45582160187E+02  0.48704814793E+02  0.00000000000E+00 0. -1.
</event>
<event>
 6    1  0.4988969E-006  0.7483749E+02  0.7561462E-02  0.1344375E+00
          1   -1    0    0  501    0  0.00000000000E+00  0.00000000000E+00  0.74178873232E+02  0.74178873232E+02  0.00000000000E+00 0. -1.
         -1   -1    0    0    0  501 -0.00000000000E+00 -0.00000000000E+00 -0.17314146525E+03  0.17314146525E+03  0.00000000000E+00 0.  1.
          5    1    1    2  502    0 -0.22160204834E+02 -0.55560088241E+01  0.32539241276E+02  0.39977725488E+02  0.41800000000E+01 0. -1.
         -5    1    1    2    0  502  0.16289739648E+02 -0.25795161198E+02 -0.10214114441E+03  0.10668191852E+03  0.41800000000E+01 0. -1.
        -11    1    1    2    0    0 -0.39902113069E+02 -0.47810981850E+00 -0.66233578780E+01  0.40450909581E+02  0.00000000000E+00 0.  1.
         11    1    1    2    0    0  0.45772578255E+02  0.31829279841E+02 -0.22737331014E+02  0.60209784893E+02  0.00000000000E+00 0. -1.
</event>
<event>
 6    1  0.4988969E-006  0.1531304E+03  0.7561462E-02  0.1196678E+00
         -1   -1    0    0    0  501 -0.00000000000E+00  0.00000000000E+00  0.13815228389E+03  0.13815228389E+03  0.00000000000E+00 0.  1.
          1   -1    0    0  501    0  0.00000000000E+00 -0.00000000000E+00 -0.23536479090E+03  0.23536479090E+03  0.00000000000E+00 0. -1.
          5    1    1    2  502    0  0.11944997993E+03 -0.70909009360E+02 -0.38349698153E+02  0.14416850232E+03  0.41800000000E+01 0. -1.
         -5    1    1    2    0  502 -0.36618012467E+01  0.24541658227E+01  0.39050107342E+02  0.39519805183E+02  0.41800000000E+01 0. -1.
        -11    1    1    2    0    0 -0.12088075389E+03  0.32877933503E+02 -0.65167961501E+02  0.14120898831E+03  0.00000000000E+00 0.  1.
         11    1    1    2    0    0  0.50925752101E+01  0.35576910034E+02 -0.32744954690E+02  0.48619778974E+02  0.00000000000E+00 0. -1.
</event>
<event>
 6    1  0.4988969E-006  0.1818132E+03  0.7561462E-02  0.1166060E+00
          1   -1    0    0  501    0  0.00000000000E+00  0.00000000000E+00  0.37806596662E+03  0.37806596662E+03  0.00000000000E+00 0. -1.
         -1   -1    0    0    0  501 -0.00000000000E+00 -0.00000000000E+00 -0.95036710512E+02  0.95036710512E+02  0.00000000000E+00 0.  1.
          5    1    1    2  502    0 -0.11305291780E+03  0.10311052048E+03  0.11656513118E+03  0.19239969819E+03  0.41800000000E+01 0. -1.
         -5    1    1    2    0  502 -0.26537913314E+02 -0.36377555154E+02  0.23922191732E+02  0.51159857499E+02  0.41800000000E+01 0. -1.
        -11    1    1    2    0    0  0.12921204549E+03 -0.37846980252E+02  0.72158304691E+02  0.15275787230E+03  0.00000000000E+00 0.  1.
         11    1    1    2    0    0  0.10378785615E+02 -0.28885985071E+02  0.70383628501E+02  0.76785249139E+02  0.00000000000E+00 0. -1.
</event>
<event>
 6    1  0.4988969E-006  0.5966126E+02  0.7561462E-02  0.1399259E+00
          1   -1    0    0  501    0  0.00000000000E+00  0.00000000000E+00  0.17783634335E+03  0.17783634335E+03  0.00000000000E+00 0. -1.
         -1   -1    0    0    0  501 -0.00000000000E+00 -0.00000000000E+00 -0.65889492568E+02  0.65889492568E+02  0.00000000000E+00 0.  1.
          5    1    1    2  502    0  0.60145549141E+01 -0.54015662179E+02 -0.20289639523E+02  0.58163635576E+02  0.41800000000E+01 0. -1.
         -5    1    1    2    0  502 -0.53894400055E+01  0.19914045815E+02  0.61323383301E+02  0.64835522855E+02  0.41800000000E+01 0.  1.
        -11    1    1    2    0    0 -0.13760274218E+02  0.13143745789E+02 -0.19348276425E+02  0.27137778106E+02  0.00000000000E+00 0.  1.
         11    1    1    2    0    0  0.13135159309E+02  0.20957870575E+02  0.90261383427E+02  0.93588899380E+02  0.00000000000E+00 0. -1.
</event>
<event>
 6    1  0.4988969E-006  0.1267010E+03  0.7561462E-02  0.1232435E+00
          1   -1    0    0  501    0  0.00000000000E+00  0.00000000000E+00  0.39158276260E+03  0.39158276260E+03  0.00000000000E+00 0. -1.
         -1   -1    0    0    0  501 -0.00000000000E+00 -0.00000000000E+00 -0.63224340639E+02  0.63224340639E+02  0.00000000000E+00 0.  1.
          5    1    1    2  502    0 -0.18731789195E+02 -0.12548935236E+02 -0.84141026954E+01  0.24425913005E+02  0.41800000000E+01 0.  1.
         -5    1    1    2    0  502  0.81976537681E+02 -0.82058372534E+02  0.19895353873E+03  0.23033391458E+03  0.41800000000E+01 0.  1.
        -11    1    1    2    0    0 -0.40375483927E+02  0.70019373236E+02  0.14472464460E+03  0.16576524088E+03  0.00000000000E+00 0.  1.
         11    1    1    2    0    0 -0.22869264559E+02  0.24587934534E+02 -0.69056586737E+01  0.34282034768E+02  0.00000000000E+00 0. -1.
</event>
<event>
 6    1  0.4988969E-006  0.1920429E+03  0.7561462E-02  0.1156632E+00
         -1   -1    0    0    0  501 -0.00000000000E+00  0.00000000000E+00  0.43525517737E+02  0.43525517737E+02  0.00000000000E+00 0.  1.
          1   -1    0    0  501    0  0.00000000000E+00 -0.00000000000E+00 -0.96999564072E+03  0.96999564072E+03  0.00000000000E+00 0. -1.
          5    1    1    2  502    0 -0.42386752894E+02 -0.33376128751E+01 -0.17381522242E+03  0.17898877179E+03  0.41800000000E+01 0.  1.
         -5    1    1    2    0  502  0.30374257167E+02 -0.15573553767E+03 -0.48525932223E+03  0.51055874824E+03  0.41800000000E+01 0.  1.
        -11    1    1    2    0    0 -0.38602260135E+02  0.78658455688E+02 -0.13723202637E+03  0.16281866048E+03  0.00000000000E+00 0.  1.
         11    1    1    2    0    0  0.50614755862E+02  0.80414694854E+02 -0.13016355196E+03  0.16115497795E+03  0.00000000000E+00 0. -1.
</event>
<event>
 6    1  0.4988969E-006  0.1577294E+03  0.7561462E-02  0.1191284E+00
         -2   -1    0    0    0  501 -0.00000000000E+00  0.00000000000E+00  0.35375905455E+02  0.35375905455E+02  0.00000000000E+00 0. -1.
          2   -1    0    0  501    0  0.00000000000E+00 -0.00000000000E+00 -0.83869038693E+03  0.83869038693E+03  0.00000000000E+00 0.  1.
          5    1    1    2  502    0  0.11526745898E+02 -0.28100264945E+02 -0.12949587633E+03  0.13307571209E+03  0.41800000000E+01 0. -1.
         -5    1    1    2    0  502 -0.13484604372E+03 -0.51233471679E+01 -0.19081906869E+03  0.23375006645E+03  0.41800000000E+01 0. -1.
        -11    1    1    2    0    0  0.25446915289E+02  0.44510160680E+02 -0.10858504381E+03  0.12008085460E+03  0.00000000000E+00 0. -1.
         11    1    1    2    0    0  0.97872382536E+02 -0.11286548566E+02 -0.37441449265E+03  0.38715965925E+03  0.00000000000E+00 0.  1.
</event>
<event>
 6    1  0.4988969E-006  0.1223461E+03  0.7561462E-02  0.1239276E+00
         -1   -1    0    0    0  501 -0.00000000000E+00  0.00000000000E+00  0.16186024484E+03  0.16186024484E+03  0.00000000000E+00 0.  1.
          1   -1    0    0  501    0  0.00000000000E+00 -0.00000000000E+00 -0.15246051040E+03  0.15246051040E+03  0.00000000000E+00 0. -1.
          5    1    1    2  502    0  0.40934603390E+01 -0.75603098052E+02  0.45875485133E+02  0.88626279335E+02  0.41800000000E+01 0. -1.
         -5    1    1    2    0  502 -0.58453569591E+02  0.32714992460E+02  0.43956477301E+02  0.80229264152E+02  0.41800000000E+01 0. -1.
        -11    1    1    2    0    0  0.48012632508E+01  0.51261402197E+02 -0.80079830792E+02  0.95202745673E+02  0.00000000000E+00 0. -1.
         11    1    1    2    0    0  0.49558846002E+02 -0.83732966048E+01 -0.35239719887E+00  0.50262466084E+02  0.00000000000E+00 0.  1.
</event>
<event>
 6    1  0.4988969E-006  0.9110216E+02  0.7561462E-02  0.1300204E+00
         -1   -1    0    0    0  501 -0.00000000000E+00  0.00000000000E+00  0.12665289243E+03  0.12665289243E+03  0.00000000000E+00 0.  1.
          1   -1    0    0  501    0  0.00000000000E+00 -0.00000000000E+00 -0.10174365288E+03  0.10174365288E+03  0.00000000000E+00 0. -1.
          5    1    1    2  502    0 -0.39510450381E+02 -0.46142568902E+01  0.36742356057E+02  0.54312431216E+02  0.41800000000E+01 0.  1.
         -5    1    1    2    0  502  0.63457792502E+02  0.23171786531E+02 -0.31183552997E+02  0.74523214489E+02  0.41800000000E+01 0.  1.
        -11    1    1    2    0    0 -0.31490810915E+02 -0.40509155162E+02  0.42614029784E+02  0.66697963675E+02  0.00000000000E+00 0.  1.
         11    1    1    2    0    0  0.75434687947E+01  0.21951625521E+02 -0.23263593294E+02  0.32862935922E+02  0.00000000000E+00 0. -1.
</event>
<event>
 6    1  0.4988969E-006  0.7404084E+02  0.7561462E-02  0.1346867E+00
          1   -1    0    0  501    0  0.00000000000E+00  0.00000000000E+00  0.17169935415E+03  0.17169935415E+03  0.00000000000E+00 0. -1.
         -1   -1    0    0    0  501 -0.00000000000E+00 -0.00000000000E+00 -0.88289396205E+02  0.88289396205E+02  0.00000000000E+00 0.  1.
          5    1    1    2  502    0 -0.55944731300E+02  0.34721865655E+01  0.10359122041E+03  0.11785789064E+03  0.41800000000E+01 0. -1.
         -5    1    1    2    0  502  0.21244329721E+01  0.55984332230E+01 -0.34393352459E+02  0.35160073426E+02  0.41800000000E+01 0. -1.
        -11    1    1    2    0    0 -0.10258137702E+02  0.13213851411E+02  0.32633702692E+02  0.36671430428E+02  0.00000000000E+00 0. -1.
         11    1    1    2    0    0  0.64078436030E+02 -0.22284471200E+02 -0.18421612696E+02  0.70299355865E+02  0.00000000000E+00 0.  1.
</event>
<event>
 6    1  0.4988969E-006  0.1146680E+03  0.7561462E-02  0.1252162E+00
         -1   -1    0    0    0  501 -0.00000000000E+00  0.00000000000E+00  0.11776372383E+03  0.11776372383E+03  0.00000000000E+00 0. -1.
          1   -1    0    0  501    0  0.00000000000E+00 -0.00000000000E+00 -0.23619319837E+03  0.23619319837E+03  0.00000000000E+00 0.  1.
          5    1    1    2  502    0 -0.49241734366E+01  0.82711197748E+02 -0.42648237610E+01  0.83072563693E+02  0.41800000000E+01 0. -1.
         -5    1    1    2    0  502  0.28947317934E+02 -0.22355953094E+02  0.56102458518E+02  0.67102117002E+02  0.41800000000E+01 0. -1.
        -11    1    1    2    0    0 -0.28166883617E+02  0.16466122545E+02 -0.32875165629E+02  0.46317200255E+02  0.00000000000E+00 0. -1.
         11    1    1    2    0    0  0.41437391193E+01 -0.76821367199E+02 -0.13739194366E+03  0.15746504125E+03  0.00000000000E+00 0.  1.
</event>
<event>
 6    1  0.4988969E-006  0.7104413E+02  0.7561462E-02  0.1356578E+00
         -2   -1    0    0    0  501 -0.00000000000E+00  0.00000000000E+00  0.67350494525E+02  0.67350494525E+02  0.00000000000E+00 0.  1.
          2   -1    0    0  501    0  0.00000000000E+00 -0.00000000000E+00 -0.25662363556E+03  0.25662363556E+03  0.00000000000E+00 0. -1.
          5    1    1    2  502    0 -0.25820400278E+02 -0.89088897003E+01 -0.95625990397E+02  0.99538253077E+02  0.41800000000E+01 0. -1.
         -5    1    1    2    0  502 -0.11281330883E+02 -0.45563941719E+02  0.30488273451E+02  0.56127964773E+02  0.41800000000E+01 0. -1.
        -11    1    1    2    0    0  0.18239199731E+02  0.38545872480E+02 -0.13482325340E+03  0.14140637309E+03  0.00000000000E+00 0. -1.
         11    1    1    2    0    0  0.18862531430E+02  0.15926958939E+02  0.10687829313E+02  0.26901539146E+02  0.00000000000E+00 0.  1.
</event>
<event>
 6    1  0.4988969E-006  0.8775086E+02  0.7561462E-02  0.1308392E+00
         -2   -1    0    0    0  501 -0.00000000000E+00  0.00000000000E+00  0.12290966360E+03  0.12290966360E+03  0.00000000000E+00 0.  1.
          2   -1    0    0  501    0  0.00000000000E+00 -0.00000000000E+00 -0.10807865999E+03  0.10807865999E+03  0.00000000000E+00 0. -1.
          5    1    1    2  502    0 -0.51869226933E+02 -0.10667207585E+02 -0.23106638723E+02  0.57927499284E+02  0.41800000000E+01 0. -1.
         -5    1    1    2    0  502  0.39665785096E+02 -0.11874022082E+02  0.63647543430E+02  0.76045046468E+02  0.41800000000E+01 0. -1.
        -11    1    1    2    0    0 -0.30511019474E+02 -0.35457273996E+01 -0.34507358145E+02  0.46197968118E+02  0.00000000000E+00 0. -1.
         11    1    1    2    0    0  0.42714461310E+02  0.26086957067E+02  0.87974570519E+01  0.50817809719E+02  0.00000000000E+00 0.  1.
</event>
<event>
 6    1  0.4988969E-006  0.9529410E+02  0.7561462E-02  0.1290515E+00
          2   -1    0    0  501    0  0.00000000000E+00  0.00000000000E+00  0.87837932161E+02  0.87837932161E+02  0.00000000000E+00 0. -1.
         -2   -1    0    0    0  501 -0.00000000000E+00 -0.00000000000E+00 -0.28637474548E+03  0.28637474548E+03  0.00000000000E+00 0.  1.
          5    1    1    2  502    0 -0.88497743039E+02  0.24678043023E+02 -0.12119034121E+03  0.15213621375E+03  0.41800000000E+01 0.  1.
         -5    1    1    2    0  502  0.34206811810E+02 -0.20301438108E+02 -0.10057895955E+03  0.10823979798E+03  0.41800000000E+01 0.  1.
        -11    1    1    2    0    0  0.42332777180E+02 -0.12531141860E+02 -0.33415601188E+02  0.55368727119E+02  0.00000000000E+00 0.  1.
         11    1    1    2    0    0  0.11958154049E+02  0.81545369441E+01  0.56648088629E+02  0.58467938790E+02  0.00000000000E+00 0. -1.
</event>
<event>
 6    1  0.4988969E-006  0.8606005E+02  0.7561462E-02  0.1312683E+00
         -3   -1    0    0    0  501 -0.00000000000E+00  0.00000000000E+00  0.26468509655E+03  0.26468509655E+03  0.00000000000E+00 0.  1.
          3   -1    0    0  501    0  0.00000000000E+00 -0.00000000000E+00 -0.57127783432E+02  0.57127783432E+02  0.00000000000E+00 0. -1.
          5    1    1    2  502    0 -0.25160465593E+01  0.26775639100E+02 -0.13186802129E+02  0.30242841961E+02  0.41800000000E+01 0. -1.
         -5    1    1    2    0  502 -0.49415102976E+02 -0.27646908818E+02  0.15871209182E+03  0.16856216794E+03  0.41800000000E+01 0. -1.
        -11    1    1    2    0    0  0.31706738447E+02  0.35764450154E+02  0.67076431785E+02  0.82362982333E+02  0.00000000000E+00 0.  1.
         11    1    1    2    0    0  0.20224411088E+02 -0.34893180436E+02 -0.50444083564E+01  0.40644887753E+02  0.00000000000E+00 0. -1.
</event>
<event>
 6    1  0.4988969E-006  0.8387105E+02  0.7561462E-02  0.1318412E+00
          2   -1    0    0  501    0  0.00000000000E+00  0.00000000000E+00  0.52134686527E+02  0.52134686527E+02  0.00000000000E+00 0. -1.
         -2   -1    0    0    0  501 -0.00000000000E+00 -0.00000000000E+00 -0.24861903927E+03  0.24861903927E+03  0.00000000000E+00 0.  1.
          5    1    1    2  502    0 -0.92290666015E+01  0.27152107200E+02  0.10083598741E+02  0.30684914197E+02  0.41800000000E+01 0. -1.
         -5    1    1    2    0  502 -0.34614477424E+01 -0.44935977541E+02 -0.15752355316E+03  0.16389742493E+03  0.41800000000E+01 0. -1.
        -11    1    1    2    0    0  0.16333110292E+02  0.54350282164E+02 -0.35853405294E+02  0.67128163496E+02  0.00000000000E+00 0.  1.
         11    1    1    2    0    0 -0.36425959484E+01 -0.36566411823E+02 -0.13190993032E+02  0.39043223177E+02  0.00000000000E+00 0. -1.
</event>
<event>
 6    1  0.4988969E-006  0.1045140E+03  0.7561462E-02  0.1271080E+00
         -1   -1    0    0    0  501 -0.00000000000E+00  0.00000000000E+00  0.14505630395E+03  0.14505630395E+03  0.00000000000E+00 0.  1.
          1   -1    0    0  501    0  0.00000000000E+00 -0.00000000000E+00 -0.13774448041E+03  0.13774448041E+03  0.00000000000E+00 0. -1.
          5    1    1    2  502    0  0.78515270153E+02 -0.66937381002E+01  0.94462142486E+02  0.12308542781E+03  0.41800000000E+01 0. -1.
         -5    1    1    2    0  502 -0.21733597849E+02 -0.14169559804E+02 -0.21410782496E+02  0.33897193211E+02  0.41800000000E+01 0. -1.
        -11    1    1    2    0    0 -0.72558099445E+02  0.36848367671E+02 -0.37137584790E+02  0.89452111206E+02  0.00000000000E+00 0.  1.
         11    1    1    2    0    0  0.15776427141E+02 -0.15985069767E+02 -0.28601951660E+02  0.36366052130E+02  0.00000000000E+00 0. -1.
</event>
<event>
 6    1  0.4988969E-006  0.1617771E+03  0.7561462E-02  0.1186705E+00
          2   -1    0    0  501    0  0.00000000000E+00  0.00000000000E+00  0.30717342079E+03  0.30717342079E+03  0.00000000000E+00 0. -1.
         -2   -1    0    0    0  501 -0.00000000000E+00 -0.00000000000E+00 -0.12348407796E+03  0.12348407796E+03  0.00000000000E+00 0.  1.
          5    1    1    2  502    0  0.43604610624E+02 -0.36587314257E+02  0.59309632711E+01  0.57381550672E+02  0.41800000000E+01 0. -1.
         -5    1    1    2    0  502 -0.62601536195E+02 -0.90969067098E+02 -0.27803471926E+02  0.11395099365E+03  0.41800000000E+01 0.  1.
        -11    1    1    2    0    0 -0.26629539815E+02  0.98133301063E+02  0.15337289723E+03  0.18401772408E+03  0.00000000000E+00 0. -1.
         11    1    1    2    0    0  0.45626465386E+02  0.29423080292E+02  0.52188954246E+02  0.75307230349E+02  0.00000000000E+00 0.  1.
</event>
<event>
 6    1  0.4988969E-006  0.1600134E+03  0.7561462E-02  0.1188682E+00
          1   -1    0    0  501    0  0.00000000000E+00  0.00000000000E+00  0.13241149973E+04  0.13241149973E+04  0.00000000000E+00 0. -1.
         -1   -1    0    0    0  501 -0.00000000000E+00 -0.00000000000E+00 -0.26297603910E+02  0.26297603910E+02  0.00000000000E+00 0.  1.
          5    1    1    2  502    0  0.26901131297E+02 -0.46060345057E+02  0.90865556383E+02  0.10544784487E+03  0.41800000000E+01 0. -1.
         -5    1    1    2    0  502 -0.53487410765E+02 -0.10245035705E+03  0.69070834672E+03  0.70032311928E+03  0.41800000000E+01 0. -1.
        -11    1    1    2    0    0  0.49996165480E+01  0.30082474462E+02  0.26755680424E+02  0.40568680905E+02  0.00000000000E+00 0.  1.
         11    1    1    2    0    0  0.21586662921E+02  0.11842822765E+03  0.48948780991E+03  0.50407295620E+03  0.00000000000E+00 0. -1.
</event>
<event>
 6    1  0.4988969E-006  0.2897721E+03  0.7561462E-02  0.1090468E+00
          1   -1    0    0  501    0  0.00000000000E+00  0.00000000000E+00  0.25420037869E+03  0.25420037869E+03  0.00000000000E+00 0. -1.
         -1   -1    0    0    0  501 -0.00000000000E+00 -0.00000000000E+00 -0.46041594350E+03  0.46041594350E+03  0.00000000000E+00 0.  1.
          5    1    1    2  502    0  0.61202004985E+02 -0.11378129323E+03 -0.68218912913E+02  0.14616141961E+03  0.41800000000E+01 0. -1.
         -5    1    1    2    0  502  0.15519989162E+03 -0.65860435359E+02 -0.20463651104E+03  0.26517574806E+03  0.41800000000E+01 0. -1.
        -11    1    1    2    0    0 -0.10650743338E+02  0.13376536216E+02  0.32273517130E+02  0.36523279737E+02  0.00000000000E+00 0. -1.
         11    1    1    2    0    0 -0.20575115327E+03  0.16626519237E+03  0.34366342016E+02  0.26675587478E+03  0.00000000000E+00 0.  1.
</event>
<event>
 6    1  0.4988969E-006  0.1278220E+03  0.7561462E-02  0.1230724E+00
          2   -1    0    0  501    0  0.00000000000E+00  0.00000000000E+00  0.31567876949E+03  0.31567876949E+03  0.00000000000E+00 0. -1.
         -2   -1    0    0    0  501 -0.00000000000E+00 -0.00000000000E+00 -0.13200273479E+03  0.13200273479E+03  0.00000000000E+00 0.  1.
          5    1    1    2  502    0 -0.35315320641E+02  0.15547208838E+02 -0.18296649638E+01  0.38854956550E+02  0.41800000000E+01 0. -1.
         -5    1    1    2    0  502  0.10063433449E+03  0.26818525492E+02 -0.70473399782E+02  0.12581921580E+03  0.41800000000E+01 0.  1.
        -11    1    1    2    0    0 -0.49622386083E+02 -0.67010072255E+02  0.13604138709E+03  0.15956186884E+03  0.00000000000E+00 0. -1.
         11    1    1    2    0    0 -0.15696627768E+02  0.24644337925E+02  0.11993771235E+03  0.12344546310E+03  0.00000000000E+00 0.  1.
</event>
<event>
 6    1  0.4988969E-006  0.1207426E+03  0.7561462E-02  0.1241877E+00
         -1   -1    0    0    0  501 -0.00000000000E+00  0.00000000000E+00  0.57355643584E+02  0.57355643584E+02  0.00000000000E+00 0.  1.
          1   -1    0    0  501    0  0.00000000000E+00 -0.00000000000E+00 -0.30289020601E+03  0.30289020601E+03  0.00000000000E+00 0. -1.
          5    1    1    2  502    0 -0.10310244979E+02 -0.79159848575E+02 -0.69952800544E+02  0.10622358251E+03  0.41800000000E+01 0. -1.
         -5    1    1    2    0  502 -0.10087586121E+01  0.73679066421E+02 -0.23334851829E+02  0.77405491617E+02  0.41800000000E+01 0.  1.
        -11    1    1    2    0    0 -0.28740266078E+02  0.29377208496E+02 -0.54011685484E+02  0.67869620907E+02  0.00000000000E+00 0.  1.
         11    1    1    2    0    0  0.40059269669E+02 -0.23896426342E+02 -0.98235224566E+02  0.10874715456E+03  0.00000000000E+00 0. -1.
</event>
<event>
 6    1  0.4988969E-006  0.1198194E+03  0.7561462E-02  0.1243395E+00
         -1   -1    0    0    0  501 -0.00000000000E+00  0.00000000000E+00  0.14569751631E+03  0.14569751631E+03  0.00000000000E+00 0.  1.
          1   -1    0    0  501    0  0.00000000000E+00 -0.00000000000E+00 -0.10918552319E+03  0.10918552319E+03  0.00000000000E+00 0. -1.
          5    1    1    2  502    0 -0.35670947143E+02  0.50004989969E+02  0.42067391965E+02  0.74565765326E+02  0.41800000000E+01 0. -1.
         -5    1    1    2    0  502 -0.25715349328E+02 -0.63793031241E+02 -0.84853725461E+01  0.69428408978E+02  0.41800000000E+01 0. -1.
        -11    1    1    2    0    0  0.74498002084E+02 -0.16373851111E+02  0.10892918664E+02  0.77050055105E+02  0.00000000000E+00 0.  1.
         11    1    1    2    0    0 -0.13111705612E+02  0.30161892382E+02 -0.79629449664E+01  0.33838810096E+02  0.00000000000E+00 0. -1.
</event>
<event>
 6    1  0.4988969E-006  0.2643125E+03  0.7561462E-02  0.1104580E+00
         -1   -1    0    0    0  501 -0.00000000000E+00  0.00000000000E+00  0.17683307557E+03  0.17683307557E+03  0.00000000000E+00 0.  1.
          1   -1    0    0  501    0  0.00000000000E+00 -0.00000000000E+00 -0.76690956818E+03  0.76690956818E+03  0.00000000000E+00 0. -1.
          5    1    1    2  502    0  0.77353078527E+00  0.15360071126E+03 -0.60090766548E+02  0.16499136182E+03  0.41800000000E+01 0. -1.
         -5    1    1    2    0  502  0.23714792277E+02  0.10794878865E+03  0.60270597209E+02  0.12595772954E+03  0.41800000000E+01 0. -1.
        -11    1    1    2    0    0  0.60455860287E+01 -0.83183963581E+02 -0.10005740469E+03  0.13025976026E+03  0.00000000000E+00 0.  1.
         11    1    1    2    0    0 -0.30533909091E+02 -0.17836553633E+03 -0.49019891857E+03  0.52253379214E+03  0.00000000000E+00 0. -1.
</event>
<event>
 6    1  0.4988969E-006  0.1451649E+03  0.7561462E-02  0.1206543E+00
         -1   -1    0    0    0  501 -0.00000000000E+00  0.00000000000E+00  0.51385012243E+02  0.51385012243E+02  0.00000000000E+00 0.  1.
          1   -1    0    0  501    0  0.00000000000E+00 -0.00000000000E+00 -0.42233224895E+03  0.42233224895E+03  0.00000000000E+00 0. -1.
          5    1    1    2  502    0  0.98632603010E+02  0.14330641820E+02 -0.12922613398E+03  0.16325018767E+03  0.41800000000E+01 0.  1.
         -5    1    1    2    0  502 -0.95245851648E+01 -0.56519873665E+02 -0.46592178424E+02  0.73983223314E+02  0.41800000000E+01 0.  1.
        -11    1    1    2    0    0 -0.55990819473E+02  0.70155194357E+02 -0.12178324288E+03  0.15128741324E+03  0.00000000000E+00 0.  1.
         11    1    1    2    0    0 -0.33117198372E+02 -0.27965962512E+02 -0.73345681431E+02  0.85196436967E+02  0.00000000000E+00 0. -1.
</event>
<event>
 6    1  0.4988969E-006  0.9050096E+02  0.7561462E-02  0.1301643E+00
         -1   -1    0    0    0  501 -0.00000000000E+00  0.00000000000E+00  0.18091826534E+03  0.18091826534E+03  0.00000000000E+00 0.  1.
          1   -1    0    0  501    0  0.00000000000E+00 -0.00000000000E+00 -0.82415200938E+02  0.82415200938E+02  0.00000000000E+00 0. -1.
          5    1    1    2  502    0  0.35195148551E+02  0.15587578362E+02  0.83547921416E+02  0.92083650306E+02  0.41800000000E+01 0. -1.
         -5    1    1    2    0  502 -0.30179349792E+02 -0.51234338967E+02 -0.52300065103E+01  0.59837914497E+02  0.41800000000E+01 0. -1.
        -11    1    1    2    0    0  0.17159788978E+02  0.52234606632E+02 -0.23415816147E+02  0.59759626284E+02  0.00000000000E+00 0. -1.
         11    1    1    2    0    0 -0.22175587738E+02 -0.16587846027E+02  0.43600965644E+02  0.51652275191E+02  0.00000000000E+00 0.  1.
</event>
<event>
 6    1  0.4988969E-006  0.7706817E+02  0.7561462E-02  0.1337584E+00
         -2   -1    0    0    0  501 -0.00000000000E+00  0.00000000000E+00  0.87628661209E+02  0.87628661209E+02  0.00000000000E+00 0. -1.
          2   -1    0    0  501    0  0.00000000000E+00 -0.00000000000E+00 -0.16326075235E+03  0.16326075235E+03  0.00000000000E+00 0.  1.
          5    1    1    2  502    0 -0.12664385548E+02  0.31687560254E+02  0.52470343808E+02  0.62730355614E+02  0.41800000000E+01 0. -1.
         -5    1    1    2    0  502 -0.16906095078E+02 -0.43667193481E+01 -0.67136211507E+02  0.69495522044E+02  0.41800000000E+01 0. -1.
        -11    1    1    2    0    0  0.31624526419E+01  0.34464892290E+02 -0.21087893092E+02  0.40528127792E+02  0.00000000000E+00 0. -1.
         11    1    1    2    0    0  0.26408027985E+02 -0.61785733196E+02 -0.39878330346E+02  0.78135408105E+02  0.00000000000E+00 0.  1.
</event>
<event>
 6    1  0.4988969E-006  0.1231772E+03  0.7561462E-02  0.1237946E+00
         -2   -1    0    0    0  501 -0.00000000000E+00  0.00000000000E+00  0.58743772628E+02  0.58743772628E+02  0.00000000000E+00 0.  1.
          2   -1    0    0  501    0  0.00000000000E+00 -0.00000000000E+00 -0.32702426946E+03  0.32702426946E+03  0.00000000000E+00 0. -1.
          5    1    1    2  502    0 -0.53675219367E+02 -0.45815169369E+02 -0.11733535341E+03  0.13698582583E+03  0.41800000000E+01 0. -1.
         -5    1    1    2    0  502 -0.27215080025E+02  0.68915106452E+02 -0.57620202015E+02  0.93954843187E+02  0.41800000000E+01 0. -1.
        -11    1    1    2    0    0  0.78252427112E+02 -0.53749985928E-01 -0.24192165617E+02  0.81906691517E+02  0.00000000000E+00 0.  1.
         11    1    1    2    0    0  0.26378722798E+01 -0.23046187097E+02 -0.69132775788E+02  0.72920681552E+02  0.00000000000E+00 0. -1.
</event>
<event>
 6    1  0.4988969E-006  0.1084202E+03  0.7561462E-02  0.1263524E+00
         -2   -1    0    0    0  501 -0.00000000000E+00  0.00000000000E+00  0.35783527917E+02  0.35783527917E+02  0.00000000000E+00 0.  1.
          2   -1    0    0  501    0  0.00000000000E+00 -0.00000000000E+00 -0.47102836969E+03  0.47102836969E+03  0.00000000000E+00 0. -1.
          5    1    1    2  502    0  0.42500368367E+01  0.32251582612E+02 -0.85617565780E+01  0.33896953694E+02  0.41800000000E+01 0. -1.
         -5    1    1    2    0  502 -0.26872297099E+02 -0.88549696018E+02 -0.15709472740E+03  0.18237158439E+03  0.41800000000E+01 0. -1.
        -11    1    1    2    0    0 -0.75295423917E+01  0.60500836102E+02 -0.92021480803E+02  0.11038567890E+03  0.00000000000E+00 0.  1.
         11    1    1    2    0    0  0.30151802654E+02 -0.42027226957E+01 -0.17756687700E+03  0.18015768062E+03  0.00000000000E+00 0. -1.
</event>
<event>
 6    1  0.1132941E-005  0.3627299E+03  0.7561462E-02  0.1057508E+00
          1   -1    0    0  501    0  0.00000000000E+00  0.00000000000E+00  0.21922873372E+04  0.21922873372E+04  0.00000000000E+00 0. -1.
         -1   -1    0    0    0  501 -0.00000000000E+00 -0.00000000000E+00 -0.75364739143E+02  0.75364739143E+02  0.00000000000E+00 0.  1.
          5    1    1    2  502    0  0.43545255684E+02  0.83158849275E+02  0.74808805957E+02  0.12010584230E+03  0.41800000000E+01 0.  1.
         -5    1    1    2    0  502  0.14751856686E+03  0.22266259840E+03  0.56355104923E+03  0.62365665055E+03  0.41800000000E+01 0.  1.
        -11    1    1    2    0    0 -0.15697257251E+03 -0.20670309261E+03  0.93739160239E+03  0.97266107830E+03  0.00000000000E+00 0.  1.
         11    1    1    2    0    0 -0.34091250035E+02 -0.99118355062E+02  0.54117114047E+03  0.55122850517E+03  0.00000000000E+00 0. -1.
</event>
<event>
 6    1  0.4988969E-006  0.1065527E+03  0.7561462E-02  0.1267090E+00
          4   -1    0    0  501    0  0.00000000000E+00  0.00000000000E+00  0.14828496349E+03  0.14828496349E+03  0.00000000000E+00 0. -1.
         -4   -1    0    0    0  501 -0.00000000000E+00 -0.00000000000E+00 -0.10120723690E+03  0.10120723690E+03  0.00000000000E+00 0.  1.
          5    1    1    2  502    0  0.92851760830E+02 -0.93403227597E+01  0.25606223405E+01  0.93449025170E+02  0.41800000000E+01 0.  1.
         -5    1    1    2    0  502 -0.36730001371E+02 -0.79951413352E+00  0.30551934259E+02  0.47964834103E+02  0.41800000000E+01 0.  1.
        -11    1    1    2    0    0 -0.16484033066E+01  0.25943862778E+02 -0.27481652089E+02  0.37829121730E+02  0.00000000000E+00 0.  1.
         11    1    1    2    0    0 -0.54473356153E+02 -0.15804025885E+02  0.41446822075E+02  0.70249219390E+02  0.00000000000E+00 0. -1.
</event>
<event>
 6    1  0.4988969E-006  0.1322936E+03  0.7561462E-02  0.1224092E+00
         -2   -1    0    0    0  501 -0.00000000000E+00  0.00000000000E+00  0.20806211066E+03  0.20806211066E+03  0.00000000000E+00 0.  1.
          2   -1    0    0  501    0  0.00000000000E+00 -0.00000000000E+00 -0.11882439170E+03  0.11882439170E+03  0.00000000000E+00 0. -1.
          5    1    1    2  502    0  0.58335431847E+02 -0.27608265660E+01  0.33917758927E+01  0.58648284849E+02  0.41800000000E+01 0. -1.
         -5    1    1    2    0  502 -0.14248502083E+02 -0.91832483111E+02  0.88469498816E+02  0.12837659205E+03  0.41800000000E+01 0. -1.
        -11    1    1    2    0    0 -0.16475920584E+02  0.80199307231E+02  0.36682883204E+02  0.89716323819E+02  0.00000000000E+00 0.  1.
         11    1    1    2    0    0 -0.27611009180E+02  0.14394002446E+02 -0.39306438951E+02  0.50145301648E+02  0.00000000000E+00 0. -1.
</event>
<event>
 6    1  0.1305231E-005  0.2340664E+03  0.7561462E-02  0.1123810E+00
         -1   -1    0    0    0  501 -0.00000000000E+00  0.00000000000E+00  0.36611640066E+02  0.36611640066E+02  0.00000000000E+00 0.  1.
          1   -1    0    0  501    0  0.00000000000E+00 -0.00000000000E+00 -0.16608532182E+04  0.16608532182E+04  0.00000000000E+00 0. -1.
          5    1    1    2  502    0 -0.23877399595E+02 -0.17940939383E+01 -0.68334809188E+02  0.72529080590E+02  0.41800000000E+01 0.  1.
         -5    1    1    2    0  502  0.11125490497E+03 -0.19710691366E+03 -0.62411854698E+03  0.66390528118E+03  0.41800000000E+01 0.  1.
        -11    1    1    2    0    0 -0.66152435800E+02  0.15997178725E+03 -0.85510146550E+03  0.87244806938E+03  0.00000000000E+00 0. -1.
         11    1    1    2    0    0 -0.21225069572E+02  0.38929220351E+02 -0.76686756483E+02  0.88582427125E+02  0.00000000000E+00 0.  1.
</event>
<event>
 6    1  0.4988969E-006  0.1450945E+03  0.7561462E-02  0.1206634E+00
         -3   -1    0    0    0  501 -0.00000000000E+00  0.00000000000E+00  0.18933787445E+03  0.18933787445E+03  0.00000000000E+00 0.  1.
          3   -1    0    0  501    0  0.00000000000E+00 -0.00000000000E+00 -0.15485344106E+03  0.15485344106E+03  0.00000000000E+00 0. -1.
          5    1    1    2  502    0  0.88383258475E+02  0.16063091474E+02  0.97967548226E+02  0.13298396968E+03  0.41800000000E+01 0.  1.
         -5    1    1    2    0  502  0.18896871721E+02  0.47984247099E+02 -0.25998751416E+02  0.57904984290E+02  0.41800000000E+01 0.  1.
        -11    1    1    2    0    0 -0.39722709814E+02  0.16828760573E+02 -0.13795764932E+02  0.45292648271E+02  0.00000000000E+00 0.  1.
         11    1    1    2    0    0 -0.67557420383E+02 -0.80876099145E+02 -0.23688598497E+02  0.10800971327E+03  0.00000000000E+00 0. -1.
</event>
<event>
 6    1  0.4988969E-006  0.7452953E+02  0.7561462E-02  0.1345334E+00
         -1   -1    0    0    0  501 -0.00000000000E+00  0.00000000000E+00  0.40252686448E+02  0.40252686448E+02  0.00000000000E+00 0.  1.
          1   -1    0    0  501    0  0.00000000000E+00 -0.00000000000E+00 -0.26835528504E+03  0.26835528504E+03  0.00000000000E+00 0. -1.
          5    1    1    2  502    0 -0.27052226975E+02  0.22472975764E+02  0.14807671608E+02  0.38387461005E+02  0.41800000000E+01 0. -1.
         -5    1    1    2    0  502  0.39597941910E+02  0.13411431313E+02 -0.12743796748E+03  0.13418558585E+03  0.41800000000E+01 0. -1.
        -11    1    1    2    0    0 -0.33600112645E+02 -0.45947063917E+01 -0.60764435439E+02  0.69587322917E+02  0.00000000000E+00 0.  1.
         11    1    1    2    0    0  0.21054397710E+02 -0.31289700685E+02 -0.54707867275E+02  0.66447601715E+02  0.00000000000E+00 0. -1.
</event>
<event>
 6    1  0.4988969E-006  0.1362041E+03  0.7561462E-02  0.1218530E+00
         -1   -1    0    0    0  501 -0.00000000000E+00  0.00000000000E+00  0.49226073873E+03  0.49226073873E+03  0.00000000000E+00 0.  1.
          1   -1    0    0  501    0  0.00000000000E+00 -0.00000000000E+00 -0.43783099127E+02  0.43783099127E+02  0.00000000000E+00 0. -1.
          5    1    1    2  502    0 -0.34397145645E+02 -0.11722541774E+02  0.13247714772E+03  0.13743452507E+03  0.41800000000E+01 0.  1.
         -5    1    1    2    0  502  0.99645591089E+02 -0.45794333487E+02  0.19531080119E+03  0.22403157425E+03  0.41800000000E+01 0.  1.
        -11    1    1    2    0    0 -0.52543518132E+02 -0.13248072197E+02  0.54451855559E+02  0.76820161992E+02  0.00000000000E+00 0. -1.
         11    1    1    2    0    0 -0.12704927313E+02  0.70764947458E+02  0.66237835140E+02  0.97757576539E+02  0.00000000000E+00 0.  1.
</event>
<event>
 6    1  0.4988969E-006  0.1677452E+03  0.7561462E-02  0.1180220E+00
          2   -1    0    0  501    0  0.00000000000E+00  0.00000000000E+00  0.83004813651E+02  0.83004813651E+02  0.00000000000E+00 0. -1.
         -2   -1    0    0    0  501 -0.00000000000E+00 -0.00000000000E+00 -0.37164097810E+03  0.37164097810E+03  0.00000000000E+00 0.  1.
          5    1    1    2  502    0 -0.27860979052E+02 -0.80098806543E+01 -0.36884058246E+02  0.47098816275E+02  0.41800000000E+01 0. -1.
         -5    1    1    2    0  502  0.59140819312E+02  0.12644987364E+03 -0.16878605498E+03  0.21907398706E+03  0.41800000000E+01 0.  1.
        -11    1    1    2    0    0 -0.51159042869E+02 -0.50333603680E+01 -0.41606649404E+02  0.66133922146E+02  0.00000000000E+00 0.  1.
         11    1    1    2    0    0  0.19879202609E+02 -0.11340663261E+03 -0.41359401825E+02  0.12233906627E+03  0.00000000000E+00 0. -1.
</event>
<event>
 6    1  0.4988969E-006  0.1124857E+03  0.7561462E-02  0.1256035E+00
          2   -1    0    0  501    0  0.00000000000E+00  0.00000000000E+00  0.75306595998E+03  0.75306595998E+03  0.00000000000E+00 0. -1.
         -2   -1    0    0    0  501 -0.00000000000E+00 -0.00000000000E+00 -0.18591188880E+02  0.18591188880E+02  0.00000000000E+00 0.  1.
          5    1    1    2  502    0  0.57514066286E+02  0.13031939363E+02  0.15424408236E+03  0.16518598187E+03  0.41800000000E+01 0. -1.
         -5    1    1    2    0  502 -0.52025659931E+02 -0.46943423428E+02  0.15413640145E+03  0.16936899641E+03  0.41800000000E+01 0. -1.
        -11    1    1    2    0    0  0.28824003158E+02 -0.17590572467E+02  0.19304708048E+03  0.19597812806E+03  0.00000000000E+00 0. -1.
         11    1    1    2    0    0 -0.34312409513E+02  0.51502056532E+02  0.23304720682E+03  0.24112404252E+03  0.00000000000E+00 0.  1.
</event>
<event>
 6    1  0.4988969E-006  0.1105861E+03  0.7561462E-02  0.1259488E+00
          1   -1    0    0  501    0  0.00000000000E+00  0.00000000000E+00  0.90432040632E+03  0.90432040632E+03  0.00000000000E+00 0. -1.
         -1   -1    0    0    0  501 -0.00000000000E+00 -0.00000000000E+00 -0.24330196024E+02  0.24330196024E+02  0.00000000000E+00 0.  1.
          5    1    1    2  502    0  0.18165030984E+02 -0.16820162604E+02  0.38195468165E+03  0.38277896684E+03  0.41800000000E+01 0.  1.
         -5    1    1    2    0  502  0.47483144839E+02 -0.60151017042E+02  0.10497300134E+03  0.13003690748E+03  0.41800000000E+01 0.  1.
        -11    1    1    2    0    0 -0.21984745961E+01  0.50531140660E+02  0.75215819726E+02  0.90640217365E+02  0.00000000000E+00 0.  1.
         11    1    1    2    0    0 -0.63449701227E+02  0.26440038986E+02  0.31784670757E+03  0.32519451066E+03  0.00000000000E+00 0. -1.
</event>
<event>
 6    1  0.4988969E-006  0.1096347E+03  0.7561462E-02  0.1261248E+00
         -2   -1    0    0    0  501 -0.00000000000E+00  0.00000000000E+00  0.87019998195E+02  0.87019998195E+02  0.00000000000E+00 0. -1.
          2   -1    0    0  501    0  0.00000000000E+00 -0.00000000000E+00 -0.26537664533E+03  0.26537664533E+03  0.00000000000E+00 0.  1.
          5    1    1    2  502    0 -0.10820409004E+02  0.19610099426E+01 -0.69904176138E+02  0.70887185390E+02  0.41800000000E+01 0. -1.
         -5    1    1    2    0  502 -0.69816983315E+02 -0.51915097856E+02  0.28181130272E+02  0.91549096380E+02  0.41800000000E+01 0. -1.
        -11    1    1    2    0    0  0.74916463111E+02  0.49982922350E+01 -0.44487329513E+02  0.87273030528E+02  0.00000000000E+00 0. -1.
         11    1    1    2    0    0  0.57209292082E+01  0.44955795678E+02 -0.92146271755E+02  0.10268733123E+03  0.00000000000E+00 0.  1.
</event>
<event>
 6    1  0.4988969E-006  0.8667931E+02  0.7561462E-02  0.1311098E+00
          3   -1    0    0  501    0  0.00000000000E+00  0.00000000000E+00  0.27977591901E+03  0.27977591901E+03  0.00000000000E+00 0. -1.
         -3   -1    0    0    0  501 -0.00000000000E+00 -0.00000000000E+00 -0.44638737441E+02  0.44638737441E+02  0.00000000000E+00 0.  1.
          5    1    1    2  502    0 -0.37088019772E+02  0.41192844406E+02  0.19784941054E+02  0.59002440063E+02  0.41800000000E+01 0. -1.
         -5    1    1    2    0  502  0.10716796419E+02 -0.55326258815E+02  0.11029030082E+03  0.12392444268E+03  0.41800000000E+01 0. -1.
        -11    1    1    2    0    0  0.37833123635E+02 -0.57939725645E+01  0.47411427400E+01  0.38566744697E+02  0.00000000000E+00 0.  1.
         11    1    1    2    0    0 -0.11461900282E+02  0.19927386973E+02  0.10032079696E+03  0.10292102901E+03  0.00000000000E+00 0. -1.
</event>
<event>
 6    1  0.4988969E-006  0.1091155E+03  0.7561462E-02  0.1262217E+00
          2   -1    0    0  501    0  0.00000000000E+00  0.00000000000E+00  0.44239928483E+02  0.44239928483E+02  0.00000000000E+00 0. -1.
         -2   -1    0    0    0  501 -0.00000000000E+00 -0.00000000000E+00 -0.39382090866E+03  0.39382090866E+03  0.00000000000E+00 0.  1.
          5    1    1    2  502    0  0.51966918995E+02 -0.16036512481E+02 -0.41724013982E+02  0.68673838870E+02  0.41800000000E+01 0. -1.
         -5    1    1    2    0  502 -0.30807265048E+02 -0.57482705318E+02 -0.24243442853E+03  0.25108817878E+03  0.41800000000E+01 0. -1.
        -11    1    1    2    0    0  0.22065826527E+02  0.23957211944E+02 -0.17934292648E+02  0.37181817562E+02  0.00000000000E+00 0. -1.
         11    1    1    2    0    0 -0.43225480474E+02  0.49562005854E+02 -0.47488245022E+02  0.81117001928E+02  0.00000000000E+00 0.  1.
</event>
<event>
 6    1  0.4988969E-006  0.2601664E+03  0.7561462E-02  0.1107043E+00
          2   -1    0    0  501    0  0.00000000000E+00  0.00000000000E+00  0.25690383288E+03  0.25690383288E+03  0.00000000000E+00 0. -1.
         -2   -1    0    0    0  501 -0.00000000000E+00 -0.00000000000E+00 -0.30535250867E+03  0.30535250867E+03  0.00000000000E+00 0.  1.
          5    1    1    2  502    0  0.34526449779E+02 -0.12390435875E+03  0.26571411812E+02  0.13140729880E+03  0.41800000000E+01 0.  1.
         -5    1    1    2    0  502  0.44046154433E+02 -0.11615207518E+03 -0.10090617760E+03  0.16009652516E+03  0.41800000000E+01 0.  1.
        -11    1    1    2    0    0 -0.95801481447E+01  0.16545845454E+03 -0.63718916153E+00  0.16573679564E+03  0.00000000000E+00 0. -1.
         11    1    1    2    0    0 -0.68992456067E+02  0.74597979389E+02  0.26523279164E+02  0.10501572197E+03  0.00000000000E+00 0.  1.
</event>
<event>
 6    1  0.4988969E-006  0.1246642E+03  0.7561462E-02  0.1235595E+00
         -2   -1    0    0    0  501 -0.00000000000E+00  0.00000000000E+00  0.61179876805E+02  0.61179876805E+02  0.00000000000E+00 0.  1.
          2   -1    0    0  501    0  0.00000000000E+00 -0.00000000000E+00 -0.28250802762E+03  0.28250802762E+03  0.00000000000E+00 0. -1.
          5    1    1    2  502    0 -0.36428324436E+01 -0.72019637208E+02 -0.23294066742E+02  0.75895878131E+02  0.41800000000E+01 0.  1.
         -5    1    1    2    0  502 -0.66368785831E+02  0.31433995319E+02 -0.59083492717E+02  0.94346400599E+02  0.41800000000E+01 0.  1.
        -11    1    1    2    0    0  0.16426731412E+02 -0.17848297587E+02 -0.27465213889E+02  0.36643378742E+02  0.00000000000E+00 0. -1.
         11    1    1    2    0    0  0.53584886862E+02  0.58433939477E+02 -0.11148537747E+03  0.13680224696E+03  0.00000000000E+00 0.  1.
</event>
<event>
 6    1  0.4988969E-006  0.6222420E+02  0.7561462E-02  0.1388728E+00
          3   -1    0    0  501    0  0.00000000000E+00  0.00000000000E+00  0.47621585095E+02  0.47621585095E+02  0.00000000000E+00 0. -1.
         -3   -1    0    0    0  501 -0.00000000000E+00 -0.00000000000E+00 -0.30913619929E+03  0.30913619929E+03  0.00000000000E+00 0.  1.
          5    1    1    2  502    0 -0.82130161080E+01  0.32874219667E+02  0.70539063016E+01  0.34862557945E+02  0.41800000000E+01 0.  1.
         -5    1    1    2    0  502 -0.50011238913E+01  0.72047954886E+01 -0.19265363426E+03  0.19289845907E+03  0.41800000000E+01 0.  1.
        -11    1    1    2    0    0  0.39596735977E+02 -0.10518898638E+02  0.25985898397E+01  0.41052422556E+02  0.00000000000E+00 0. -1.
         11    1    1    2    0    0 -0.26382595978E+02 -0.29560116518E+02 -0.78513476081E+02  0.87944344817E+02  0.00000000000E+00 0.  1.
</event>
<event>
 6    1  0.4988969E-006  0.1043924E+03  0.7561462E-02  0.1271321E+00
         -1   -1    0    0    0  501 -0.00000000000E+00  0.00000000000E+00  0.79464483958E+03  0.79464483958E+03  0.00000000000E+00 0.  1.
          1   -1    0    0  501    0  0.00000000000E+00 -0.00000000000E+00 -0.19441128754E+02  0.19441128754E+02  0.00000000000E+00 0. -1.
          5    1    1    2  502    0 -0.60376392438E+02 -0.34084017624E+02  0.43254517547E+03  0.43808655565E+03  0.41800000000E+01 0.  1.
         -5    1    1    2    0  502  0.34299523335E+02 -0.19006952796E+02  0.48746202998E+02  0.62700767637E+02  0.41800000000E+01 0.  1.
        -11    1    1    2    0    0  0.46441824252E+02  0.62163289704E+02  0.16331213497E+03  0.18080921175E+03  0.00000000000E+00 0. -1.
         11    1    1    2    0    0 -0.20364955149E+02 -0.90723192850E+01  0.13060019739E+03  0.13248943329E+03  0.00000000000E+00 0.  1.
</event>
<event>
 6    1  0.4988969E-006  0.1289569E+03  0.7561462E-02  0.1229012E+00
          1   -1    0    0  501    0  0.00000000000E+00  0.00000000000E+00  0.63155380678E+02  0.63155380678E+02  0.00000000000E+00 0. -1.
         -1   -1    0    0    0  501 -0.00000000000E+00 -0.00000000000E+00 -0.29790831431E+03  0.29790831431E+03  0.00000000000E+00 0.  1.
          5    1    1    2  502    0 -0.30063219539E+02  0.41562082426E+02 -0.40019116466E+02  0.65193603576E+02  0.41800000000E+01 0. -1.
         -5    1    1    2    0  502 -0.37465392906E+02 -0.91883618363E+02 -0.80943804451E+02  0.12812348289E+03  0.41800000000E+01 0. -1.
        -11    1    1    2    0    0  0.36270763259E+02  0.63564422561E+02 -0.33327507401E+02  0.80415961304E+02  0.00000000000E+00 0. -1.
         11    1    1    2    0    0  0.31257849186E+02 -0.13242886624E+02 -0.80462505316E+02  0.87330647218E+02  0.00000000000E+00 0.  1.
</event>
<event>
 6    1  0.4988969E-006  0.1386275E+03  0.7561462E-02  0.1215188E+00
         -2   -1    0    0    0  501 -0.00000000000E+00  0.00000000000E+00  0.23675710802E+02  0.23675710802E+02  0.00000000000E+00 0.  1.
          2   -1    0    0  501    0  0.00000000000E+00 -0.00000000000E+00 -0.96991129618E+03  0.96991129618E+03  0.00000000000E+00 0. -1.
          5    1    1    2  502    0  0.62912890839E+02 -0.94485779761E+02 -0.38505212705E+03  0.40145760343E+03  0.41800000000E+01 0. -1.
         -5    1    1    2    0  502 -0.19443255084E+02  0.12768069797E+02 -0.15511202382E+02  0.28268950705E+02  0.41800000000E+01 0. -1.
        -11    1    1    2    0    0 -0.33131472074E+02  0.10737382775E+03 -0.47130930705E+03  0.48451965516E+03  0.00000000000E+00 0. -1.
         11    1    1    2    0    0 -0.10338163680E+02 -0.25656117782E+02 -0.74362948905E+02  0.79340797688E+02  0.00000000000E+00 0.  1.
</event>
<event>
 6    1  0.4988969E-006  0.8259859E+02  0.7561462E-02  0.1321835E+00
         -1   -1    0    0    0  501 -0.00000000000E+00  0.00000000000E+00  0.67932022728E+02  0.67932022728E+02  0.00000000000E+00 0.  1.
          1   -1    0    0  501    0  0.00000000000E+00 -0.00000000000E+00 -0.20596219377E+03  0.20596219377E+03  0.00000000000E+00 0. -1.
          5    1    1    2  502    0 -0.52608439906E+02 -0.52085671472E+01 -0.11351428832E+03  0.12529063482E+03  0.41800000000E+01 0. -1.
         -5    1    1    2    0  502  0.25127725527E+02  0.33828872397E+02  0.79961058654E+01  0.43095304928E+02  0.41800000000E+01 0. -1.
        -11    1    1    2    0    0 -0.13711188474E+02  0.69708517294E+01  0.23057480953E+02  0.27717086627E+02  0.00000000000E+00 0.  1.
         11    1    1    2    0    0  0.41191902852E+02 -0.35591156980E+02 -0.55569469544E+02  0.77791190125E+02  0.00000000000E+00 0. -1.
</event>
<event>
 6    1  0.4988969E-006  0.9420996E+02  0.7561462E-02  0.1292965E+00
         -1   -1    0    0    0  501 -0.00000000000E+00  0.00000000000E+00  0.18790404736E+03  0.18790404736E+03  0.00000000000E+00 0.  1.
          1   -1    0    0  501    0  0.00000000000E+00 -0.00000000000E+00 -0.77542301776E+02  0.77542301776E+02  0.00000000000E+00 0. -1.
          5    1    1    2  502    0  0.18879840519E+02 -0.30529116832E+02  0.54469444239E+02  0.65367179136E+02  0.41800000000E+01 0.  1.
         -5    1    1    2    0  502 -0.49554051535E+02  0.73902210018E+02  0.26988545845E+02  0.93075209782E+02  0.41800000000E+01 0.  1.
        -11    1    1    2    0    0  0.91237028391E+01  0.48886408258E+01  0.49281692950E+02  0.50356985837E+02  0.00000000000E+00 0.  1.
         11    1    1    2    0    0  0.21550508177E+02 -0.48261734012E+02 -0.20377937445E+02  0.56646974386E+02  0.00000000000E+00 0. -1.
</event>
<event>
 6    1  0.4988969E-006  0.1036561E+03  0.7561462E-02  0.1272790E+00
         -1   -1    0    0    0  501 -0.00000000000E+00  0.00000000000E+00  0.20324692462E+03  0.20324692462E+03  0.00000000000E+00 0.  1.
          1   -1    0    0  501    0  0.00000000000E+00 -0.00000000000E+00 -0.80716964903E+02  0.80716964903E+02  0.00000000000E+00 0. -1.
          5    1    1    2  502    0  0.49651306655E+02 -0.43628344042E+02  0.56253804414E+02  0.86894462237E+02  0.41800000000E+01 0.  1.
         -5    1    1    2    0  502 -0.72481795456E+02 -0.18202772587E+02  0.50906410466E+02  0.90520089643E+02  0.41800000000E+01 0.  1.
        -11    1    1    2    0    0  0.86722880358E+01  0.32917630385E+02  0.49213355011E+02  0.59839228616E+02  0.00000000000E+00 0.  1.
         11    1    1    2    0    0  0.14158200765E+02  0.28913486244E+02 -0.33843610174E+02  0.46710109027E+02  0.00000000000E+00 0. -1.
</event>
<event>
 6    1  0.4988969E-006  0.1065681E+03  0.7561462E-02  0.1267061E+00
          3   -1    0    0  501    0  0.00000000000E+00  0.00000000000E+00  0.46780591864E+02  0.46780591864E+02  0.00000000000E+00 0. -1.
         -3   -1    0    0    0  501 -0.00000000000E+00 -0.00000000000E+00 -0.48444141673E+03  0.48444141673E+03  0.00000000000E+00 0.  1.
          5    1    1    2  502    0 -0.12463914119E+01 -0.65596812682E+02 -0.29542209591E+02  0.72074335745E+02  0.41800000000E+01 0. -1.
         -5    1    1    2    0  502 -0.82384376852E+01 -0.36680222783E+02 -0.23524709861E+03  0.23826871470E+03  0.41800000000E+01 0. -1.
        -11    1    1    2    0    0  0.24183431071E+02  0.71107229472E+02 -0.17053074621E+03  0.18633789690E+03  0.00000000000E+00 0.  1.
         11    1    1    2    0    0 -0.14698601974E+02  0.31169805993E+02 -0.23407704576E+01  0.34541061246E+02  0.00000000000E+00 0. -1.
</event>
<event>
 6    1  0.4988969E-006  0.9503608E+02  0.7561462E-02  0.1291095E+00
         -2   -1    0    0    0  501 -0.00000000000E+00  0.00000000000E+00  0.34509265064E+02  0.34509265064E+02  0.00000000000E+00 0.  1.
          2   -1    0    0  501    0  0.00000000000E+00 -0.00000000000E+00 -0.46109037006E+03  0.46109037006E+03  0.00000000000E+00 0. -1.
          5    1    1    2  502    0  0.75009297925E+02  0.31089716918E+02 -0.32430236970E+03  0.33433884708E+03  0.41800000000E+01 0. -1.
         -5    1    1    2    0  502 -0.17541538697E+02  0.20271961308E+02 -0.69017523474E+01  0.27995795767E+02  0.41800000000E+01 0. -1.
        -11    1    1    2    0    0 -0.90746236469E+01 -0.24853002796E+02 -0.65223258504E+02  0.70385325119E+02  0.00000000000E+00 0. -1.
         11    1    1    2    0    0 -0.48393135581E+02 -0.26508675431E+02 -0.30153724450E+02  0.62879667164E+02  0.00000000000E+00 0.  1.
</event>
<event>
 6    1  0.4988969E-006  0.1634118E+03  0.7561462E-02  0.1184898E+00
          2   -1    0    0  501    0  0.00000000000E+00  0.00000000000E+00  0.12591523001E+04  0.12591523001E+04  0.00000000000E+00 0. -1.
         -2   -1    0    0    0  501 -0.00000000000E+00 -0.00000000000E+00 -0.35364681039E+02  0.35364681039E+02  0.00000000000E+00 0.  1.
          5    1    1    2  502    0 -0.73241085773E+02  0.13631817075E+03  0.54989640615E+03  0.57127089039E+03  0.41800000000E+01 0. -1.
         -5    1    1    2    0  502  0.24111407417E+02 -0.43530227255E+02  0.18706310845E+02  0.53325782862E+02  0.41800000000E+01 0.  1.
        -11    1    1    2    0    0  0.37153175777E+02 -0.10096273947E+03  0.63978862768E+03  0.64877062306E+03  0.00000000000E+00 0.  1.
         11    1    1    2    0    0  0.11976502580E+02  0.81747959741E+01  0.15396274397E+02  0.21149684834E+02  0.00000000000E+00 0. -1.
</event>
<event>
 6    1  0.5767829E-006  0.8623806E+02  0.7561462E-02  0.1312226E+00
          1   -1    0    0  501    0  0.00000000000E+00  0.00000000000E+00  0.19356490886E+03  0.19356490886E+03  0.00000000000E+00 0. -1.
         -1   -1    0    0    0  501 -0.00000000000E+00 -0.00000000000E+00 -0.79445156274E+02  0.79445156274E+02  0.00000000000E+00 0.  1.
          5    1    1    2  502    0 -0.17875343878E+02  0.34045801848E+02 -0.30004124014E+02  0.48952675107E+02  0.41800000000E+01 0. -1.
         -5    1    1    2    0  502 -0.35650240783E+02 -0.48341723300E+02  0.72623429343E+02  0.94337144164E+02  0.41800000000E+01 0. -1.
        -11    1    1    2    0    0  0.19627190036E+02  0.30298266598E+02 -0.12121472712E+02  0.38080725417E+02  0.00000000000E+00 0.  1.
         11    1    1    2    0    0  0.33898394625E+02 -0.16002345146E+02  0.83621919965E+02  0.91639520443E+02  0.00000000000E+00 0. -1.
</event>
<event>
 6    1  0.4988969E-006  0.1171048E+03  0.7561462E-02  0.1247951E+00
         -1   -1    0    0    0  501 -0.00000000000E+00  0.00000000000E+00  0.14653300299E+03  0.14653300299E+03  0.00000000000E+00 0.  1.
          1   -1    0    0  501    0  0.00000000000E+00 -0.00000000000E+00 -0.13848019935E+03  0.13848019935E+03  0.00000000000E+00 0. -1.
          5    1    1    2  502    0  0.49880824770E+02 -0.20150399113E+02  0.29489059753E+02  0.61491562911E+02  0.41800000000E+01 0. -1.
         -5    1    1    2    0  502 -0.40989025629E+02  0.69255744267E+02  0.52617628705E+02  0.96242119607E+02  0.41800000000E+01 0. -1.
        -11    1    1    2    0    0  0.29627693967E+02  0.80863889694E+01 -0.78726127186E+01  0.31704384041E+02  0.00000000000E+00 0.  1.
         11    1    1    2    0    0 -0.38519493108E+02 -0.57191734124E+02 -0.66181272103E+02  0.95575135776E+02  0.00000000000E+00 0. -1.
</event>
<event>
 6    1  0.4988969E-006  0.6704410E+02  0.7561462E-02  0.1370443E+00
          1   -1    0    0  501    0  0.00000000000E+00  0.00000000000E+00  0.16659480104E+03  0.16659480104E+03  0.00000000000E+00 0. -1.
         -1   -1    0    0    0  501 -0.00000000000E+00 -0.00000000000E+00 -0.91307106106E+02  0.91307106106E+02  0.00000000000E+00 0.  1.
          5    1    1    2  502    0  0.35714182721E+02 -0.73251369834E+01 -0.60281703188E+02  0.70572775335E+02  0.41800000000E+01 0. -1.
         -5    1    1    2    0  502  0.16998165253E+01  0.18783461519E+02  0.57405295068E+02  0.60568540553E+02  0.41800000000E+01 0. -1.
        -11    1    1    2    0    0 -0.33800196970E+02  0.24619197961E+02  0.13711431730E+01  0.41838239172E+02  0.00000000000E+00 0.  1.
         11    1    1    2    0    0 -0.36138022762E+01 -0.36077522497E+02  0.76792959877E+02  0.84922352081E+02  0.00000000000E+00 0. -1.
</event>
<event>
 6    1  0.4988969E-006  0.1237917E+03  0.7561462E-02  0.1236970E+00
         -1   -1    0    0    0  501 -0.00000000000E+00  0.00000000000E+00  0.85695216164E+03  0.85695216164E+03  0.00000000000E+00 0.  1.
          1   -1    0    0  501    0  0.00000000000E+00 -0.00000000000E+00 -0.21823402540E+02  0.21823402540E+02  0.00000000000E+00 0. -1.
          5    1    1    2  502    0  0.40559502028E+02 -0.32300566647E+02  0.37339655960E+03  0.37700247072E+03  0.41800000000E+01 0. -1.
         -5    1    1    2    0  502  0.23767912642E+02  0.75715582288E+02  0.20574821962E+03  0.22056193087E+03  0.41800000000E+01 0. -1.
        -11    1    1    2    0    0 -0.24465467284E+02 -0.65925135307E+02  0.16501474788E+03  0.17937265558E+03  0.00000000000E+00 0.  1.
         11    1    1    2    0    0 -0.39861947386E+02  0.22510119666E+02  0.90969232008E+02  0.10183850700E+03  0.00000000000E+00 0. -1.
</event>
<event>
 6    1  0.4988969E-006  0.1225748E+03  0.7561462E-02  0.1238909E+00
         -1   -1    0    0    0  501 -0.00000000000E+00  0.00000000000E+00  0.28101677536E+02  0.28101677536E+02  0.00000000000E+00 0.  1.
          1   -1    0    0  501    0  0.00000000000E+00 -0.00000000000E+00 -0.57850353783E+03  0.57850353783E+03  0.00000000000E+00 0. -1.
          5    1    1    2  502    0 -0.25856324825E+02  0.40005860925E+02 -0.61696736252E+02  0.78057530744E+02  0.41800000000E+01 0. -1.
         -5    1    1    2    0  502 -0.25637697963E+02 -0.81926976599E+02 -0.24836066354E+03  0.26281136324E+03  0.41800000000E+01 0. -1.
        -11    1    1    2    0    0  0.76886414650E+02  0.37747863482E+02 -0.16163397243E+03  0.18292611350E+03  0.00000000000E+00 0.  1.
         11    1    1    2    0    0 -0.25392391862E+02  0.41732521913E+01 -0.78710488064E+02  0.82810207883E+02  0.00000000000E+00 0. -1.
</event>
<event>
 6    1  0.4988969E-006  0.2971477E+03  0.7561462E-02  0.1086675E+00
          1   -1    0    0  501    0  0.00000000000E+00  0.00000000000E+00  0.16149018024E+03  0.16149018024E+03  0.00000000000E+00 0. -1.
         -1   -1    0    0    0  501 -0.00000000000E+00 -0.00000000000E+00 -0.68706311469E+03  0.68706311469E+03  0.00000000000E+00 0.  1.
          5    1    1    2  502    0  0.24887664012E+03  0.14660329814E+03 -0.35309085696E+03  0.45620470700E+03  0.41800000000E+01 0. -1.
         -5    1    1    2    0  502 -0.90629530931E+00  0.76271270977E+00 -0.74039314144E+02  0.74166674057E+02  0.41800000000E+01 0. -1.
        -11    1    1    2    0    0 -0.84994861884E+02 -0.57879381146E+01 -0.42315713180E+02  0.95122270558E+02  0.00000000000E+00 0. -1.
         11    1    1    2    0    0 -0.16297548292E+03 -0.14157807274E+03 -0.56127050167E+02  0.22305964331E+03  0.00000000000E+00 0.  1.
</event>
<event>
 6    1  0.4988969E-006  0.9578119E+02  0.7561462E-02  0.1289426E+00
          4   -1    0    0  501    0  0.00000000000E+00  0.00000000000E+00  0.80554280791E+02  0.80554280791E+02  0.00000000000E+00 0. -1.
         -4   -1    0    0    0  501 -0.00000000000E+00 -0.00000000000E+00 -0.21280026475E+03  0.21280026475E+03  0.00000000000E+00 0.  1.
          5    1    1    2  502    0 -0.58541585433E+02 -0.26048570442E+02 -0.33061059299E+02  0.72222927725E+02  0.41800000000E+01 0. -1.
         -5    1    1    2    0  502  0.34887482200E+02  0.18219290588E+02 -0.12367149246E+03  0.12985064270E+03  0.41800000000E+01 0. -1.
        -11    1    1    2    0    0  0.42311154101E+02 -0.25625194551E+02  0.11029331259E+02  0.50680671909E+02  0.00000000000E+00 0.  1.
         11    1    1    2    0    0 -0.18657050867E+02  0.33454474405E+02  0.13457236541E+02  0.40600303202E+02  0.00000000000E+00 0. -1.
</event>
<event>
 6    1  0.4988969E-006  0.3895366E+03  0.7561462E-02  0.1047464E+00
          1   -1    0    0  501    0  0.00000000000E+00  0.00000000000E+00  0.10759357606E+04  0.10759357606E+04  0.00000000000E+00 0. -1.
         -1   -1    0    0    0  501 -0.00000000000E+00 -0.00000000000E+00 -0.33181114194E+03  0.33181114194E+03  0.00000000000E+00 0.  1.
          5    1    1    2  502    0  0.23507351837E+03  0.11784117828E+03 -0.51927519002E+02  0.26806723404E+03  0.41800000000E+01 0. -1.
         -5    1    1    2    0  502  0.79502222437E+02  0.96222622590E+02 -0.10119958632E+03  0.16074272967E+03  0.41800000000E+01 0. -1.
        -11    1    1    2    0    0 -0.15487948116E+03 -0.51255453589E+02  0.39267762008E+03  0.42521816579E+03  0.00000000000E+00 0. -1.
         11    1    1    2    0    0 -0.15969625964E+03 -0.16280834728E+03  0.50457410390E+03  0.55371877304E+03  0.00000000000E+00 0.  1.
</event>
<event>
 6    1  0.4988969E-006  0.2507397E+03  0.7561462E-02  0.1112838E+00
         -1   -1    0    0    0  501 -0.00000000000E+00  0.00000000000E+00  0.73241158309E+02  0.73241158309E+02  0.00000000000E+00 0.  1.
          1   -1    0    0  501    0  0.00000000000E+00 -0.00000000000E+00 -0.10879205790E+04  0.10879205790E+04  0.00000000000E+00 0. -1.
          5    1    1    2  502    0 -0.13674703036E+03  0.61285445664E+02 -0.27591992379E+03  0.31401422405E+03  0.41800000000E+01 0. -1.
         -5    1    1    2    0  502  0.21523717019E+03  0.24358863648E+02 -0.22285806201E+03  0.31081116755E+03  0.41800000000E+01 0.  1.
        -11    1    1    2    0    0 -0.24424669384E+02  0.89085931946E+01 -0.37100851136E+02  0.45303428813E+02  0.00000000000E+00 0.  1.
         11    1    1    2    0    0 -0.54065470449E+02 -0.94552902507E+02 -0.47880058373E+03  0.49103291687E+03  0.00000000000E+00 0. -1.
</event>
<event>
 6    1  0.4988969E-006  0.9453480E+02  0.7561462E-02  0.1292227E+00
         -2   -1    0    0    0  501 -0.00000000000E+00  0.00000000000E+00  0.33993641101E+02  0.33993641101E+02  0.00000000000E+00 0.  1.
          2   -1    0    0  501    0  0.00000000000E+00 -0.00000000000E+00 -0.58759986213E+03  0.58759986213E+03  0.00000000000E+00 0. -1.
          5    1    1    2  502    0 -0.37474945428E+02  0.56456485309E+01 -0.20782201487E+03  0.21129057515E+03  0.41800000000E+01 0. -1.
         -5    1    1    2    0  502 -0.23713235195E+02 -0.26135544102E+01  0.12559846023E+02  0.27283150884E+02  0.41800000000E+01 0.  1.
        -11    1    1    2    0    0  0.16282737497E+02  0.52695090772E+02 -0.22524762952E+03  0.23190169197E+03  0.00000000000E+00 0.  1.
         11    1    1    2    0    0  0.44905443126E+02 -0.55727184893E+02 -0.13309642266E+03  0.15111808523E+03  0.00000000000E+00 0. -1.
</event>
<event>
 6    1  0.4988969E-006  0.9189644E+02  0.7561462E-02  0.1298323E+00
          2   -1    0    0  501    0  0.00000000000E+00  0.00000000000E+00  0.39050781766E+02  0.39050781766E+02  0.00000000000E+00 0. -1.
         -2   -1    0    0    0  501 -0.00000000000E+00 -0.00000000000E+00 -0.30250605142E+03  0.30250605142E+03  0.00000000000E+00 0.  1.
          5    1    1    2  502    0 -0.52969278259E+02 -0.18869876353E+02 -0.23367263255E+02  0.61035383712E+02  0.41800000000E+01 0. -1.
         -5    1    1    2    0  502  0.35229739682E+02  0.13891162338E+02 -0.14264467735E+03  0.14764509922E+03  0.41800000000E+01 0. -1.
        -11    1    1    2    0    0 -0.35453055921E+02 -0.27387464661E+01 -0.48819956908E+02  0.60397086841E+02  0.00000000000E+00 0.  1.
         11    1    1    2    0    0  0.53192594498E+02  0.77174604810E+01 -0.48623372143E+02  0.72479263409E+02  0.00000000000E+00 0. -1.
</event>
<event>
 6    1  0.4988969E-006  0.1664130E+03  0.7561462E-02  0.1181641E+00
          1   -1    0    0  501    0  0.00000000000E+00  0.00000000000E+00  0.20098895042E+03  0.20098895042E+03  0.00000000000E+00 0. -1.
         -1   -1    0    0    0  501 -0.00000000000E+00 -0.00000000000E+00 -0.30381195060E+03  0.30381195060E+03  0.00000000000E+00 0.  1.
          5    1    1    2  502    0  0.54569579406E+02  0.87338794421E+02 -0.46033242367E+02  0.11288239814E+03  0.41800000000E+01 0.  1.
         -5    1    1    2    0  502 -0.16325362237E+02  0.64724415711E+02 -0.16613074942E+03  0.17908842996E+03  0.41800000000E+01 0.  1.
        -11    1    1    2    0    0  0.99821536062E+01 -0.30593678457E+02 -0.12142485677E+02  0.34395588533E+02  0.00000000000E+00 0.  1.
         11    1    1    2    0    0 -0.48226370776E+02 -0.12146953168E+03  0.12148347728E+03  0.17843448438E+03  0.00000000000E+00 0. -1.
</event>
<event>
 6    1  0.4988969E-006  0.8886801E+02  0.7561462E-02  0.1305616E+00
          1   -1    0    0  501    0  0.00000000000E+00  0.00000000000E+00  0.40989904502E+02  0.40989904502E+02  0.00000000000E+00 0. -1.
         -1   -1    0    0    0  501 -0.00000000000E+00 -0.00000000000E+00 -0.45317064112E+03  0.45317064112E+03  0.00000000000E+00 0.  1.
          5    1    1    2  502    0  0.54532872228E+02 -0.40896371435E+02 -0.28607672272E+03  0.29411513228E+03  0.41800000000E+01 0.  1.
         -5    1    1    2    0  502 -0.42048755574E+02 -0.15474422726E+02 -0.41337857297E+02  0.61105208043E+02  0.41800000000E+01 0.  1.
        -11    1    1    2    0    0  0.92149921843E+01  0.21221595644E+02  0.17262766829E+02  0.28866508643E+02  0.00000000000E+00 0. -1.
         11    1    1    2    0    0 -0.21699108838E+02  0.35149198517E+02 -0.10202892343E+03  0.11007369666E+03  0.00000000000E+00 0.  1.
</event>
<event>
 6    1  0.4988969E-006  0.1394210E+03  0.7561462E-02  0.1214110E+00
         -1   -1    0    0    0  501 -0.00000000000E+00  0.00000000000E+00  0.98349898976E+02  0.98349898976E+02  0.00000000000E+00 0.  1.
          1   -1    0    0  501    0  0.00000000000E+00 -0.00000000000E+00 -0.23373697997E+03  0.23373697997E+03  0.00000000000E+00 0. -1.
          5    1    1    2  502    0  0.11704515666E+03  0.33213059587E+02 -0.12881043991E+02  0.12241760379E+03  0.41800000000E+01 0.  1.
         -5    1    1    2    0  502 -0.32519361331E+02 -0.22566262284E+00 -0.27330705830E+01  0.32901396016E+02  0.41800000000E+01 0.  1.
        -11    1    1    2    0    0 -0.38271290399E+02 -0.59691376081E+02 -0.93217822672E+02  0.11712093968E+03  0.00000000000E+00 0.  1.
         11    1    1    2    0    0 -0.46254504929E+02  0.26703979117E+02 -0.26555143745E+02  0.59646939454E+02  0.00000000000E+00 0. -1.
</event>
<event>
 6    1  0.4988969E-006  0.1141457E+03  0.7561462E-02  0.1253080E+00
         -2   -1    0    0    0  501 -0.00000000000E+00  0.00000000000E+00  0.85794340306E+03  0.85794340306E+03  0.00000000000E+00 0.  1.
          2   -1    0    0  501    0  0.00000000000E+00 -0.00000000000E+00 -0.79224150091E+02  0.79224150091E+02  0.00000000000E+00 0. -1.
          5    1    1    2  502    0  0.34517986793E+00  0.19831401172E+02  0.19409648784E+02  0.28064398934E+02  0.41800000000E+01 0. -1.
         -5    1    1    2    0  502  0.77342690334E+02 -0.37965245013E+02  0.78067013416E+03  0.78542127699E+03  0.41800000000E+01 0.  1.
        -11    1    1    2    0    0 -0.63769001287E+02 -0.30849499303E+02 -0.10483004410E+02  0.71610547504E+02  0.00000000000E+00 0.  1.
         11    1    1    2    0    0 -0.13918868915E+02  0.48983343145E+02 -0.10877525560E+02  0.52071329730E+02  0.00000000000E+00 0. -1.
</event>
<event>
 6    1  0.4988969E-006  0.1241402E+03  0.7561462E-02  0.1236419E+00
          2   -1    0    0  501    0  0.00000000000E+00  0.00000000000E+00  0.57384474968E+03  0.57384474968E+03  0.00000000000E+00 0.  1.
         -2   -1    0    0    0  501 -0.00000000000E+00 -0.00000000000E+00 -0.45319338096E+02  0.45319338096E+02  0.00000000000E+00 0. -1.
          5    1    1    2  502    0  0.56218109006E+02  0.42734208227E+01  0.57684255427E+01  0.56828558305E+02  0.41800000000E+01 0.  1.
         -5    1    1    2    0  502  0.50605036274E+02  0.37976467302E+02  0.20090898162E+03  0.21067741469E+03  0.41800000000E+01 0.  1.
        -11    1    1    2    0    0 -0.26910441825E+02 -0.40228187050E+02  0.20113605870E+03  0.20687724143E+03  0.00000000000E+00 0.  1.
         11    1    1    2    0    0 -0.79912703455E+02 -0.20217010751E+01  0.12071194573E+03  0.14478087336E+03  0.00000000000E+00 0. -1.
</event>
<event>
 6    1  0.4988969E-006  0.1035141E+03  0.7561462E-02  0.1273075E+00
         -2   -1    0    0    0  501 -0.00000000000E+00  0.00000000000E+00  0.10154567776E+03  0.10154567776E+03  0.00000000000E+00 0.  1.
          2   -1    0    0  501    0  0.00000000000E+00 -0.00000000000E+00 -0.14791771369E+03  0.14791771369E+03  0.00000000000E+00 0. -1.
          5    1    1    2  502    0  0.71370397397E+02 -0.97656075474E+01 -0.22471473813E+02  0.75574732885E+02  0.41800000000E+01 0. -1.
         -5    1    1    2    0  502 -0.49326300091E+02 -0.42197395800E+02 -0.17545851267E+02  0.67372348851E+02  0.41800000000E+01 0. -1.
        -11    1    1    2    0    0  0.98751014799E+01  0.28632348883E+02  0.37016843088E+02  0.47828607590E+02  0.00000000000E+00 0.  1.
         11    1    1    2    0    0 -0.31919198785E+02  0.23330654464E+02 -0.43371553938E+02  0.58687702117E+02  0.00000000000E+00 0. -1.
</event>
<event>
 6    1  0.4988969E-006  0.1793406E+03  0.7561462E-02  0.1168443E+00
         -4   -1    0    0    0  501 -0.00000000000E+00  0.00000000000E+00  0.41711383592E+03  0.41711383592E+03  0.00000000000E+00 0. -1.
          4   -1    0    0  501    0  0.00000000000E+00 -0.00000000000E+00 -0.95089146671E+02  0.95089146671E+02  0.00000000000E+00 0.  1.
          5    1    1    2  502    0  0.14044975239E+03  0.78193530291E+02  0.22329362037E+03  0.27516881077E+03  0.41800000000E+01 0. -1.
         -5    1    1    2    0  502  0.11162687274E+01 -0.33021735501E+02  0.40875226987E+02  0.52725114059E+02  0.41800000000E+01 0. -1.
        -11    1    1    2    0    0 -0.85891495632E+02  0.96580881259E+01 -0.10720215022E+01  0.86439440756E+02  0.00000000000E+00 0.  1.
         11    1    1    2    0    0 -0.55674525482E+02 -0.54829882917E+02  0.58927863399E+02  0.97869617007E+02  0.00000000000E+00 0. -1.
</event>
<event>
 6    1  0.4988969E-006  0.2377867E+03  0.7561462E-02  0.1121276E+00
          2   -1    0    0  501    0  0.00000000000E+00  0.00000000000E+00  0.99958307883E+03  0.99958307883E+03  0.00000000000E+00 0. -1.
         -2   -1    0    0    0  501 -0.00000000000E+00 -0.00000000000E+00 -0.63418498288E+02  0.63418498288E+02  0.00000000000E+00 0.  1.
          5    1    1    2  502    0 -0.26542918883E+01  0.85025768896E+02  0.94168869055E+02  0.12697115791E+03  0.41800000000E+01 0.  1.
         -5    1    1    2    0  502  0.12568691033E+03  0.10511600570E+03  0.36405338936E+03  0.39924793899E+03  0.41800000000E+01 0.  1.
        -11    1    1    2    0    0 -0.60905626589E+02 -0.97282579763E+02  0.34242079363E+03  0.36114456328E+03  0.00000000000E+00 0. -1.
         11    1    1    2    0    0 -0.62126991849E+02 -0.92859194835E+02  0.13552152850E+03  0.17563791694E+03  0.00000000000E+00 0.  1.
</event>
<event>
 6    1  0.4988969E-006  0.9971301E+02  0.7561462E-02  0.1280901E+00
         -1   -1    0    0    0  501 -0.00000000000E+00  0.00000000000E+00  0.10312579763E+04  0.10312579763E+04  0.00000000000E+00 0.  1.
          1   -1    0    0  501    0  0.00000000000E+00 -0.00000000000E+00 -0.14773219280E+02  0.14773219280E+02  0.00000000000E+00 0. -1.
          5    1    1    2  502    0 -0.47126703174E+02 -0.39997775886E+02  0.62992367438E+03  0.63296291849E+03  0.41800000000E+01 0.  1.
         -5    1    1    2    0  502  0.38321230067E+02  0.32044843812E+02  0.18774243798E+03  0.19431954124E+03  0.41800000000E+01 0.  1.
        -11    1    1    2    0    0  0.14656120493E+02 -0.38151632810E+02  0.62056363169E+02  0.74305727664E+02  0.00000000000E+00 0.  1.
         11    1    1    2    0    0 -0.58506473850E+01  0.46104564883E+02  0.13676228149E+03  0.14444300819E+03  0.00000000000E+00 0. -1.
</event>
<event>
 6    1  0.4988969E-006  0.9238723E+02  0.7561462E-02  0.1297172E+00
          1   -1    0    0  501    0  0.00000000000E+00  0.00000000000E+00  0.36135477900E+03  0.36135477900E+03  0.00000000000E+00 0. -1.
         -1   -1    0    0    0  501 -0.00000000000E+00 -0.00000000000E+00 -0.34266422362E+02  0.34266422362E+02  0.00000000000E+00 0.  1.
          5    1    1    2  502    0 -0.29932486847E+02  0.34321031862E+02  0.25315132852E+02  0.52270597359E+02  0.41800000000E+01 0. -1.
         -5    1    1    2    0  502  0.33593588397E+02 -0.61961040111E+02  0.14101754049E+03  0.15770579824E+03  0.41800000000E+01 0. -1.
        -11    1    1    2    0    0 -0.15726380969E+01 -0.20345603686E+02  0.12264433946E+03  0.12433040972E+03  0.00000000000E+00 0. -1.
         11    1    1    2    0    0 -0.20884634537E+01  0.47985611934E+02  0.38111343826E+02  0.61314396030E+02  0.00000000000E+00 0.  1.
</event>
<event>
 6    1  0.4988969E-006  0.1488735E+03  0.7561462E-02  0.1201864E+00
         -2   -1    0    0    0  501 -0.00000000000E+00  0.00000000000E+00  0.65518678026E+02  0.65518678026E+02  0.00000000000E+00 0.  1.
          2   -1    0    0  501    0  0.00000000000E+00 -0.00000000000E+00 -0.45699756780E+03  0.45699756780E+03  0.00000000000E+00 0. -1.
          5    1    1    2  502    0 -0.29753809178E+01 -0.58998785069E+02 -0.11596334926E+02  0.60346142503E+02  0.41800000000E+01 0. -1.
         -5    1    1    2    0  502 -0.10482584518E+03  0.26755516340E+00 -0.11601004895E+03  0.15641078371E+03  0.41800000000E+01 0. -1.
        -11    1    1    2    0    0  0.39144906410E+02  0.51342932058E+02 -0.51944468270E+02  0.82865240928E+02  0.00000000000E+00 0.  1.
         11    1    1    2    0    0  0.68656319691E+02  0.73882978478E+01 -0.21192803763E+03  0.22289407869E+03  0.00000000000E+00 0. -1.
</event>
<event>
 6    1  0.4988969E-006  0.9363119E+02  0.7561462E-02  0.1294289E+00
          2   -1    0    0  501    0  0.00000000000E+00  0.00000000000E+00  0.48090865961E+03  0.48090865961E+03  0.00000000000E+00 0. -1.
         -2   -1    0    0    0  501 -0.00000000000E+00 -0.00000000000E+00 -0.34096646848E+02  0.34096646848E+02  0.00000000000E+00 0.  1.
          5    1    1    2  502    0  0.70962109821E+02 -0.35362601517E+02  0.28600683642E+03  0.29682236691E+03  0.41800000000E+01 0.  1.
         -5    1    1    2    0  502 -0.54470536108E+01  0.30125134772E+02  0.12291209898E+02  0.33252674762E+02  0.41800000000E+01 0.  1.
        -11    1    1    2    0    0 -0.36974203156E+02 -0.17089992699E+02  0.10258296528E+02  0.42004668754E+02  0.00000000000E+00 0.  1.
         11    1    1    2    0    0 -0.28540853053E+02  0.22327459444E+02  0.13825566991E+03  0.14292559603E+03  0.00000000000E+00 0. -1.
</event>
<event>
 6    1  0.4988969E-006  0.8633370E+02  0.7561462E-02  0.1311981E+00
          1   -1    0    0  501    0  0.00000000000E+00  0.00000000000E+00  0.13651669809E+03  0.13651669809E+03  0.00000000000E+00 0. -1.
         -1   -1    0    0    0  501 -0.00000000000E+00 -0.00000000000E+00 -0.12948295858E+03  0.12948295858E+03  0.00000000000E+00 0.  1.
          5    1    1    2  502    0 -0.69259401810E+02 -0.12517024501E+02 -0.18162871376E+02  0.72807300033E+02  0.41800000000E+01 0. -1.
         -5    1    1    2    0  502  0.45209057874E+02  0.27763822389E+02 -0.47383947862E+02  0.71255874582E+02  0.41800000000E+01 0. -1.
        -11    1    1    2    0    0  0.65955674135E+01  0.13664019006E+02 -0.19007445716E+02  0.24320565733E+02  0.00000000000E+00 0.  1.
         11    1    1    2    0    0  0.17454776523E+02 -0.28910816894E+02  0.91588004462E+02  0.97615916316E+02  0.00000000000E+00 0. -1.
</event>
<event>
 6    1  0.4988969E-006  0.1955621E+03  0.7561462E-02  0.1153538E+00
          1   -1    0    0  501    0  0.00000000000E+00  0.00000000000E+00  0.24779202574E+02  0.24779202574E+02  0.00000000000E+00 0. -1.
         -1   -1    0    0    0  501 -0.00000000000E+00 -0.00000000000E+00 -0.17580285246E+04  0.17580285246E+04  0.00000000000E+00 0.  1.
          5    1    1    2  502    0  0.56353027250E+02  0.22112522497E+02 -0.22175181138E+03  0.22990425307E+03  0.41800000000E+01 0.  1.
         -5    1    1    2    0  502 -0.14412115875E+02  0.13939123647E+03 -0.94345145314E+03  0.95381116723E+03  0.41800000000E+01 0.  1.
        -11    1    1    2    0    0  0.24248060603E+02 -0.12668440723E+02 -0.74820487540E+02  0.79665319865E+02  0.00000000000E+00 0.  1.
         11    1    1    2    0    0 -0.66188971978E+02 -0.14883531825E+03 -0.49322557000E+03  0.51942698704E+03  0.00000000000E+00 0. -1.
</event>
<event>
 6    1  0.4988969E-006  0.1083204E+03  0.7561462E-02  0.1263712E+00
         -2   -1    0    0    0  501 -0.00000000000E+00  0.00000000000E+00  0.26228115267E+03  0.26228115267E+03  0.00000000000E+00 0.  1.
          2   -1    0    0  501    0  0.00000000000E+00 -0.00000000000E+00 -0.62095145795E+02  0.62095145795E+02  0.00000000000E+00 0. -1.
          5    1    1    2  502    0 -0.47892758775E+02  0.87839116991E+02  0.11900541296E+03  0.15552873539E+03  0.41800000000E+01 0. -1.
         -5    1    1    2    0  502  0.98171929110E+01 -0.36870432199E+02  0.26609386770E+02  0.46704795379E+02  0.41800000000E+01 0. -1.
        -11    1    1    2    0    0  0.17351123326E+02  0.53135077688E+01 -0.19630325110E+02  0.26732835791E+02  0.00000000000E+00 0. -1.
         11    1    1    2    0    0  0.20724442538E+02 -0.56282192561E+02  0.74201532257E+02  0.95409931911E+02  0.00000000000E+00 0.  1.
</event>
<event>
 6    1  0.4988969E-006  0.2221354E+03  0.7561462E-02  0.1132301E+00
          3   -1    0    0  501    0  0.00000000000E+00  0.00000000000E+00  0.63747228188E+02  0.63747228188E+02  0.00000000000E+00 0. -1.
         -3   -1    0    0    0  501 -0.00000000000E+00 -0.00000000000E+00 -0.85977807157E+03  0.85977807157E+03  0.00000000000E+00 0.  1.
          5    1    1    2  502    0  0.76025656714E+02  0.97379315849E+02 -0.34547294016E+03  0.36692186691E+03  0.41800000000E+01 0. -1.
         -5    1    1    2    0  502 -0.91713203936E+01  0.95890172889E+02 -0.99680495829E+02  0.13868205372E+03  0.41800000000E+01 0. -1.
        -11    1    1    2    0    0  0.19119907440E+00 -0.13618282070E+03 -0.18024385370E+03  0.22590627262E+03  0.00000000000E+00 0. -1.
         11    1    1    2    0    0 -0.67045535395E+02 -0.57086668037E+02 -0.17063355369E+03  0.19201510651E+03  0.00000000000E+00 0.  1.
</event>
<event>
 6    1  0.4988969E-006  0.9931247E+02  0.7561462E-02  0.1281748E+00
         -3   -1    0    0    0  501 -0.00000000000E+00  0.00000000000E+00  0.35320662820E+03  0.35320662820E+03  0.00000000000E+00 0.  1.
          3   -1    0    0  501    0  0.00000000000E+00 -0.00000000000E+00 -0.56526232784E+02  0.56526232784E+02  0.00000000000E+00 0. -1.
          5    1    1    2  502    0  0.72929552499E+02  0.41923132544E+02  0.10829693493E+03  0.13719317470E+03  0.41800000000E+01 0. -1.
         -5    1    1    2    0  502 -0.24751802427E+02 -0.23229015899E+02  0.15652432213E+03  0.16021727348E+03  0.41800000000E+01 0. -1.
        -11    1    1    2    0    0  0.52773391206E+01  0.15748454206E+02  0.44490473156E+02  0.47489644342E+02  0.00000000000E+00 0.  1.
         11    1    1    2    0    0 -0.53455089193E+02 -0.34442570851E+02 -0.12631334799E+02  0.64832768460E+02  0.00000000000E+00 0. -1.
</event>
<event>
 6    1  0.4988969E-006  0.1925968E+03  0.7561462E-02  0.1156140E+00
         -1   -1    0    0    0  501 -0.00000000000E+00  0.00000000000E+00  0.56156023863E+02  0.56156023863E+02  0.00000000000E+00 0.  1.
          1   -1    0    0  501    0  0.00000000000E+00 -0.00000000000E+00 -0.77312003476E+03  0.77312003476E+03  0.00000000000E+00 0. -1.
          5    1    1    2  502    0  0.10062945981E+03 -0.14240132405E+02 -0.10745892524E+03  0.14796608586E+03  0.41800000000E+01 0. -1.
         -5    1    1    2    0  502  0.27269923479E+02  0.87247978839E+02 -0.95571111964E+02  0.13231465671E+03  0.41800000000E+01 0. -1.
        -11    1    1    2    0    0 -0.61538022192E+02 -0.10233838440E+03 -0.29088371918E+03  0.31444142727E+03  0.00000000000E+00 0. -1.
         11    1    1    2    0    0 -0.66361361099E+02  0.29330537966E+02 -0.22305025451E+03  0.23455388878E+03  0.00000000000E+00 0.  1.
</event>
<event>
 6    1  0.4988969E-006  0.1401999E+03  0.7561462E-02  0.1213060E+00
         -1   -1    0    0    0  501 -0.00000000000E+00  0.00000000000E+00  0.69849952363E+03  0.69849952363E+03  0.00000000000E+00 0.  1.
          1   -1    0    0  501    0  0.00000000000E+00 -0.00000000000E+00 -0.51214671600E+02  0.51214671600E+02  0.00000000000E+00 0. -1.
          5    1    1    2  502    0 -0.15314492700E+02 -0.97369026063E+01  0.26885895358E+03  0.26950315449E+03  0.41800000000E+01 0. -1.
         -5    1    1    2    0  502 -0.66127122319E+02  0.10578688484E+03  0.26138071089E+03  0.28965671015E+03  0.41800000000E+01 0. -1.
        -11    1    1    2    0    0  0.31735044024E+02 -0.35371179511E+01  0.66997795370E+02  0.74218116434E+02  0.00000000000E+00 0.  1.
         11    1    1    2    0    0  0.49706570995E+02 -0.92512864283E+02  0.50047392183E+02  0.11633621415E+03  0.00000000000E+00 0. -1.
</event>
<event>
 6    1  0.4988969E-006  0.2204661E+03  0.7561462E-02  0.1133536E+00
          2   -1    0    0  501    0  0.00000000000E+00  0.00000000000E+00  0.90814396906E+03  0.90814396906E+03  0.00000000000E+00 0. -1.
         -2   -1    0    0    0  501 -0.00000000000E+00 -0.00000000000E+00 -0.59221765829E+02  0.59221765829E+02  0.00000000000E+00 0.  1.
          5    1    1    2  502    0 -0.34789958749E+02 -0.11698840584E+03  0.18543435613E+03  0.22203603574E+03  0.41800000000E+01 0. -1.
         -5    1    1    2    0  502 -0.11345628590E+03 -0.20786432637E+02  0.20007264047E+03  0.23097822074E+03  0.41800000000E+01 0. -1.
        -11    1    1    2    0    0  0.65981650957E+02  0.75107457339E+02  0.12261393123E+03  0.15820519758E+03  0.00000000000E+00 0.  1.
         11    1    1    2    0    0  0.82264593688E+02  0.62667381141E+02  0.34080127541E+03  0.35614628084E+03  0.00000000000E+00 0. -1.
</event>
<event>
 6    1  0.4988969E-006  0.7903157E+02  0.7561462E-02  0.1331822E+00
          2   -1    0    0  501    0  0.00000000000E+00  0.00000000000E+00  0.36420386008E+02  0.36420386008E+02  0.00000000000E+00 0.  1.
         -2   -1    0    0    0  501 -0.00000000000E+00 -0.00000000000E+00 -0.39515274872E+03  0.39515274872E+03  0.00000000000E+00 0. -1.
          5    1    1    2  502    0 -0.28623160091E+02  0.25224380067E+01  0.11547310146E+00  0.29036764991E+02  0.41800000000E+01 0. -1.
         -5    1    1    2    0  502  0.53508865968E+01 -0.44014251757E+02 -0.25486874567E+03  0.25873043166E+03  0.41800000000E+01 0. -1.
        -11    1    1    2    0    0 -0.90034694875E+00  0.56192621810E+02 -0.10070498447E+03  0.11532525858E+03  0.00000000000E+00 0. -1.
         11    1    1    2    0    0  0.24172620443E+02 -0.14700808059E+02 -0.32741056746E+01  0.28480679497E+02  0.00000000000E+00 0.  1.
</event>
<event>
 6    1  0.4988969E-006  0.1074483E+03  0.7561462E-02  0.1265369E+00
         -1   -1    0    0    0  501 -0.00000000000E+00  0.00000000000E+00  0.61629958542E+02  0.61629958542E+02  0.00000000000E+00 0.  1.
          1   -1    0    0  501    0  0.00000000000E+00 -0.00000000000E+00 -0.19522075298E+03  0.19522075298E+03  0.00000000000E+00 0. -1.
          5    1    1    2  502    0  0.46810975111E+02  0.28754214558E+02 -0.49254855973E+02  0.73902540434E+02  0.41800000000E+01 0. -1.
         -5    1    1    2    0  502 -0.47433263305E+02 -0.47709937742E+02 -0.19906806266E+02  0.70284464591E+02  0.41800000000E+01 0. -1.
        -11    1    1    2    0    0 -0.33198499089E+01 -0.36574301774E+02 -0.26981987473E+02  0.45571137814E+02  0.00000000000E+00 0.  1.
         11    1    1    2    0    0  0.39421381023E+01  0.55530024958E+02 -0.37447144731E+02  0.67092568688E+02  0.00000000000E+00 0. -1.
</event>
<event>
 6    1  0.4988969E-006  0.1505390E+03  0.7561462E-02  0.1199812E+00
          4   -1    0    0  501    0  0.00000000000E+00  0.00000000000E+00  0.12410312105E+03  0.12410312105E+03  0.00000000000E+00 0.  1.
         -4   -1    0    0    0  501 -0.00000000000E+00 -0.00000000000E+00 -0.22358261592E+03  0.22358261592E+03  0.00000000000E+00 0. -1.
          5    1    1    2  502    0  0.27561661013E+02  0.61634656359E+02 -0.10234531969E+02  0.68415598126E+02  0.41800000000E+01 0.  1.
         -5    1    1    2    0  502 -0.98526523788E+02  0.42378297962E+02 -0.55685266940E+02  0.12092029351E+03  0.41800000000E+01 0.  1.
        -11    1    1    2    0    0  0.20161151771E+02 -0.35153769402E+02  0.31110396021E+02  0.51089297162E+02  0.00000000000E+00 0.  1.
         11    1    1    2    0    0  0.50803711005E+02 -0.68859184919E+02 -0.64670091981E+02  0.10726054818E+03  0.00000000000E+00 0. -1.
</event>
<event>
 6    1  0.4988969E-006  0.1017800E+03  0.7561462E-02  0.1276597E+00
         -3   -1    0    0    0  501 -0.00000000000E+00  0.00000000000E+00  0.46582452112E+03  0.46582452112E+03  0.00000000000E+00 0.  1.
          3   -1    0    0  501    0  0.00000000000E+00 -0.00000000000E+00 -0.27547669514E+02  0.27547669514E+02  0.00000000000E+00 0. -1.
          5    1    1    2  502    0 -0.64605601096E+02 -0.11121249998E+01  0.86144118049E+02  0.10776549536E+03  0.41800000000E+01 0. -1.
         -5    1    1    2    0  502  0.42852053342E+02 -0.98887040113E+01  0.21069190354E+03  0.21527339724E+03  0.41800000000E+01 0. -1.
        -11    1    1    2    0    0  0.42121664656E+02 -0.28038381728E+02  0.69116970341E+02  0.85659448238E+02  0.00000000000E+00 0. -1.
         11    1    1    2    0    0 -0.20368116902E+02  0.39039210739E+02  0.72323859681E+02  0.84673849802E+02  0.00000000000E+00 0.  1.
</event>
<event>
 6    1  0.4988969E-006  0.1513414E+03  0.7561462E-02  0.1198834E+00
          1   -1    0    0  501    0  0.00000000000E+00  0.00000000000E+00  0.48262359486E+03  0.48262359486E+03  0.00000000000E+00 0. -1.
         -1   -1    0    0    0  501 -0.00000000000E+00 -0.00000000000E+00 -0.65444042910E+02  0.65444042910E+02  0.00000000000E+00 0.  1.
          5    1    1    2  502    0 -0.62731365103E+02 -0.48117929866E+01  0.11216671285E+03  0.12867486698E+03  0.41800000000E+01 0.  1.
         -5    1    1    2    0  502 -0.25252511193E+02 -0.87729368735E+02  0.19786571317E+02  0.93504610927E+02  0.41800000000E+01 0.  1.
        -11    1    1    2    0    0  0.73189065367E+02  0.22375651704E+02  0.91333201497E+02  0.11915982030E+03  0.00000000000E+00 0.  1.
         11    1    1    2    0    0  0.14794810929E+02  0.70165510017E+02  0.19389306628E+03  0.20672833956E+03  0.00000000000E+00 0. -1.
</event>
<event>
 6    1  0.4988969E-006  0.8735523E+02  0.7561462E-02  0.1309386E+00
         -1   -1    0    0    0  501 -0.00000000000E+00  0.00000000000E+00  0.29899608265E+03  0.29899608265E+03  0.00000000000E+00 0.  1.
          1   -1    0    0  501    0  0.00000000000E+00 -0.00000000000E+00 -0.48573271665E+02  0.48573271665E+02  0.00000000000E+00 0. -1.
          5    1    1    2  502    0  0.51163533078E+02  0.12772318597E+02  0.43561664509E+02  0.68526857904E+02  0.41800000000E+01 0. -1.
         -5    1    1    2    0  502 -0.69585147410E+02  0.29344329514E+02  0.12856959590E+03  0.14916700642E+03  0.41800000000E+01 0. -1.
        -11    1    1    2    0    0  0.10895804669E+02 -0.29948522014E+02  0.99395096107E+02  0.10437920128E+03  0.00000000000E+00 0.  1.
         11    1    1    2    0    0  0.75258096623E+01 -0.12168126097E+02 -0.21103545532E+02  0.25496288706E+02  0.00000000000E+00 0. -1.
</event>
<event>
 6    1  0.4988969E-006  0.1502283E+03  0.7561462E-02  0.1200193E+00
         -2   -1    0    0    0  501 -0.00000000000E+00  0.00000000000E+00  0.21041498415E+03  0.21041498415E+03  0.00000000000E+00 0.  1.
          2   -1    0    0  501    0  0.00000000000E+00 -0.00000000000E+00 -0.32585386484E+03  0.32585386484E+03  0.00000000000E+00 0. -1.
          5    1    1    2  502    0 -0.99074902233E+02 -0.24731839405E+02 -0.19970185412E+03  0.22433413265E+03  0.41800000000E+01 0. -1.
         -5    1    1    2    0  502  0.56494679745E+02  0.70957047288E+02  0.15736114638E+03  0.18167706017E+03  0.41800000000E+01 0.  1.
        -11    1    1    2    0    0  0.64588873599E+02 -0.10410113127E+02 -0.39302894563E+02  0.76320446600E+02  0.00000000000E+00 0.  1.
         11    1    1    2    0    0 -0.22008651111E+02 -0.35815094755E+02 -0.33795278381E+02  0.53937209576E+02  0.00000000000E+00 0. -1.
</event>
<event>
 6    1  0.4988969E-006  0.1113346E+03  0.7561462E-02  0.1258118E+00
         -2   -1    0    0    0  501 -0.00000000000E+00  0.00000000000E+00  0.15503454163E+03  0.15503454163E+03  0.00000000000E+00 0.  1.
          2   -1    0    0  501    0  0.00000000000E+00 -0.00000000000E+00 -0.10918375886E+03  0.10918375886E+03  0.00000000000E+00 0. -1.
          5    1    1    2  502    0  0.56325361894E+02  0.68726429712E+02  0.61772853531E+02  0.10830155293E+03  0.41800000000E+01 0.  1.
         -5    1    1    2    0  502 -0.35852797498E+02  0.56291200816E+01 -0.23647555152E+02  0.43517690036E+02  0.41800000000E+01 0.  1.
        -11    1    1    2    0    0 -0.40519364381E+02 -0.37419164421E+02 -0.23591352218E+02  0.59988037602E+02  0.00000000000E+00 0. -1.
         11    1    1    2    0    0  0.20046799985E+02 -0.36936385372E+02  0.31316836606E+02  0.52411019920E+02  0.00000000000E+00 0.  1.
</event>
<event>
 6    1  0.4988969E-006  0.1075103E+03  0.7561462E-02  0.1265251E+00
          2   -1    0    0  501    0  0.00000000000E+00  0.00000000000E+00  0.67114499627E+03  0.67114499627E+03  0.00000000000E+00 0. -1.
         -2   -1    0    0    0  501 -0.00000000000E+00 -0.00000000000E+00 -0.20729437811E+02  0.20729437811E+02  0.00000000000E+00 0.  1.
          5    1    1    2  502    0  0.24988421092E+02 -0.68017753811E+02  0.22676889350E+03  0.23810174187E+03  0.41800000000E+01 0. -1.
         -5    1    1    2    0  502 -0.34874018728E+01  0.44981172020E+02  0.51389671509E+02  0.68511594245E+02  0.41800000000E+01 0. -1.
        -11    1    1    2    0    0 -0.51951284948E+02  0.36847690581E+02  0.20390947659E+03  0.21362528631E+03  0.00000000000E+00 0.  1.
         11    1    1    2    0    0  0.30450265728E+02 -0.13811108790E+02  0.16834751687E+03  0.17163581166E+03  0.00000000000E+00 0. -1.
</event>
<event>
 6    1  0.4988969E-006  0.1033587E+03  0.7561462E-02  0.1273388E+00
          2   -1    0    0  501    0  0.00000000000E+00  0.00000000000E+00  0.10287862834E+03  0.10287862834E+03  0.00000000000E+00 0. -1.
         -2   -1    0    0    0  501 -0.00000000000E+00 -0.00000000000E+00 -0.11694906896E+03  0.11694906896E+03  0.00000000000E+00 0.  1.
          5    1    1    2  502    0 -0.40839349357E+02  0.43558774048E+02 -0.11627207966E+01  0.59866882098E+02  0.41800000000E+01 0.  1.
         -5    1    1    2    0  502  0.54068670291E+02 -0.37703710579E+02 -0.24122649189E+01  0.66092982385E+02  0.41800000000E+01 0.  1.
        -11    1    1    2    0    0  0.16633985976E+02 -0.35207657345E+02 -0.28533358496E+02  0.48274436012E+02  0.00000000000E+00 0.  1.
         11    1    1    2    0    0 -0.29863306909E+02  0.29352593876E+02  0.18037903586E+02  0.45593396809E+02  0.00000000000E+00 0. -1.
</event>
<event>
 6    1  0.4988969E-006  0.1074155E+03  0.7561462E-02  0.1265432E+00
          1   -1    0    0  501    0  0.00000000000E+00  0.00000000000E+00  0.46795675039E+02  0.46795675039E+02  0.00000000000E+00 0. -1.
         -1   -1    0    0    0  501 -0.00000000000E+00 -0.00000000000E+00 -0.42751825434E+03  0.42751825434E+03  0.00000000000E+00 0.  1.
          5    1    1    2  502    0 -0.89337223757E+02  0.92601294112E+01 -0.26303201299E+03  0.27797518199E+03  0.41800000000E+01 0.  1.
         -5    1    1    2    0  502  0.57041737341E+01 -0.19974606918E+02  0.42054461614E+01  0.21602793730E+02  0.41800000000E+01 0.  1.
        -11    1    1    2    0    0  0.83277025981E+02  0.26919197896E+02 -0.49501270675E+02  0.10054890387E+03  0.00000000000E+00 0. -1.
         11    1    1    2    0    0  0.35602404148E+00 -0.16204720389E+02 -0.72394741796E+02  0.74187049784E+02  0.00000000000E+00 0.  1.
</event>
<event>
 6    1  0.4988969E-006  0.1153269E+03  0.7561462E-02  0.1251012E+00
         -2   -1    0    0    0  501 -0.00000000000E+00  0.00000000000E+00  0.71386933693E+02  0.71386933693E+02  0.00000000000E+00 0.  1.
          2   -1    0    0  501    0  0.00000000000E+00 -0.00000000000E+00 -0.22371729827E+03  0.22371729827E+03  0.00000000000E+00 0. -1.
          5    1    1    2  502    0 -0.60075027334E+02 -0.42380583774E+02 -0.47523081848E+02  0.87641534095E+02  0.41800000000E+01 0. -1.
         -5    1    1    2    0  502  0.54256124292E+02 -0.12327988602E+02  0.35657417135E+01  0.55909688249E+02  0.41800000000E+01 0. -1.
        -11    1    1    2    0    0  0.10082158827E+02  0.77439163716E+02 -0.61923017426E+02  0.99664106331E+02  0.00000000000E+00 0.  1.
         11    1    1    2    0    0 -0.42632557848E+01 -0.22730591341E+02 -0.46450007013E+02  0.51888903285E+02  0.00000000000E+00 0. -1.
</event>
<event>
 6    1  0.4988969E-006  0.1092462E+03  0.7561462E-02  0.1261972E+00
          3   -1    0    0  501    0  0.00000000000E+00  0.00000000000E+00  0.33401940443E+02  0.33401940443E+02  0.00000000000E+00 0. -1.
         -3   -1    0    0    0  501 -0.00000000000E+00 -0.00000000000E+00 -0.83178901513E+03  0.83178901513E+03  0.00000000000E+00 0.  1.
          5    1    1    2  502    0  0.40634672101E+02 -0.37667774357E+02 -0.56328842985E+03  0.56602240715E+03  0.41800000000E+01 0. -1.
         -5    1    1    2    0  502  0.17648098168E+02 -0.45367878193E+02 -0.58170538905E+02  0.75966991103E+02  0.41800000000E+01 0. -1.
        -11    1    1    2    0    0 -0.40119629312E+02  0.86706086002E+02 -0.18059791046E+03  0.20431136843E+03  0.00000000000E+00 0.  1.
         11    1    1    2    0    0 -0.18163140956E+02 -0.36704334522E+01  0.36698045224E+01  0.18890188891E+02  0.00000000000E+00 0. -1.
</event>
<event>
 6    1  0.4988969E-006  0.1298162E+03  0.7561462E-02  0.1227729E+00
         -2   -1    0    0    0  501 -0.00000000000E+00  0.00000000000E+00  0.44027264049E+03  0.44027264049E+03  0.00000000000E+00 0.  1.
          2   -1    0    0  501    0  0.00000000000E+00 -0.00000000000E+00 -0.47245655451E+02  0.47245655451E+02  0.00000000000E+00 0. -1.
          5    1    1    2  502    0  0.78828697712E+02  0.45350117100E+02  0.15689989969E+03  0.18139913899E+03  0.41800000000E+01 0. -1.
         -5    1    1    2    0  502 -0.46440276956E+02  0.24664392861E+02  0.14681959794E+03  0.15600800728E+03  0.41800000000E+01 0. -1.
        -11    1    1    2    0    0 -0.44467943090E+02  0.33077311716E+00  0.55546876046E+02  0.71154499591E+02  0.00000000000E+00 0.  1.
         11    1    1    2    0    0  0.12079522334E+02 -0.70345283078E+02  0.33760611368E+02  0.78956650075E+02  0.00000000000E+00 0. -1.
</event>
<event>
 6    1  0.4988969E-006  0.1184268E+03  0.7561462E-02  0.1245715E+00
          1   -1    0    0  501    0  0.00000000000E+00  0.00000000000E+00  0.69540650769E+02  0.69540650769E+02  0.00000000000E+00 0. -1.
         -1   -1    0    0    0  501 -0.00000000000E+00 -0.00000000000E+00 -0.29680305811E+03  0.29680305811E+03  0.00000000000E+00 0.  1.
          5    1    1    2  502    0  0.15232358966E+01 -0.76355019690E+02 -0.10727142367E+03  0.13174611955E+03  0.41800000000E+01 0. -1.
         -5    1    1    2    0  502 -0.46291539320E+02  0.39116371501E+02 -0.10914346721E+03  0.12491103221E+03  0.41800000000E+01 0. -1.
        -11    1    1    2    0    0  0.51049466243E+02  0.58387836752E+02 -0.27238706825E+02  0.82201792157E+02  0.00000000000E+00 0.  1.
         11    1    1    2    0    0 -0.62811628192E+01 -0.21149188563E+02  0.16391190373E+02  0.27484764963E+02  0.00000000000E+00 0. -1.
</event>
<event>
 6    1  0.4988969E-006  0.1015844E+03  0.7561462E-02  0.1276999E+00
          3   -1    0    0  501    0  0.00000000000E+00  0.00000000000E+00  0.26351908688E+03  0.26351908688E+03  0.00000000000E+00 0. -1.
         -3   -1    0    0    0  501 -0.00000000000E+00 -0.00000000000E+00 -0.53304192855E+02  0.53304192855E+02  0.00000000000E+00 0.  1.
          5    1    1    2  502    0  0.20695549683E+02  0.71537659305E+02  0.72653044671E+02  0.10412434766E+03  0.41800000000E+01 0. -1.
         -5    1    1    2    0  502 -0.10395130039E+02 -0.40693238603E+02 -0.36911739590E+01  0.42368568086E+02  0.41800000000E+01 0. -1.
        -11    1    1    2    0    0 -0.21447138891E+02 -0.55399605048E+02  0.58824191183E+02  0.83602520742E+02  0.00000000000E+00 0.  1.
         11    1    1    2    0    0  0.11146719247E+02  0.24555184346E+02  0.82428832133E+02  0.86727843251E+02  0.00000000000E+00 0. -1.
</event>
<event>
 6    1  0.4988969E-006  0.1236314E+03  0.7561462E-02  0.1237224E+00
          2   -1    0    0  501    0  0.00000000000E+00  0.00000000000E+00  0.27675492639E+03  0.27675492639E+03  0.00000000000E+00 0. -1.
         -2   -1    0    0    0  501 -0.00000000000E+00 -0.00000000000E+00 -0.89848337110E+02  0.89848337110E+02  0.00000000000E+00 0.  1.
          5    1    1    2  502    0  0.84257488630E+02 -0.61970743806E+02  0.72888768359E+01  0.10492996523E+03  0.41800000000E+01 0. -1.
         -5    1    1    2    0  502 -0.36289306397E+02 -0.25029048326E+01 -0.91834211389E+01  0.37748985618E+02  0.41800000000E+01 0.  1.
        -11    1    1    2    0    0 -0.15954234264E+02  0.71447045170E+02  0.17236773122E+03  0.18726946526E+03  0.00000000000E+00 0. -1.
         11    1    1    2    0    0 -0.32013947970E+02 -0.69733965312E+01  0.16433402365E+02  0.36654847388E+02  0.00000000000E+00 0.  1.
</event>
<event>
 6    1  0.4988969E-006  0.1976330E+03  0.7561462E-02  0.1151752E+00
         -2   -1    0    0    0  501 -0.00000000000E+00  0.00000000000E+00  0.68881413925E+02  0.68881413925E+02  0.00000000000E+00 0.  1.
          2   -1    0    0  501    0  0.00000000000E+00 -0.00000000000E+00 -0.68552600060E+03  0.68552600060E+03  0.00000000000E+00 0. -1.
          5    1    1    2  502    0  0.11015221834E+03  0.99982612469E+02 -0.12032224572E+03  0.19137645941E+03  0.41800000000E+01 0. -1.
         -5    1    1    2    0  502 -0.72790091366E+01  0.53457353383E+02 -0.14799781945E+03  0.15758013697E+03  0.41800000000E+01 0. -1.
        -11    1    1    2    0    0 -0.67045048661E+02 -0.52289109709E+02 -0.23249023079E+03  0.24754978682E+03  0.00000000000E+00 0. -1.
         11    1    1    2    0    0 -0.35828160546E+02 -0.10115085614E+03 -0.11583429071E+03  0.15790103132E+03  0.00000000000E+00 0.  1.
</event>
<event>
 6    1  0.4988969E-006  0.1516227E+03  0.7561462E-02  0.1198493E+00
         -1   -1    0    0    0  501 -0.00000000000E+00  0.00000000000E+00  0.28511964961E+03  0.28511964961E+03  0.00000000000E+00 0.  1.
          1   -1    0    0  501    0  0.00000000000E+00 -0.00000000000E+00 -0.85748067062E+02  0.85748067062E+02  0.00000000000E+00 0. -1.
          5    1    1    2  502    0  0.42051705905E+02 -0.35260565933E+02  0.62480822407E+02  0.83264512537E+02  0.41800000000E+01 0. -1.
         -5    1    1    2    0  502 -0.87795482074E+02 -0.64632679149E+02  0.71540988794E+02  0.13046461346E+03  0.41800000000E+01 0. -1.
        -11    1    1    2    0    0  0.61293043026E+02  0.31393230953E+02  0.14375962962E+02  0.70349416373E+02  0.00000000000E+00 0. -1.
         11    1    1    2    0    0 -0.15549266856E+02  0.68500014129E+02  0.50973808385E+02  0.86789174306E+02  0.00000000000E+00 0.  1.
</event>
<event>
 6    1  0.4988969E-006  0.1084677E+03  0.7561462E-02  0.1263434E+00
         -2   -1    0    0    0  501 -0.00000000000E+00  0.00000000000E+00  0.65317428467E+02  0.65317428467E+02  0.00000000000E+00 0.  1.
          2   -1    0    0  501    0  0.00000000000E+00 -0.00000000000E+00 -0.24311006788E+03  0.24311006788E+03  0.00000000000E+00 0. -1.
          5    1    1    2  502    0 -0.64785496296E+01 -0.38839382513E+02  0.11394601150E+02  0.41204108711E+02  0.41800000000E+01 0.  1.
         -5    1    1    2    0  502  0.46299401963E+01  0.83275294314E+02 -0.48854323564E+02  0.96749306562E+02  0.41800000000E+01 0.  1.
        -11    1    1    2    0    0 -0.40169309344E+02 -0.26629350578E+02 -0.51056415798E+02  0.70210065657E+02  0.00000000000E+00 0.  1.
         11    1    1    2    0    0  0.42017918777E+02 -0.17806561223E+02 -0.89276501196E+02  0.10026401541E+03  0.00000000000E+00 0. -1.
</event>
<event>
 6    1  0.4988969E-006  0.9678687E+02  0.7561462E-02  0.1287202E+00
         -1   -1    0    0    0  501 -0.00000000000E+00  0.00000000000E+00  0.76289914353E+02  0.76289914353E+02  0.00000000000E+00 0.  1.
          1   -1    0    0  501    0  0.00000000000E+00 -0.00000000000E+00 -0.21992358303E+03  0.21992358303E+03  0.00000000000E+00 0. -1.
          5    1    1    2  502    0 -0.23295266995E+02 -0.87636256942E+02 -0.46107662942E+01  0.90892874093E+02  0.41800000000E+01 0.  1.
         -5    1    1    2    0  502  0.26875339238E+02  0.32890312273E+02 -0.22919036570E+02  0.48443896808E+02  0.41800000000E+01 0.  1.
        -11    1    1    2    0    0 -0.14080368496E+02  0.35578324626E+02  0.47575744584E+00  0.38266177041E+02  0.00000000000E+00 0.  1.
         11    1    1    2    0    0  0.10500296253E+02  0.19167620042E+02 -0.11657962326E+03  0.11861054944E+03  0.00000000000E+00 0. -1.
</event>
<event>
 6    1  0.4988969E-006  0.8213203E+02  0.7561462E-02  0.1323108E+00
          1   -1    0    0  501    0  0.00000000000E+00  0.00000000000E+00  0.33968330014E+03  0.33968330014E+03  0.00000000000E+00 0. -1.
         -1   -1    0    0    0  501 -0.00000000000E+00 -0.00000000000E+00 -0.50637608669E+02  0.50637608669E+02  0.00000000000E+00 0.  1.
          5    1    1    2  502    0 -0.73420035178E+01 -0.66485182045E+02  0.12733827422E+03  0.14389820335E+03  0.41800000000E+01 0. -1.
         -5    1    1    2    0  502 -0.71190072521E+01  0.56855120934E+01 -0.26612314099E+02  0.28437527560E+02  0.41800000000E+01 0. -1.
        -11    1    1    2    0    0  0.38497986893E+02  0.37147089564E+02  0.42522074856E+02  0.68338335566E+02  0.00000000000E+00 0.  1.
         11    1    1    2    0    0 -0.24036976123E+02  0.23652580387E+02  0.14579765650E+03  0.14964684233E+03  0.00000000000E+00 0. -1.
</event>
<event>
 6    1  0.6642239E-006  0.1566534E+03  0.7561462E-02  0.1192528E+00
         -1   -1    0    0    0  501 -0.00000000000E+00  0.00000000000E+00  0.76922488510E+02  0.76922488510E+02  0.00000000000E+00 0.  1.
          1   -1    0    0  501    0  0.00000000000E+00 -0.00000000000E+00 -0.41078456870E+03  0.41078456870E+03  0.00000000000E+00 0. -1.
          5    1    1    2  502    0 -0.52842838230E+00 -0.52882297303E+02 -0.11483619419E+03  0.12649759089E+03  0.41800000000E+01 0. -1.
         -5    1    1    2    0  502 -0.96207773095E+02 -0.49506518376E+02 -0.33700605753E+02  0.11340209078E+03  0.41800000000E+01 0. -1.
        -11    1    1    2    0    0  0.38329818139E+02  0.81297601180E+02 -0.15386851684E+03  0.17819650780E+03  0.00000000000E+00 0. -1.
         11    1    1    2    0    0  0.58406383338E+02  0.21091214499E+02 -0.31456763403E+02  0.69610867740E+02  0.00000000000E+00 0.  1.
</event>
<event>
 6    1  0.4988969E-006  0.1617121E+03  0.7561462E-02  0.1186777E+00
          2   -1    0    0  501    0  0.00000000000E+00  0.00000000000E+00  0.79618301539E+03  0.79618301539E+03  0.00000000000E+00 0. -1.
         -2   -1    0    0    0  501 -0.00000000000E+00 -0.00000000000E+00 -0.37016708261E+02  0.37016708261E+02  0.00000000000E+00 0.  1.
          5    1    1    2  502    0  0.19184617385E+02  0.44551699412E+02  0.46806959909E+02  0.67537155408E+02  0.41800000000E+01 0. -1.
         -5    1    1    2    0  502  0.11293096875E+03 -0.28087345299E+02  0.36105152846E+03  0.37936523466E+03  0.41800000000E+01 0. -1.
        -11    1    1    2    0    0 -0.24230599015E+02 -0.41024500198E+02  0.13811862308E+03  0.14610573427E+03  0.00000000000E+00 0. -1.
         11    1    1    2    0    0 -0.10788498712E+03  0.24560146085E+02  0.21318919568E+03  0.24019159931E+03  0.00000000000E+00 0.  1.
</event>
<event>
 6    1  0.4988969E-006  0.1165648E+03  0.7561462E-02  0.1248874E+00
         -1   -1    0    0    0  501 -0.00000000000E+00  0.00000000000E+00  0.73962713785E+02  0.73962713785E+02  0.00000000000E+00 0.  1.
          1   -1    0    0  501    0  0.00000000000E+00 -0.00000000000E+00 -0.22134569673E+03  0.22134569673E+03  0.00000000000E+00 0. -1.
          5    1    1    2  502    0 -0.31578209542E+02  0.32282181878E+02 -0.68882732408E+02  0.82471969836E+02  0.41800000000E+01 0.  1.
         -5    1    1    2    0  502  0.76630446186E+02  0.18537292800E+02 -0.81415545040E+01  0.79370106569E+02  0.41800000000E+01 0.  1.
        -11    1    1    2    0    0  0.22294134900E+02 -0.31816957143E+02 -0.43983677382E+02  0.58684845479E+02  0.00000000000E+00 0. -1.
         11    1    1    2    0    0 -0.67346371544E+02 -0.19002517534E+02 -0.26375018646E+02  0.74781488628E+02  0.00000000000E+00 0.  1.
</event>
<event>
 6    1  0.4988969E-006  0.9378032E+02  0.7561462E-02  0.1293947E+00
          2   -1    0    0  501    0  0.00000000000E+00  0.00000000000E+00  0.21779558356E+03  0.21779558356E+03  0.00000000000E+00 0. -1.
         -2   -1    0    0    0  501 -0.00000000000E+00 -0.00000000000E+00 -0.69684204231E+02  0.69684204231E+02  0.00000000000E+00 0.  1.
          5    1    1    2  502    0  0.63334780332E+02 -0.37996654305E+01  0.14023055841E+02  0.65114133276E+02  0.41800000000E+01 0. -1.
         -5    1    1    2    0  502 -0.35499497505E+02  0.52081173543E+02  0.75750002596E+02  0.98631629075E+02  0.41800000000E+01 0. -1.
        -11    1    1    2    0    0 -0.59627420269E+01 -0.34373917148E+02  0.81701857615E+02  0.88838696581E+02  0.00000000000E+00 0. -1.
         11    1    1    2    0    0 -0.21872540800E+02 -0.13907590965E+02 -0.23363536727E+02  0.34895328855E+02  0.00000000000E+00 0.  1.
</event>
<event>
 6    1  0.4988969E-006  0.1451115E+03  0.7561462E-02  0.1206612E+00
          1   -1    0    0  501    0  0.00000000000E+00  0.00000000000E+00  0.66848287629E+02  0.66848287629E+02  0.00000000000E+00 0. -1.
         -1   -1    0    0    0  501 -0.00000000000E+00 -0.00000000000E+00 -0.35680646354E+03  0.35680646354E+03  0.00000000000E+00 0.  1.
          5    1    1    2  502    0  0.66519146657E+02 -0.11835478268E+03 -0.11029488674E+03  0.17497167170E+03  0.41800000000E+01 0. -1.
         -5    1    1    2    0  502 -0.45404998486E+01  0.28700122237E+02 -0.34007759569E+02  0.44925641522E+02  0.41800000000E+01 0. -1.
        -11    1    1    2    0    0  0.71312865031E+01  0.38236996802E+02 -0.55503020121E+01  0.39290317180E+02  0.00000000000E+00 0. -1.
         11    1    1    2    0    0 -0.69109933312E+02  0.51417663641E+02 -0.14010522758E+03  0.16446712076E+03  0.00000000000E+00 0.  1.
</event>
<event>
 6    1  0.4988969E-006  0.1045441E+03  0.7561462E-02  0.1271021E+00
         -4   -1    0    0    0  501 -0.00000000000E+00  0.00000000000E+00  0.97460738591E+02  0.97460738591E+02  0.00000000000E+00 0. -1.
          4   -1    0    0  501    0  0.00000000000E+00 -0.00000000000E+00 -0.15649029002E+03  0.15649029002E+03  0.00000000000E+00 0.  1.
          5    1    1    2  502    0  0.15485701069E+00 -0.26433250377E+02 -0.44317813725E+02  0.51771437294E+02  0.41800000000E+01 0.  1.
         -5    1    1    2    0  502 -0.21452006431E+02  0.79961324521E+02  0.26656890270E+02  0.87075049228E+02  0.41800000000E+01 0.  1.
        -11    1    1    2    0    0 -0.28753103894E+02 -0.40209544905E+01  0.67814452968E+01  0.29814376714E+02  0.00000000000E+00 0. -1.
         11    1    1    2    0    0  0.50050253314E+02 -0.49507119654E+02 -0.48150073267E+02  0.85290165370E+02  0.00000000000E+00 0.  1.
</event>
<event>
 6    1  0.4988969E-006  0.1168517E+03  0.7561462E-02  0.1248383E+00
          1   -1    0    0  501    0  0.00000000000E+00  0.00000000000E+00  0.85463969993E+02  0.85463969993E+02  0.00000000000E+00 0. -1.
         -1   -1    0    0    0  501 -0.00000000000E+00 -0.00000000000E+00 -0.23173910907E+03  0.23173910907E+03  0.00000000000E+00 0.  1.
          5    1    1    2  502    0  0.28871327620E+02 -0.11762351154E+02 -0.97956395190E+02  0.10288262352E+03  0.41800000000E+01 0. -1.
         -5    1    1    2    0  502 -0.32041445535E+02  0.81354562015E+02 -0.46676382159E+02  0.99203709830E+02  0.41800000000E+01 0.  1.
        -11    1    1    2    0    0 -0.83933092984E+01  0.21400605933E+02  0.34780925325E+01  0.23249316183E+02  0.00000000000E+00 0.  1.
         11    1    1    2    0    0  0.11563427214E+02 -0.90992816794E+02 -0.51204542608E+01  0.91867429533E+02  0.00000000000E+00 0. -1.
</event>
<event>
 6    1  0.4988969E-006  0.2070622E+03  0.7561462E-02  0.1143914E+00
         -2   -1    0    0    0  501 -0.00000000000E+00  0.00000000000E+00  0.15636369292E+03  0.15636369292E+03  0.00000000000E+00 0.  1.
          2   -1    0    0  501    0  0.00000000000E+00 -0.00000000000E+00 -0.38907483332E+03  0.38907483332E+03  0.00000000000E+00 0. -1.
          5    1    1    2  502    0  0.19442621883E+03  0.10823573920E+02 -0.16677375008E+03  0.25641696597E+03  0.41800000000E+01 0. -1.
         -5    1    1    2    0  502 -0.86583579955E+02  0.54002750404E+01  0.53470922336E+02  0.10199260377E+03  0.41800000000E+01 0.  1.
        -11    1    1    2    0    0 -0.16322589031E+02  0.26793705370E+02 -0.11036782643E+01  0.31393433483E+02  0.00000000000E+00 0. -1.
         11    1    1    2    0    0 -0.91520049844E+02 -0.43017554330E+02 -0.11830463439E+03  0.15563552301E+03  0.00000000000E+00 0.  1.
</event>
<event>
 6    1  0.4988969E-006  0.1197001E+03  0.7561462E-02  0.1243593E+00
         -1   -1    0    0    0  501 -0.00000000000E+00  0.00000000000E+00  0.75214834427E+02  0.75214834427E+02  0.00000000000E+00 0.  1.
          1   -1    0    0  501    0  0.00000000000E+00 -0.00000000000E+00 -0.55174157109E+03  0.55174157109E+03  0.00000000000E+00 0. -1.
          5    1    1    2  502    0 -0.17473720588E+02  0.10807462540E+03 -0.42488252390E+02  0.11750821059E+03  0.41800000000E+01 0. -1.
         -5    1    1    2    0  502 -0.18368599568E+02 -0.26321943317E+02  0.19630679165E+02  0.37856123872E+02  0.41800000000E+01 0. -1.
        -11    1    1    2    0    0  0.44454752791E+02 -0.69298183148E+02 -0.44787435734E+03  0.45537885678E+03  0.00000000000E+00 0. -1.
         11    1    1    2    0    0 -0.86124326350E+01 -0.12454498932E+02 -0.57948060977E+01  0.16213214279E+02  0.00000000000E+00 0.  1.
</event>
<event>
 6    1  0.4988969E-006  0.1142109E+03  0.7561462E-02  0.1252965E+00
          2   -1    0    0  501    0  0.00000000000E+00  0.00000000000E+00  0.13224139730E+02  0.13224139730E+02  0.00000000000E+00 0. -1.
         -2   -1    0    0    0  501 -0.00000000000E+00 -0.00000000000E+00 -0.13590658299E+04  0.13590658299E+04  0.00000000000E+00 0.  1.
          5    1    1    2  502    0  0.73225040202E+02 -0.44067006177E+02 -0.47039746666E+03  0.47811615386E+03  0.41800000000E+01 0.  1.
         -5    1    1    2    0  502 -0.24497412257E+02  0.27318840837E+02 -0.54564632637E+03  0.54689471395E+03  0.41800000000E+01 0.  1.
        -11    1    1    2    0    0 -0.46713838527E+02 -0.32327680080E+02 -0.13674382037E+03  0.14807475821E+03  0.00000000000E+00 0. -1.
         11    1    1    2    0    0 -0.20137894177E+01  0.49075845420E+02 -0.19305407676E+03  0.19920434359E+03  0.00000000000E+00 0.  1.
</event>
<event>
 6    1  0.4988969E-006  0.1669121E+03  0.7561462E-02  0.1181107E+00
         -2   -1    0    0    0  501 -0.00000000000E+00  0.00000000000E+00  0.11764263435E+03  0.11764263435E+03  0.00000000000E+00 0. -1.
          2   -1    0    0  501    0  0.00000000000E+00 -0.00000000000E+00 -0.25054386126E+03  0.25054386126E+03  0.00000000000E+00 0.  1.
          5    1    1    2  502    0  0.67767311468E+02 -0.66882896981E+02 -0.27932308965E+02  0.99314735544E+02  0.41800000000E+01 0. -1.
         -5    1    1    2    0  502  0.63759579029E+02  0.58135058843E+02 -0.22007139992E+02  0.89144576926E+02  0.41800000000E+01 0. -1.
        -11    1    1    2    0    0 -0.73532354816E+02 -0.33077524757E+02 -0.70585171999E+02  0.10716061009E+03  0.00000000000E+00 0.  1.
         11    1    1    2    0    0 -0.57994535680E+02  0.41825362895E+02 -0.12376605954E+02  0.72566573055E+02  0.00000000000E+00 0. -1.
</event>
<event>
 6    1  0.4988969E-006  0.1061943E+03  0.7561462E-02  0.1267784E+00
          2   -1    0    0  501    0  0.00000000000E+00  0.00000000000E+00  0.36588524492E+03  0.36588524492E+03  0.00000000000E+00 0. -1.
         -2   -1    0    0    0  501 -0.00000000000E+00 -0.00000000000E+00 -0.55010792585E+02  0.55010792585E+02  0.00000000000E+00 0.  1.
          5    1    1    2  502    0 -0.78764963899E+02 -0.22526213528E+02  0.98531452035E+02  0.12820791424E+03  0.41800000000E+01 0.  1.
         -5    1    1    2    0  502  0.15668597525E+02  0.39963636678E+02 -0.14158524056E+01  0.43151758283E+02  0.41800000000E+01 0.  1.
        -11    1    1    2    0    0 -0.33799292870E+01 -0.20409896379E+02 -0.46598705106E+01  0.21206182716E+02  0.00000000000E+00 0.  1.
         11    1    1    2    0    0  0.66476295660E+02  0.29724732296E+01  0.21841872321E+03  0.22833018226E+03  0.00000000000E+00 0. -1.
</event>
<event>
 6    1  0.4988969E-006  0.1401798E+03  0.7561462E-02  0.1213087E+00
          1   -1    0    0  501    0  0.00000000000E+00  0.00000000000E+00  0.64400586771E+03  0.64400586771E+03  0.00000000000E+00 0. -1.
         -1   -1    0    0    0  501 -0.00000000000E+00 -0.00000000000E+00 -0.34892764747E+02  0.34892764747E+02  0.00000000000E+00 0.  1.
          5    1    1    2  502    0  0.89218469093E+01 -0.75803320431E+02  0.81378821933E+02  0.11165002373E+03  0.41800000000E+01 0. -1.
         -5    1    1    2    0  502  0.71170911829E+02  0.18372924795E+02  0.17926115088E+03  0.19379085549E+03  0.41800000000E+01 0. -1.
        -11    1    1    2    0    0 -0.41163064286E+02  0.76556628570E+02  0.18622095489E+03  0.20550805162E+03  0.00000000000E+00 0.  1.
         11    1    1    2    0    0 -0.38929694453E+02 -0.19126232934E+02  0.16225217527E+03  0.16794970162E+03  0.00000000000E+00 0. -1.
</event>
<event>
 6    1  0.4988969E-006  0.9603291E+02  0.7561462E-02  0.1288867E+00
          1   -1    0    0  501    0  0.00000000000E+00  0.00000000000E+00  0.31357156791E+03  0.31357156791E+03  0.00000000000E+00 0. -1.
         -1   -1    0    0    0  501 -0.00000000000E+00 -0.00000000000E+00 -0.79104004093E+02  0.79104004093E+02  0.00000000000E+00 0.  1.
          5    1    1    2  502    0 -0.54750621453E+02 -0.42844887929E+02  0.35898325277E+02  0.78354815607E+02  0.41800000000E+01 0. -1.
         -5    1    1    2    0  502  0.41236444877E+02 -0.48971781441E+01 -0.37680284769E+02  0.56229022756E+02  0.41800000000E+01 0. -1.
        -11    1    1    2    0    0 -0.20557946686E+02 -0.17097451992E+01  0.80853649694E+01  0.22156839289E+02  0.00000000000E+00 0.  1.
         11    1    1    2    0    0  0.34072123262E+02  0.49451811273E+02  0.22816415834E+03  0.23593489435E+03  0.00000000000E+00 0. -1.
</event>
<event>
 6    1  0.4988969E-006  0.1076626E+03  0.7561462E-02  0.1264961E+00
          2   -1    0    0  501    0  0.00000000000E+00  0.00000000000E+00  0.27272548424E+03  0.27272548424E+03  0.00000000000E+00 0. -1.
         -2   -1    0    0    0  501 -0.00000000000E+00 -0.00000000000E+00 -0.61552692536E+02  0.61552692536E+02  0.00000000000E+00 0.  1.
          5    1    1    2  502    0  0.29008679364E+02  0.48013561153E+02 -0.14469839110E+02  0.58083166037E+02  0.41800000000E+01 0. -1.
         -5    1    1    2    0  502  0.27573398856E+02 -0.42446260744E+02  0.78475804066E+02  0.93476743629E+02  0.41800000000E+01 0. -1.
        -11    1    1    2    0    0 -0.35160318085E+02  0.42797507156E+02  0.74009197034E+02  0.92440444786E+02  0.00000000000E+00 0. -1.
         11    1    1    2    0    0 -0.21421760135E+02 -0.48364807564E+02  0.73157629711E+02  0.90277822321E+02  0.00000000000E+00 0.  1.
</event>
<event>
 6    1  0.4988969E-006  0.1216070E+03  0.7561462E-02  0.1240469E+00
          2   -1    0    0  501    0  0.00000000000E+00  0.00000000000E+00  0.58791557796E+03  0.58791557796E+03  0.00000000000E+00 0.  1.
         -2   -1    0    0    0  501 -0.00000000000E+00 -0.00000000000E+00 -0.45043901868E+02  0.45043901868E+02  0.00000000000E+00 0. -1.
          5    1    1    2  502    0  0.81759342343E+02 -0.14786274143E+02  0.59027237735E+02  0.10200446636E+03  0.41800000000E+01 0. -1.
         -5    1    1    2    0  502 -0.41431455695E+02 -0.44643945958E+02  0.42400712760E+02  0.74329941976E+02  0.41800000000E+01 0. -1.
        -11    1    1    2    0    0  0.19078353456E+02  0.20183832223E+02  0.38690994719E+02  0.47627342212E+02  0.00000000000E+00 0. -1.
         11    1    1    2    0    0 -0.59406240104E+02  0.39246387877E+02  0.40275273087E+03  0.40899772927E+03  0.00000000000E+00 0.  1.
</event>
<event>
 6    1  0.4988969E-006  0.1033859E+03  0.7561462E-02  0.1273333E+00
          1   -1    0    0  501    0  0.00000000000E+00  0.00000000000E+00  0.10244433714E+03  0.10244433714E+03  0.00000000000E+00 0. -1.
         -1   -1    0    0    0  501 -0.00000000000E+00 -0.00000000000E+00 -0.18963240737E+03  0.18963240737E+03  0.00000000000E+00 0.  1.
          5    1    1    2  502    0  0.16068914708E+01  0.10183576195E+02  0.34697234575E+02  0.36437039005E+02  0.41800000000E+01 0. -1.
         -5    1    1    2    0  502 -0.65442295204E+02 -0.71495629081E+02 -0.73291541980E+02  0.12158717657E+03  0.41800000000E+01 0. -1.
        -11    1    1    2    0    0 -0.64372601373E+01  0.88191731716E+01 -0.44956194912E+02  0.46263112676E+02  0.00000000000E+00 0.  1.
         11    1    1    2    0    0  0.70272663871E+02  0.52492879714E+02 -0.36375679066E+01  0.87789416267E+02  0.00000000000E+00 0. -1.
</event>
<event>
 6    1  0.4988969E-006  0.3174063E+03  0.7561462E-02  0.1076849E+00
          1   -1    0    0  501    0  0.00000000000E+00  0.00000000000E+00  0.75048872175E+02  0.75048872175E+02  0.00000000000E+00 0. -1.
         -1   -1    0    0    0  501 -0.00000000000E+00 -0.00000000000E+00 -0.13748653652E+04  0.13748653652E+04  0.00000000000E+00 0.  1.
          5    1    1    2  502    0 -0.15969939725E+03 -0.96025397987E+02 -0.31234522273E+03  0.36373312346E+03  0.41800000000E+01 0.  1.
         -5    1    1    2    0  502 -0.45913652036E+02 -0.12468934790E+03 -0.35889990382E+03  0.38272981369E+03  0.41800000000E+01 0.  1.
        -11    1    1    2    0    0  0.57277897329E+02  0.12883743820E+03 -0.29719727751E+03  0.32894690265E+03  0.00000000000E+00 0.  1.
         11    1    1    2    0    0  0.14833515195E+03  0.91877307687E+02 -0.33137408899E+03  0.37450439761E+03  0.00000000000E+00 0. -1.
</event>
<event>
 6    1  0.4988969E-006  0.1354212E+03  0.7561462E-02  0.1219626E+00
          1   -1    0    0  501    0  0.00000000000E+00  0.00000000000E+00  0.51747263482E+03  0.51747263482E+03  0.00000000000E+00 0. -1.
         -1   -1    0    0    0  501 -0.00000000000E+00 -0.00000000000E+00 -0.58613941790E+02  0.58613941790E+02  0.00000000000E+00 0.  1.
          5    1    1    2  502    0  0.11229754260E+03 -0.12739153168E+02  0.37449476570E+02  0.11913420916E+03  0.41800000000E+01 0. -1.
         -5    1    1    2    0  502  0.64129240161E+01  0.13269077444E+02  0.10062507100E+03  0.10178443557E+03  0.41800000000E+01 0. -1.
        -11    1    1    2    0    0 -0.10486465734E+03  0.29859932147E+02  0.17974981828E+03  0.21023370110E+03  0.00000000000E+00 0.  1.
         11    1    1    2    0    0 -0.13845809275E+02 -0.30389856423E+02  0.14103432718E+03  0.14493423078E+03  0.00000000000E+00 0. -1.
</event>
<event>
 6    1  0.4988969E-006  0.1695102E+03  0.7561462E-02  0.1178360E+00
          2   -1    0    0  501    0  0.00000000000E+00  0.00000000000E+00  0.60157754975E+03  0.60157754975E+03  0.00000000000E+00 0.  1.
         -2   -1    0    0    0  501 -0.00000000000E+00 -0.00000000000E+00 -0.49930117658E+02  0.49930117658E+02  0.00000000000E+00 0. -1.
          5    1    1    2  502    0  0.37664364108E+02 -0.13469922833E+03  0.19742481055E+03  0.24198453392E+03  0.41800000000E+01 0.  1.
         -5    1    1    2    0  502 -0.41629921561E+02  0.15349368700E+01  0.78543928637E+02  0.89005772431E+02  0.41800000000E+01 0.  1.
        -11    1    1    2    0    0  0.35381457753E+02  0.21901483123E+02  0.11706264803E+03  0.12423842432E+03  0.00000000000E+00 0.  1.
         11    1    1    2    0    0 -0.31415900301E+02  0.11126280834E+03  0.15861604488E+03  0.19627893673E+03  0.00000000000E+00 0. -1.
</event>
<event>
 6    1  0.4988969E-006  0.8950221E+02  0.7561462E-02  0.1304062E+00
          2   -1    0    0  501    0  0.00000000000E+00  0.00000000000E+00  0.27717886556E+03  0.27717886556E+03  0.00000000000E+00 0. -1.
         -2   -1    0    0    0  501 -0.00000000000E+00 -0.00000000000E+00 -0.62884784212E+02  0.62884784212E+02  0.00000000000E+00 0.  1.
          5    1    1    2  502    0  0.58354948840E+01  0.15061555120E+01 -0.34550999365E+02  0.35320892713E+02  0.41800000000E+01 0. -1.
         -5    1    1    2    0  502 -0.51621512372E+02  0.40274744811E+02  0.98221118866E+02  0.11811729848E+03  0.41800000000E+01 0. -1.
        -11    1    1    2    0    0  0.57153465179E+02  0.55159696263E+01  0.10629957267E+03  0.12081615643E+03  0.00000000000E+00 0.  1.
         11    1    1    2    0    0 -0.11367447691E+02 -0.47296869950E+02  0.44324389169E+02  0.65809302148E+02  0.00000000000E+00 0. -1.
</event>
<event>
 6    1  0.4988969E-006  0.8857162E+02  0.7561462E-02  0.1306348E+00
         -2   -1    0    0    0  501 -0.00000000000E+00  0.00000000000E+00  0.79787247697E+02  0.79787247697E+02  0.00000000000E+00 0.  1.
          2   -1    0    0  501    0  0.00000000000E+00 -0.00000000000E+00 -0.21992137367E+03  0.21992137367E+03  0.00000000000E+00 0. -1.
          5    1    1    2  502    0 -0.41120317356E+02  0.31712823645E+02  0.28017366421E+02  0.59152590004E+02  0.41800000000E+01 0.  1.
         -5    1    1    2    0  502  0.63871284278E+02  0.82762199197E+01 -0.37071822572E+02  0.74430028888E+02  0.41800000000E+01 0.  1.
        -11    1    1    2    0    0 -0.32776233668E+02 -0.20695630830E+02 -0.60652341988E+01  0.39234904037E+02  0.00000000000E+00 0.  1.
         11    1    1    2    0    0  0.10025266747E+02 -0.19293412736E+02 -0.12501443563E+03  0.12689109844E+03  0.00000000000E+00 0. -1.
</event>
<event>
 6    1  0.4988969E-006  0.2498535E+03  0.7561462E-02  0.1113397E+00
          1   -1    0    0  501    0  0.00000000000E+00  0.00000000000E+00  0.50507183053E+03  0.50507183053E+03  0.00000000000E+00 0. -1.
         -1   -1    0    0    0  501 -0.00000000000E+00 -0.00000000000E+00 -0.15534650573E+03  0.15534650573E+03  0.00000000000E+00 0.  1.
          5    1    1    2  502    0 -0.42076139068E+02 -0.10561202019E+03  0.98174716615E+02  0.15026658866E+03  0.41800000000E+01 0.  1.
         -5    1    1    2    0  502 -0.26709592863E+02 -0.12564920420E+03 -0.25556052832E+02  0.13104086807E+03  0.41800000000E+01 0.  1.
        -11    1    1    2    0    0 -0.11566288570E+02  0.11792259613E+03  0.10873150139E+03  0.16081684335E+03  0.00000000000E+00 0. -1.
         11    1    1    2    0    0  0.80352020502E+02  0.11333862825E+03  0.16837515963E+03  0.21829403618E+03  0.00000000000E+00 0.  1.
</event>
<event>
 6    1  0.4988969E-006  0.1079745E+03  0.7561462E-02  0.1264367E+00
         -1   -1    0    0    0  501 -0.00000000000E+00  0.00000000000E+00  0.38149291553E+02  0.38149291553E+02  0.00000000000E+00 0.  1.
          1   -1    0    0  501    0  0.00000000000E+00 -0.00000000000E+00 -0.52539403353E+03  0.52539403353E+03  0.00000000000E+00 0. -1.
          5    1    1    2  502    0  0.15992763570E+02  0.49344045239E+02 -0.74044552745E+02  0.90502328580E+02  0.41800000000E+01 0. -1.
         -5    1    1    2    0  502 -0.53903349154E+02 -0.34098115251E+02 -0.19769868496E+02  0.66907194038E+02  0.41800000000E+01 0.  1.
        -11    1    1    2    0    0  0.51403309428E+02 -0.44362416896E+02 -0.24229451428E+03  0.25162860709E+03  0.00000000000E+00 0.  1.
         11    1    1    2    0    0 -0.13492723844E+02  0.29116486908E+02 -0.15113580645E+03  0.15450519538E+03  0.00000000000E+00 0. -1.
</event>
<event>
 6    1  0.4988969E-006  0.1300059E+03  0.7561462E-02  0.1227447E+00
          3   -1    0    0  501    0  0.00000000000E+00  0.00000000000E+00  0.36373201764E+03  0.36373201764E+03  0.00000000000E+00 0.  1.
         -3   -1    0    0    0  501 -0.00000000000E+00 -0.00000000000E+00 -0.49467635347E+02  0.49467635347E+02  0.00000000000E+00 0. -1.
          5    1    1    2  502    0  0.45294384166E+02 -0.58232057818E+02  0.97767988391E+02  0.12255042125E+03  0.41800000000E+01 0. -1.
         -5    1    1    2    0  502  0.20333426714E+02  0.62870102269E+02  0.61267119318E+02  0.90206597934E+02  0.41800000000E+01 0. -1.
        -11    1    1    2    0    0 -0.15633378812E+02 -0.50010847969E+02  0.10124201756E+03  0.11399751562E+03  0.00000000000E+00 0. -1.
         11    1    1    2    0    0 -0.49994432068E+02  0.45372803518E+02  0.53987257023E+02  0.86445118184E+02  0.00000000000E+00 0.  1.
</event>
<event>
 6    1  0.4988969E-006  0.9253428E+02  0.7561462E-02  0.1296828E+00
          1   -1    0    0  501    0  0.00000000000E+00  0.00000000000E+00  0.18619089113E+03  0.18619089113E+03  0.00000000000E+00 0. -1.
         -1   -1    0    0    0  501 -0.00000000000E+00 -0.00000000000E+00 -0.11717138540E+03  0.11717138540E+03  0.00000000000E+00 0.  1.
          5    1    1    2  502    0 -0.72052016436E+02  0.14007328041E+02 -0.42205297262E+01  0.73640909707E+02  0.41800000000E+01 0. -1.
         -5    1    1    2    0  502  0.32719463680E+02 -0.20547042693E+02 -0.53788183518E+02  0.66358008959E+02  0.41800000000E+01 0.  1.
        -11    1    1    2    0    0 -0.16221040169E+02  0.54859253472E+01 -0.68266907588E+01  0.18434240635E+02  0.00000000000E+00 0. -1.
         11    1    1    2    0    0  0.55553592925E+02  0.10537893057E+01  0.13385490973E+03  0.14492911722E+03  0.00000000000E+00 0.  1.
</event>
<event>
 6    1  0.4988969E-006  0.1201199E+03  0.7561462E-02  0.1242899E+00
         -2   -1    0    0    0  501 -0.00000000000E+00  0.00000000000E+00  0.32801588739E+02  0.32801588739E+02  0.00000000000E+00 0. -1.
          2   -1    0    0  501    0  0.00000000000E+00 -0.00000000000E+00 -0.51353139848E+03  0.51353139848E+03  0.00000000000E+00 0.  1.
          5    1    1    2  502    0 -0.39492832133E+02  0.76678150534E+02 -0.19600674698E+03  0.21418529320E+03  0.41800000000E+01 0.  1.
         -5    1    1    2    0  502  0.30359907690E+02 -0.19271462662E+02 -0.18028212253E+02  0.40442577874E+02  0.41800000000E+01 0.  1.
        -11    1    1    2    0    0 -0.25081208061E+02  0.20631635128E+02 -0.85978737628E+02  0.91907968588E+02  0.00000000000E+00 0.  1.
         11    1    1    2    0    0  0.34214132504E+02 -0.78038323000E+02 -0.18071611288E+03  0.19979714756E+03  0.00000000000E+00 0. -1.
</event>
<event>
 6    1  0.4988969E-006  0.1250793E+03  0.7561462E-02  0.1234945E+00
          1   -1    0    0  501    0  0.00000000000E+00  0.00000000000E+00  0.56018249288E+03  0.56018249288E+03  0.00000000000E+00 0. -1.
         -1   -1    0    0    0  501 -0.00000000000E+00 -0.00000000000E+00 -0.35292007098E+02  0.35292007098E+02  0.00000000000E+00 0.  1.
          5    1    1    2  502    0 -0.61045955699E+02 -0.59444806092E+02  0.12292298000E+03  0.14962561642E+03  0.41800000000E+01 0. -1.
         -5    1    1    2    0  502  0.51792935830E+02 -0.63738073974E+01  0.37531390971E+02  0.64414372083E+02  0.41800000000E+01 0. -1.
        -11    1    1    2    0    0 -0.25131672077E+02 -0.11680457050E+02  0.96918542140E+02  0.10080296538E+03  0.00000000000E+00 0. -1.
         11    1    1    2    0    0  0.34384691946E+02  0.77499070539E+02  0.26751757268E+03  0.28063154610E+03  0.00000000000E+00 0.  1.
</event>
<event>
 6    1  0.4988969E-006  0.1042442E+03  0.7561462E-02  0.1271616E+00
         -1   -1    0    0    0  501 -0.00000000000E+00  0.00000000000E+00  0.31553810978E+03  0.31553810978E+03  0.00000000000E+00 0.  1.
          1   -1    0    0  501    0  0.00000000000E+00 -0.00000000000E+00 -0.59699662596E+02  0.59699662596E+02  0.00000000000E+00 0. -1.
          5    1    1    2  502    0 -0.16680319686E+02 -0.32277870968E+02  0.74382734506E+02  0.82887620376E+02  0.41800000000E+01 0. -1.
         -5    1    1    2    0  502  0.62688470390E+02  0.82405803542E+02  0.13099687546E+03  0.16702758622E+03  0.41800000000E+01 0. -1.
        -11    1    1    2    0    0 -0.24092599654E+02 -0.30527119883E+02  0.76647202111E+02  0.85948542732E+02  0.00000000000E+00 0.  1.
         11    1    1    2    0    0 -0.21915551051E+02 -0.19600812691E+02 -0.26188364888E+02  0.39374023055E+02  0.00000000000E+00 0. -1.
</event>
<event>
 6    1  0.4988969E-006  0.2380483E+03  0.7561462E-02  0.1121100E+00
         -1   -1    0    0    0  501 -0.00000000000E+00  0.00000000000E+00  0.26753735440E+03  0.26753735440E+03  0.00000000000E+00 0.  1.
          1   -1    0    0  501    0  0.00000000000E+00 -0.00000000000E+00 -0.32971549560E+03  0.32971549560E+03  0.00000000000E+00 0. -1.
          5    1    1    2  502    0  0.88123809164E+02  0.18387092976E+03  0.10918899891E+03  0.23133100621E+03  0.41800000000E+01 0.  1.
         -5    1    1    2    0  502 -0.38560362793E+02  0.31318521486E+02  0.26516993387E+02  0.56465694940E+02  0.41800000000E+01 0.  1.
        -11    1    1    2    0    0 -0.19221445320E+02 -0.13854509429E+03 -0.67763141004E+02  0.15542216827E+03  0.00000000000E+00 0.  1.
         11    1    1    2    0    0 -0.30342001052E+02 -0.76644356957E+02 -0.13012099250E+03  0.15403398057E+03  0.00000000000E+00 0. -1.
</event>
<event>
 6    1  0.4988969E-006  0.1399531E+03  0.7561462E-02  0.1213392E+00
         -1   -1    0    0    0  501 -0.00000000000E+00  0.00000000000E+00  0.68046683844E+03  0.68046683844E+03  0.00000000000E+00 0.  1.
          1   -1    0    0  501    0  0.00000000000E+00 -0.00000000000E+00 -0.36173742314E+02  0.36173742314E+02  0.00000000000E+00 0. -1.
          5    1    1    2  502    0  0.82172615973E+01 -0.57258254775E+02  0.11488860013E+03  0.12869690737E+03  0.41800000000E+01 0. -1.
         -5    1    1    2    0  502  0.93127175200E+02  0.36426007216E+02  0.33225324936E+03  0.34700031538E+03  0.41800000000E+01 0. -1.
        -11    1    1    2    0    0 -0.68506714911E+02 -0.18135626431E+02  0.16776490715E+03  0.18211846420E+03  0.00000000000E+00 0.  1.
         11    1    1    2    0    0 -0.32837721886E+02  0.38967873990E+02  0.29386339493E+02  0.58824893802E+02  0.00000000000E+00 0. -1.
</event>
<event>
 6    1  0.4988969E-006  0.1617138E+03  0.7561462E-02  0.1186775E+00
          1   -1    0    0  501    0  0.00000000000E+00  0.00000000000E+00  0.36900728286E+03  0.36900728286E+03  0.00000000000E+00 0. -1.
         -1   -1    0    0    0  501 -0.00000000000E+00 -0.00000000000E+00 -0.10937290167E+03  0.10937290167E+03  0.00000000000E+00 0.  1.
          5    1    1    2  502    0  0.20989308641E+02  0.54483300648E+02 -0.19944745658E+02  0.61840491639E+02  0.41800000000E+01 0.  1.
         -5    1    1    2    0  502 -0.10190124624E+03  0.63586329045E+02  0.51929394303E+02  0.13092448060E+03  0.41800000000E+01 0.  1.
        -11    1    1    2    0    0  0.36964109308E+02 -0.72605338205E+02  0.46639792630E+02  0.93878382866E+02  0.00000000000E+00 0.  1.
         11    1    1    2    0    0  0.43947828291E+02 -0.45464291488E+02  0.18100993991E+03  0.19173682943E+03  0.00000000000E+00 0. -1.
</event>
<event>
 6    1  0.4988969E-006  0.2429038E+03  0.7561462E-02  0.1117873E+00
         -2   -1    0    0    0  501 -0.00000000000E+00  0.00000000000E+00  0.10717633482E+03  0.10717633482E+03  0.00000000000E+00 0.  1.
          2   -1    0    0  501    0  0.00000000000E+00 -0.00000000000E+00 -0.66654375124E+03  0.66654375124E+03  0.00000000000E+00 0. -1.
          5    1    1    2  502    0  0.86597665220E+02  0.13124773673E+03 -0.12552134721E+03  0.20124165827E+03  0.41800000000E+01 0. -1.
         -5    1    1    2    0  502  0.90154848231E+02  0.49017158326E+01 -0.18350917605E+02  0.92228802739E+02  0.41800000000E+01 0. -1.
        -11    1    1    2    0    0 -0.81715487181E+02 -0.11447408602E+03 -0.27993203630E+03  0.31327892071E+03  0.00000000000E+00 0. -1.
         11    1    1    2    0    0 -0.95037026271E+02 -0.21675366544E+02 -0.13556311531E+03  0.16697070434E+03  0.00000000000E+00 0.  1.
</event>
<event>
 6    1  0.4988969E-006  0.1166412E+03  0.7561462E-02  0.1248743E+00
          1   -1    0    0  501    0  0.00000000000E+00  0.00000000000E+00  0.13847101348E+03  0.13847101348E+03  0.00000000000E+00 0. -1.
         -1   -1    0    0    0  501 -0.00000000000E+00 -0.00000000000E+00 -0.23310660295E+03  0.23310660295E+03  0.00000000000E+00 0.  1.
          5    1    1    2  502    0  0.10895692419E+01 -0.95474562245E+02 -0.18248300266E+03  0.20599538310E+03  0.41800000000E+01 0.  1.
         -5    1    1    2    0  502  0.87249837652E+01  0.51292234192E+01  0.17164233472E+02  0.20359704940E+02  0.41800000000E+01 0.  1.
        -11    1    1    2    0    0 -0.40477262724E+02  0.11374325354E+02  0.20748156083E+02  0.46885712703E+02  0.00000000000E+00 0.  1.
         11    1    1    2    0    0  0.30662709717E+02  0.78971013472E+02  0.49935023634E+02  0.98336815696E+02  0.00000000000E+00 0. -1.
</event>
<event>
 6    1  0.4988969E-006  0.1282991E+03  0.7561462E-02  0.1230002E+00
         -2   -1    0    0    0  501 -0.00000000000E+00  0.00000000000E+00  0.41724731496E+02  0.41724731496E+02  0.00000000000E+00 0.  1.
          2   -1    0    0  501    0  0.00000000000E+00 -0.00000000000E+00 -0.54628641380E+03  0.54628641380E+03  0.00000000000E+00 0. -1.
          5    1    1    2  502    0  0.19052095632E+02  0.53615183895E+02 -0.10018870960E+03  0.11529449347E+03  0.41800000000E+01 0.  1.
         -5    1    1    2    0  502  0.72254452953E+02 -0.54385143196E+02 -0.67169702717E+02  0.11272839542E+03  0.41800000000E+01 0.  1.
        -11    1    1    2    0    0 -0.47875205538E+02  0.30150615040E+02 -0.83106103000E+02  0.10053715357E+03  0.00000000000E+00 0.  1.
         11    1    1    2    0    0 -0.43431343047E+02 -0.29380655739E+02 -0.25409716698E+03  0.25945110283E+03  0.00000000000E+00 0. -1.
</event>
<event>
 6    1  0.4988969E-006  0.2300646E+03  0.7561462E-02  0.1126594E+00
          4   -1    0    0  501    0  0.00000000000E+00  0.00000000000E+00  0.70323991989E+03  0.70323991989E+03  0.00000000000E+00 0. -1.
         -4   -1    0    0    0  501 -0.00000000000E+00 -0.00000000000E+00 -0.82351468054E+02  0.82351468054E+02  0.00000000000E+00 0.  1.
          5    1    1    2  502    0 -0.65879754016E+02 -0.85750708113E+00  0.18729808310E+03  0.19859235041E+03  0.41800000000E+01 0. -1.
         -5    1    1    2    0  502 -0.10654582967E+03 -0.12424587802E+03  0.17227858038E+03  0.23766874780E+03  0.41800000000E+01 0. -1.
        -11    1    1    2    0    0  0.12571824624E+03  0.13300047646E+03  0.22244682387E+03  0.28805692775E+03  0.00000000000E+00 0. -1.
         11    1    1    2    0    0  0.46707337452E+02 -0.78970913636E+01  0.38864964482E+02  0.61273361978E+02  0.00000000000E+00 0.  1.
</event>
<event>
 6    1  0.4988969E-006  0.9350323E+02  0.7561462E-02  0.1294583E+00
          1   -1    0    0  501    0  0.00000000000E+00  0.00000000000E+00  0.95401426022E+02  0.95401426022E+02  0.00000000000E+00 0.  1.
         -1   -1    0    0    0  501 -0.00000000000E+00 -0.00000000000E+00 -0.32251567519E+03  0.32251567519E+03  0.00000000000E+00 0. -1.
          5    1    1    2  502    0  0.61972180153E+02 -0.43694905645E+02 -0.27325497682E+03  0.28361161938E+03  0.41800000000E+01 0. -1.
         -5    1    1    2    0  502 -0.41111087664E+01  0.89787539222E+01  0.10571106872E+02  0.15057886232E+02  0.41800000000E+01 0. -1.
        -11    1    1    2    0    0 -0.38185191432E+02 -0.19348081636E+02 -0.12151801507E+02  0.44498577366E+02  0.00000000000E+00 0. -1.
         11    1    1    2    0    0 -0.19675879955E+02  0.54064233359E+02  0.47721422289E+02  0.74749018228E+02  0.00000000000E+00 0.  1.
</event>
<event>
 6    1  0.4988969E-006  0.1961482E+03  0.7561462E-02  0.1153030E+00
          1   -1    0    0  501    0  0.00000000000E+00  0.00000000000E+00  0.64009640871E+03  0.64009640871E+03  0.00000000000E+00 0. -1.
         -1   -1    0    0    0  501 -0.00000000000E+00 -0.00000000000E+00 -0.74894495587E+02  0.74894495587E+02  0.00000000000E+00 0.  1.
          5    1    1    2  502    0 -0.89915773159E+02  0.38632431001E+02  0.93829716186E+02  0.13564217275E+03  0.41800000000E+01 0.  1.
         -5    1    1    2    0  502  0.73901550162E+01  0.11473389895E+03  0.75919668411E+02  0.13783958216E+03  0.41800000000E+01 0.  1.
        -11    1    1    2    0    0  0.52125669802E+02 -0.13260718653E+03  0.21909767179E+03  0.26135328801E+03  0.00000000000E+00 0.  1.
         11    1    1    2    0    0  0.30399948340E+02 -0.20759143421E+02  0.17635485673E+03  0.18015586138E+03  0.00000000000E+00 0. -1.
</event>
<event>
 6    1  0.4988969E-006  0.1119128E+03  0.7561462E-02  0.1257068E+00
         -1   -1    0    0    0  501 -0.00000000000E+00  0.00000000000E+00  0.21062305317E+02  0.21062305317E+02  0.00000000000E+00 0.  1.
          1   -1    0    0  501    0  0.00000000000E+00 -0.00000000000E+00 -0.67461244528E+03  0.67461244528E+03  0.00000000000E+00 0. -1.
          5    1    1    2  502    0 -0.47409504899E+02  0.77983799636E+02 -0.27733963842E+03  0.29199979726E+03  0.41800000000E+01 0. -1.
         -5    1    1    2    0  502  0.29117673663E+02 -0.30130033926E+02 -0.88323163198E+02  0.97847388423E+02  0.41800000000E+01 0. -1.
        -11    1    1    2    0    0  0.37150380276E+02 -0.58049152882E+02 -0.26752722112E+03  0.27626195710E+03  0.00000000000E+00 0. -1.
         11    1    1    2    0    0 -0.18858549041E+02  0.10195387172E+02 -0.20360117223E+02  0.29565607804E+02  0.00000000000E+00 0.  1.
</event>
<event>
 6    1  0.4988969E-006  0.9885764E+02  0.7561462E-02  0.1282717E+00
         -1   -1    0    0    0  501 -0.00000000000E+00  0.00000000000E+00  0.43386998510E+02  0.43386998510E+02  0.00000000000E+00 0.  1.
          1   -1    0    0  501    0  0.00000000000E+00 -0.00000000000E+00 -0.42189835770E+03  0.42189835770E+03  0.00000000000E+00 0. -1.
          5    1    1    2  502    0  0.49675985211E+02 -0.19935508742E+02 -0.77969897722E+02  0.94667340547E+02  0.41800000000E+01 0. -1.
         -5    1    1    2    0  502 -0.49173864366E+02 -0.29097481323E+02 -0.63983217113E+01  0.57646710893E+02  0.41800000000E+01 0.  1.
        -11    1    1    2    0    0  0.11762241844E+02 -0.16389150744E+02 -0.12868129559E+02  0.23927878169E+02  0.00000000000E+00 0.  1.
         11    1    1    2    0    0 -0.12264362688E+02  0.65422140809E+02 -0.28127501019E+03  0.28904342660E+03  0.00000000000E+00 0. -1.
</event>
<event>
 6    1  0.4988969E-006  0.6290755E+02  0.7561462E-02  0.1386020E+00
         -4   -1    0    0    0  501 -0.00000000000E+00  0.00000000000E+00  0.10990873068E+03  0.10990873068E+03  0.00000000000E+00 0.  1.
          4   -1    0    0  501    0  0.00000000000E+00 -0.00000000000E+00 -0.12049631802E+03  0.12049631802E+03  0.00000000000E+00 0. -1.
          5    1    1    2  502    0 -0.78479048818E+00  0.33132638888E+02 -0.55317187724E+02  0.64620827242E+02  0.41800000000E+01 0.  1.
         -5    1    1    2    0  502  0.15801411269E+02  0.29682632097E+01  0.64670319283E+02  0.66769886781E+02  0.41800000000E+01 0.  1.
        -11    1    1    2    0    0  0.17206828032E+02 -0.39802877211E+02 -0.41536823741E+02  0.60047078960E+02  0.00000000000E+00 0. -1.
         11    1    1    2    0    0 -0.32223448813E+02  0.37019751132E+01  0.21596104844E+02  0.38967255710E+02  0.00000000000E+00 0.  1.
</event>
<event>
 6    1  0.4988969E-006  0.1041261E+03  0.7561462E-02  0.1271851E+00
          1   -1    0    0  501    0  0.00000000000E+00  0.00000000000E+00  0.26552285689E+03  0.26552285689E+03  0.00000000000E+00 0. -1.
         -1   -1    0    0    0  501 -0.00000000000E+00 -0.00000000000E+00 -0.56352534701E+02  0.56352534701E+02  0.00000000000E+00 0.  1.
          5    1    1    2  502    0  0.29344654764E+02 -0.67009644031E+02  0.42830920086E+02  0.84872617916E+02  0.41800000000E+01 0.  1.
         -5    1    1    2    0  502 -0.11511544898E+02  0.49990652359E+02  0.66824051943E+01  0.51900943425E+02  0.41800000000E+01 0.  1.
        -11    1    1    2    0    0 -0.15084363741E+02 -0.31493909748E+02  0.27984343188E+02  0.44749612784E+02  0.00000000000E+00 0.  1.
         11    1    1    2    0    0 -0.27487461256E+01  0.48512901420E+02  0.13167265372E+03  0.14035221746E+03  0.00000000000E+00 0. -1.
</event>
<event>
 6    1  0.4988969E-006  0.9131935E+02  0.7561462E-02  0.1299688E+00
         -2   -1    0    0    0  501 -0.00000000000E+00  0.00000000000E+00  0.32090688730E+02  0.32090688730E+02  0.00000000000E+00 0.  1.
          2   -1    0    0  501    0  0.00000000000E+00 -0.00000000000E+00 -0.50697333610E+03  0.50697333610E+03  0.00000000000E+00 0. -1.
          5    1    1    2  502    0 -0.18231931368E+02 -0.53434521400E+00 -0.16803499438E+03  0.16907371346E+03  0.41800000000E+01 0. -1.
         -5    1    1    2    0  502  0.38055940711E+02 -0.58721692243E+02 -0.37454393687E+02  0.79478272312E+02  0.41800000000E+01 0. -1.
        -11    1    1    2    0    0 -0.32187289793E+01  0.72509253163E+02 -0.25428897090E+03  0.26444438495E+03  0.00000000000E+00 0.  1.
         11    1    1    2    0    0 -0.16605280364E+02 -0.13253215706E+02 -0.15104288399E+02  0.26067654105E+02  0.00000000000E+00 0. -1.
</event>
<event>
 6    1  0.4988969E-006  0.9995039E+02  0.7561462E-02  0.1280400E+00
         -1   -1    0    0    0  501 -0.00000000000E+00  0.00000000000E+00  0.48646049520E+03  0.48646049520E+03  0.00000000000E+00 0.  1.
          1   -1    0    0  501    0  0.00000000000E+00 -0.00000000000E+00 -0.24861070094E+02  0.24861070094E+02  0.00000000000E+00 0. -1.
          5    1    1    2  502    0 -0.42059075657E+02 -0.48064787600E+02  0.11165465678E+03  0.12869896826E+03  0.41800000000E+01 0. -1.
         -5    1    1    2    0  502  0.31558746810E+02  0.46442962323E+02  0.18633634206E+03  0.19465766880E+03  0.41800000000E+01 0. -1.
        -11    1    1    2    0    0 -0.57883345627E+01 -0.37116934334E+02  0.30524532166E+02  0.48403705388E+02  0.00000000000E+00 0. -1.
         11    1    1    2    0    0  0.16288663410E+02  0.38738759611E+02  0.13308389410E+03  0.13956122284E+03  0.00000000000E+00 0.  1.
</event>
<event>
 6    1  0.4988969E-006  0.1193152E+03  0.7561462E-02  0.1244231E+00
         -2   -1    0    0    0  501 -0.00000000000E+00  0.00000000000E+00  0.21385204589E+02  0.21385204589E+02  0.00000000000E+00 0.  1.
          2   -1    0    0  501    0  0.00000000000E+00 -0.00000000000E+00 -0.78405689921E+03  0.78405689921E+03  0.00000000000E+00 0. -1.
          5    1    1    2  502    0  0.70149403580E+02  0.35983415403E+02 -0.23948442206E+03  0.25216265745E+03  0.41800000000E+01 0.  1.
         -5    1    1    2    0  502 -0.47078984358E+02  0.19797497606E+02 -0.67114700073E+02  0.84440671750E+02  0.41800000000E+01 0.  1.
        -11    1    1    2    0    0 -0.31844549343E+02  0.16334392779E+02 -0.16507072479E+03  0.16890598536E+03  0.00000000000E+00 0. -1.
         11    1    1    2    0    0  0.87741301209E+01 -0.72115305788E+02 -0.29100184771E+03  0.29993278923E+03  0.00000000000E+00 0.  1.
</event>
<event>
 6    1  0.4988969E-006  0.1394244E+03  0.7561462E-02  0.1214106E+00
         -2   -1    0    0    0  501 -0.00000000000E+00  0.00000000000E+00  0.74433656034E+03  0.74433656034E+03  0.00000000000E+00 0.  1.
          2   -1    0    0  501    0  0.00000000000E+00 -0.00000000000E+00 -0.35587942152E+02  0.35587942152E+02  0.00000000000E+00 0. -1.
          5    1    1    2  502    0  0.74308838549E+02 -0.76052380228E+02  0.29617843419E+03  0.31471400557E+03  0.41800000000E+01 0.  1.
         -5    1    1    2    0  502  0.12917379100E+02  0.38862956505E+02  0.25809802701E+03  0.26136038724E+03  0.41800000000E+01 0.  1.
        -11    1    1    2    0    0 -0.91213958784E+02 -0.26313889145E+01  0.12177562634E+03  0.15217165851E+03  0.00000000000E+00 0.  1.
         11    1    1    2    0    0  0.39877411344E+01  0.39820812637E+02  0.32696530652E+02  0.51678451168E+02  0.00000000000E+00 0. -1.
</event>
<event>
 6    1  0.4988969E-006  0.1950596E+03  0.7561462E-02  0.1153975E+00
         -2   -1    0    0    0  501 -0.00000000000E+00  0.00000000000E+00  0.93311481669E+02  0.93311481669E+02  0.00000000000E+00 0.  1.
          2   -1    0    0  501    0  0.00000000000E+00 -0.00000000000E+00 -0.74918349350E+03  0.74918349350E+03  0.00000000000E+00 0. -1.
          5    1    1    2  502    0 -0.37731179251E+02 -0.30680722550E+02 -0.76969636720E+02  0.91141351760E+02  0.41800000000E+01 0.  1.
         -5    1    1    2    0  502 -0.12088652238E+02 -0.14242289057E+03 -0.53270670074E+01  0.14309530151E+03  0.41800000000E+01 0.  1.
        -11    1    1    2    0    0  0.37317997422E+02  0.15819108689E+02 -0.74185607361E+02  0.84536273107E+02  0.00000000000E+00 0.  1.
         11    1    1    2    0    0  0.12501834067E+02  0.15728450443E+03 -0.49938970075E+03  0.52372204880E+03  0.00000000000E+00 0. -1.
</event>
<event>
 6    1  0.4988969E-006  0.1732883E+03  0.7561462E-02  0.1174461E+00
         -3   -1    0    0    0  501 -0.00000000000E+00  0.00000000000E+00  0.28328248591E+03  0.28328248591E+03  0.00000000000E+00 0.  1.
          3   -1    0    0  501    0  0.00000000000E+00 -0.00000000000E+00 -0.15579126883E+03  0.15579126883E+03  0.00000000000E+00 0. -1.
          5    1    1    2  502    0 -0.94312518947E+02 -0.58380258996E+02  0.15348905831E+03  0.18941876700E+03  0.41800000000E+01 0. -1.
         -5    1    1    2    0  502 -0.12797764813E+02 -0.61767234687E+02 -0.40399658531E+01  0.63346411020E+02  0.41800000000E+01 0. -1.
        -11    1    1    2    0    0  0.31517301261E+02  0.81666640426E+02 -0.44978172439E+02  0.98416545526E+02  0.00000000000E+00 0. -1.
         11    1    1    2    0    0  0.75592982499E+02  0.38480853256E+02  0.23020297072E+02  0.87892031196E+02  0.00000000000E+00 0.  1.
</event>
<event>
 6    1  0.4988969E-006  0.9129005E+02  0.7561462E-02  0.1299757E+00
          2   -1    0    0  501    0  0.00000000000E+00  0.00000000000E+00  0.20172767724E+03  0.20172767724E+03  0.00000000000E+00 0. -1.
         -2   -1    0    0    0  501 -0.00000000000E+00 -0.00000000000E+00 -0.81987290004E+02  0.81987290004E+02  0.00000000000E+00 0.  1.
          5    1    1    2  502    0  0.34269473562E+02 -0.34026315716E+02 -0.36755445594E+02  0.60832739213E+02  0.41800000000E+01 0. -1.
         -5    1    1    2    0  502  0.24648215665E+02  0.17667479727E+01  0.85775473618E+02  0.89361961752E+02  0.41800000000E+01 0. -1.
        -11    1    1    2    0    0 -0.30955486866E+02 -0.28551738613E+02  0.10306289030E+02  0.43355086651E+02  0.00000000000E+00 0.  1.
         11    1    1    2    0    0 -0.27962202361E+02  0.60811306356E+02  0.60414070185E+02  0.90165179631E+02  0.00000000000E+00 0. -1.
</event>
<event>
 6    1  0.4988969E-006  0.1243864E+03  0.7561462E-02  0.1236031E+00
          2   -1    0    0  501    0  0.00000000000E+00  0.00000000000E+00  0.54586523175E+03  0.54586523175E+03  0.00000000000E+00 0. -1.
         -2   -1    0    0    0  501 -0.00000000000E+00 -0.00000000000E+00 -0.41572122496E+02  0.41572122496E+02  0.00000000000E+00 0.  1.
          5    1    1    2  502    0  0.34851351600E+02 -0.33260849680E+02  0.23058300775E+02  0.53572926600E+02  0.41800000000E+01 0.  1.
         -5    1    1    2    0  502 -0.68326461530E+02 -0.62825589637E+02  0.21213222352E+03  0.23158823958E+03  0.41800000000E+01 0.  1.
        -11    1    1    2    0    0  0.35063522562E+01  0.62062737915E+02  0.53673322083E+02  0.82127361136E+02  0.00000000000E+00 0.  1.
         11    1    1    2    0    0  0.29968757673E+02  0.34023701402E+02  0.21542926288E+03  0.22014882693E+03  0.00000000000E+00 0. -1.
</event>
<event>
 6    1  0.4988969E-006  0.7982544E+02  0.7561462E-02  0.1329548E+00
          2   -1    0    0  501    0  0.00000000000E+00  0.00000000000E+00  0.99380146073E+02  0.99380146073E+02  0.00000000000E+00 0. -1.
         -2   -1    0    0    0  501 -0.00000000000E+00 -0.00000000000E+00 -0.14295570668E+03  0.14295570668E+03  0.00000000000E+00 0.  1.
          5    1    1    2  502    0 -0.15588705651E+02  0.12309566152E+02 -0.68875837781E+02  0.71804502594E+02  0.41800000000E+01 0. -1.
         -5    1    1    2    0  502  0.13432082202E+02 -0.59428713353E+02  0.29135960675E+02  0.67665126967E+02  0.41800000000E+01 0. -1.
        -11    1    1    2    0    0 -0.27232076284E+02  0.62445429245E+01  0.30933983590E+02  0.41683229671E+02  0.00000000000E+00 0. -1.
         11    1    1    2    0    0  0.29388699733E+02  0.40874604276E+02 -0.34769667095E+02  0.61182993524E+02  0.00000000000E+00 0.  1.
</event>
<event>
 6    1  0.4988969E-006  0.1063539E+03  0.7561462E-02  0.1267475E+00
         -1   -1    0    0    0  501 -0.00000000000E+00  0.00000000000E+00  0.81413551751E+02  0.81413551751E+02  0.00000000000E+00 0.  1.
          1   -1    0    0  501    0  0.00000000000E+00 -0.00000000000E+00 -0.15928563509E+03  0.15928563509E+03  0.00000000000E+00 0. -1.
          5    1    1    2  502    0  0.36283264738E+02  0.50328089250E+02  0.68224596115E+01  0.62557255557E+02  0.41800000000E+01 0. -1.
         -5    1    1    2    0  502  0.12267009198E+02 -0.47933303107E+02 -0.41170404807E+02  0.64502369672E+02  0.41800000000E+01 0.  1.
        -11    1    1    2    0    0 -0.70105408323E+02  0.16706649514E+02 -0.44716256318E+02  0.84814055399E+02  0.00000000000E+00 0.  1.
         11    1    1    2    0    0  0.21555134386E+02 -0.19101435658E+02  0.11921181764E+01  0.28825506211E+02  0.00000000000E+00 0. -1.
</event>
<event>
 6    1  0.4988969E-006  0.8102902E+02  0.7561462E-02  0.1326156E+00
          2   -1    0    0  501    0  0.00000000000E+00  0.00000000000E+00  0.23177333614E+03  0.23177333614E+03  0.00000000000E+00 0. -1.
         -2   -1    0    0    0  501 -0.00000000000E+00 -0.00000000000E+00 -0.64745925768E+02  0.64745925768E+02  0.00000000000E+00 0.  1.
          5    1    1    2  502    0 -0.26699999229E+02  0.64930747595E+02  0.13012814025E+03  0.14791787325E+03  0.41800000000E+01 0. -1.
         -5    1    1    2    0  502 -0.16133590846E+02 -0.32089361377E+02 -0.56802030019E+01  0.36602690793E+02  0.41800000000E+01 0. -1.
        -11    1    1    2    0    0  0.20481282154E+02 -0.23948211853E+02 -0.25026089541E+02  0.40240588059E+02  0.00000000000E+00 0.  1.
         11    1    1    2    0    0  0.22352307920E+02 -0.88931743660E+01  0.67605562669E+02  0.71758109809E+02  0.00000000000E+00 0. -1.
</event>
<event>
 6    1  0.4988969E-006  0.5730507E+02  0.7561462E-02  0.1409502E+00
         -2   -1    0    0    0  501 -0.00000000000E+00  0.00000000000E+00  0.32463447591E+02  0.32463447591E+02  0.00000000000E+00 0.  1.
          2   -1    0    0  501    0  0.00000000000E+00 -0.00000000000E+00 -0.32731122360E+03  0.32731122360E+03  0.00000000000E+00 0. -1.
          5    1    1    2  502    0 -0.23029400964E+02 -0.59371668762E+01 -0.16581562008E+03  0.16756460104E+03  0.41800000000E+01 0. -1.
         -5    1    1    2    0  502  0.18111692809E+02  0.39445173729E+02  0.84154801848E+01  0.44409997227E+02  0.41800000000E+01 0.  1.
        -11    1    1    2    0    0 -0.13835904260E+02 -0.11928153557E+02 -0.20723878361E+02  0.27625933981E+02  0.00000000000E+00 0.  1.
         11    1    1    2    0    0  0.18753612415E+02 -0.21579853296E+02 -0.11672375776E+03  0.12017413895E+03  0.00000000000E+00 0. -1.
</event>
<event>
 6    1  0.4988969E-006  0.1215510E+03  0.7561462E-02  0.1240560E+00
         -1   -1    0    0    0  501 -0.00000000000E+00  0.00000000000E+00  0.28408745204E+02  0.28408745204E+02  0.00000000000E+00 0.  1.
          1   -1    0    0  501    0  0.00000000000E+00 -0.00000000000E+00 -0.71278247676E+03  0.71278247676E+03  0.00000000000E+00 0. -1.
          5    1    1    2  502    0 -0.19225315051E+02 -0.85527270680E+02 -0.36993656236E+03  0.38020397070E+03  0.41800000000E+01 0. -1.
         -5    1    1    2    0  502 -0.33691046511E+02  0.37772578157E+02 -0.46378726493E+02  0.68777270568E+02  0.41800000000E+01 0.  1.
        -11    1    1    2    0    0 -0.15791145110E+01  0.49987679071E+02 -0.65345417482E+02  0.82287819557E+02  0.00000000000E+00 0.  1.
         11    1    1    2    0    0  0.54495476073E+02 -0.22329865475E+01 -0.20271302523E+03  0.20992216114E+03  0.00000000000E+00 0. -1.
</event>
<event>
 6    1  0.4988969E-006  0.1104124E+03  0.7561462E-02  0.1259808E+00
         -1   -1    0    0    0  501 -0.00000000000E+00  0.00000000000E+00  0.26742082174E+03  0.26742082174E+03  0.00000000000E+00 0.  1.
          1   -1    0    0  501    0  0.00000000000E+00 -0.00000000000E+00 -0.83767127373E+02  0.83767127373E+02  0.00000000000E+00 0. -1.
          5    1    1    2  502    0  0.11893882595E+02 -0.54173710199E+02  0.99509475185E+02  0.11399940075E+03  0.41800000000E+01 0. -1.
         -5    1    1    2    0  502 -0.31386803156E+02  0.93896374166E+02  0.94264782674E+02  0.13676615863E+03  0.41800000000E+01 0.  1.
        -11    1    1    2    0    0 -0.15292186324E+02 -0.22737517995E+02 -0.42085752055E+02  0.50220077789E+02  0.00000000000E+00 0. -1.
         11    1    1    2    0    0  0.34785106885E+02 -0.16985145972E+02  0.31965188566E+02  0.50202311947E+02  0.00000000000E+00 0.  1.
</event>
<event>
 6    1  0.4988969E-006  0.1332749E+03  0.7561462E-02  0.1222676E+00
         -2   -1    0    0    0  501 -0.00000000000E+00  0.00000000000E+00  0.63378067109E+03  0.63378067109E+03  0.00000000000E+00 0. -1.
          2   -1    0    0  501    0  0.00000000000E+00 -0.00000000000E+00 -0.34274415139E+02  0.34274415139E+02  0.00000000000E+00 0.  1.
          5    1    1    2  502    0  0.98805632946E+02 -0.56496833711E+02  0.38488376747E+03  0.40138190316E+03  0.41800000000E+01 0.  1.
         -5    1    1    2    0  502 -0.13864385946E+02  0.26875651094E+02  0.38299607896E+02  0.48978099028E+02  0.41800000000E+01 0.  1.
        -11    1    1    2    0    0  0.12892737147E+02  0.20034435985E+02  0.13186568978E+02  0.27230257027E+02  0.00000000000E+00 0. -1.
         11    1    1    2    0    0 -0.97833984147E+02  0.95867466322E+01  0.16313631161E+03  0.19046482701E+03  0.00000000000E+00 0.  1.
</event>
<event>
 6    1  0.4988969E-006  0.1009294E+03  0.7561462E-02  0.1278354E+00
         -2   -1    0    0    0  501 -0.00000000000E+00  0.00000000000E+00  0.10521893445E+03  0.10521893445E+03  0.00000000000E+00 0.  1.
          2   -1    0    0  501    0  0.00000000000E+00 -0.00000000000E+00 -0.11810363170E+03  0.11810363170E+03  0.00000000000E+00 0. -1.
          5    1    1    2  502    0  0.28925187570E+02  0.38002557664E+02  0.33812722955E+02  0.58665437002E+02  0.41800000000E+01 0. -1.
         -5    1    1    2    0  502 -0.50732035934E+02 -0.31894919940E+02 -0.32825453682E+02  0.68454424236E+02  0.41800000000E+01 0. -1.
        -11    1    1    2    0    0  0.53463357474E+02  0.15326471580E+02 -0.24797696221E+00  0.55617378723E+02  0.00000000000E+00 0.  1.
         11    1    1    2    0    0 -0.31656509110E+02 -0.21434109304E+02 -0.13623989560E+02  0.40585326193E+02  0.00000000000E+00 0. -1.
</event>
<event>
 6    1  0.4988969E-006  0.1371978E+03  0.7561462E-02  0.1217150E+00
         -3   -1    0    0    0  501 -0.00000000000E+00  0.00000000000E+00  0.60073601408E+02  0.60073601408E+02  0.00000000000E+00 0.  1.
          3   -1    0    0  501    0  0.00000000000E+00 -0.00000000000E+00 -0.34625613243E+03  0.34625613243E+03  0.00000000000E+00 0. -1.
          5    1    1    2  502    0 -0.13281356394E+02 -0.35400140280E+02 -0.39136919774E+02  0.54577790803E+02  0.41800000000E+01 0. -1.
         -5    1    1    2    0  502 -0.43252551681E+02  0.10892748996E+03 -0.93837460889E+02  0.15019628079E+03  0.41800000000E+01 0. -1.
        -11    1    1    2    0    0  0.71452763208E+02 -0.38853274246E+02 -0.13934195705E+03  0.16134204438E+03  0.00000000000E+00 0.  1.
         11    1    1    2    0    0 -0.14918855132E+02 -0.34674075433E+02 -0.13866193311E+02  0.40213617874E+02  0.00000000000E+00 0. -1.
</event>
<event>
 6    1  0.4988969E-006  0.1023193E+03  0.7561462E-02  0.1275493E+00
         -2   -1    0    0    0  501 -0.00000000000E+00  0.00000000000E+00  0.57024023020E+02  0.57024023020E+02  0.00000000000E+00 0.  1.
          2   -1    0    0  501    0  0.00000000000E+00 -0.00000000000E+00 -0.22335740632E+03  0.22335740632E+03  0.00000000000E+00 0. -1.
          5    1    1    2  502    0 -0.55825900852E+02  0.68375329600E+01 -0.29237360280E+02  0.63526204822E+02  0.41800000000E+01 0.  1.
         -5    1    1    2    0  502  0.67643895010E+02 -0.15517415460E+02 -0.33570601326E+02  0.77207152442E+02  0.41800000000E+01 0.  1.
        -11    1    1    2    0    0 -0.77435912436E+01  0.43233127221E+02 -0.93718262148E+02  0.10349965775E+03  0.00000000000E+00 0. -1.
         11    1    1    2    0    0 -0.40744029145E+01 -0.34553244721E+02 -0.98071595457E+01  0.36148414325E+02  0.00000000000E+00 0.  1.
</event>
<event>
 6    1  0.4988969E-006  0.8869143E+02  0.7561462E-02  0.1306052E+00
          2   -1    0    0  501    0  0.00000000000E+00  0.00000000000E+00  0.42632536758E+02  0.42632536758E+02  0.00000000000E+00 0. -1.
         -2   -1    0    0    0  501 -0.00000000000E+00 -0.00000000000E+00 -0.49391888841E+03  0.49391888841E+03  0.00000000000E+00 0.  1.
          5    1    1    2  502    0  0.12311703393E+02 -0.13108454192E+02  0.28433541669E+01  0.18680649738E+02  0.41800000000E+01 0. -1.
         -5    1    1    2    0  502 -0.53038594566E+02 -0.21370896481E+02 -0.39208486745E+03  0.39625474560E+03  0.41800000000E+01 0.  1.
        -11    1    1    2    0    0  0.47095387070E+01 -0.28579550123E+02 -0.52790613200E+01  0.29442128464E+02  0.00000000000E+00 0.  1.
         11    1    1    2    0    0  0.36017352466E+02  0.63058900795E+02 -0.56765777045E+02  0.92173901359E+02  0.00000000000E+00 0. -1.
</event>
<event>
 6    1  0.4988969E-006  0.1093355E+03  0.7561462E-02  0.1261805E+00
          1   -1    0    0  501    0  0.00000000000E+00  0.00000000000E+00  0.42311941052E+02  0.42311941052E+02  0.00000000000E+00 0. -1.
         -1   -1    0    0    0  501 -0.00000000000E+00 -0.00000000000E+00 -0.41800441268E+03  0.41800441268E+03  0.00000000000E+00 0.  1.
          5    1    1    2  502    0  0.10805960444E+01 -0.58845962133E+02 -0.24650181717E+02  0.63946218073E+02  0.41800000000E+01 0. -1.
         -5    1    1    2    0  502 -0.54831800941E+02  0.39040538280E+01 -0.17770179907E+03  0.18605689942E+03  0.41800000000E+01 0. -1.
        -11    1    1    2    0    0  0.25320740467E+02  0.68507076313E+02 -0.65978061815E+02  0.98424915766E+02  0.00000000000E+00 0. -1.
         11    1    1    2    0    0  0.28430464429E+02 -0.13565168008E+02 -0.10736242902E+03  0.11188832047E+03  0.00000000000E+00 0.  1.
</event>
<event>
 6    1  0.4988969E-006  0.9590003E+02  0.7561462E-02  0.1289162E+00
         -1   -1    0    0    0  501 -0.00000000000E+00  0.00000000000E+00  0.13745114061E+03  0.13745114061E+03  0.00000000000E+00 0.  1.
          1   -1    0    0  501    0  0.00000000000E+00 -0.00000000000E+00 -0.12590254387E+03  0.12590254387E+03  0.00000000000E+00 0. -1.
          5    1    1    2  502    0 -0.42198331531E+02 -0.38149172125E+02  0.42119421089E+02  0.70905405652E+02  0.41800000000E+01 0.  1.
         -5    1    1    2    0  502 -0.18130162823E+02  0.13296537858E+02 -0.69031073643E+02  0.72720439020E+02  0.41800000000E+01 0.  1.
        -11    1    1    2    0    0 -0.37502177375E+01 -0.28355214477E+02  0.18552296348E+02  0.34092081498E+02  0.00000000000E+00 0.  1.
         11    1    1    2    0    0  0.64078712092E+02  0.53207848743E+02  0.19907952946E+02  0.85635758312E+02  0.00000000000E+00 0. -1.
</event>
<event>
 6    1  0.4988969E-006  0.1423112E+03  0.7561462E-02  0.1210252E+00
         -1   -1    0    0    0  501 -0.00000000000E+00  0.00000000000E+00  0.18300938373E+03  0.18300938373E+03  0.00000000000E+00 0. -1.
          1   -1    0    0  501    0  0.00000000000E+00 -0.00000000000E+00 -0.18972675358E+03  0.18972675358E+03  0.00000000000E+00 0.  1.
          5    1    1    2  502    0 -0.27540650723E+02 -0.73006113401E+02 -0.24143907218E+02  0.81784966173E+02  0.41800000000E+01 0.  1.
         -5    1    1    2    0  502 -0.39949465398E+02 -0.37105022779E+02  0.98741560190E+02  0.11287209846E+03  0.41800000000E+01 0.  1.
        -11    1    1    2    0    0 -0.23481326247E+00  0.75943442905E+02 -0.15190105045E+02  0.77448053228E+02  0.00000000000E+00 0.  1.
         11    1    1    2    0    0  0.67724929384E+02  0.34167693275E+02 -0.66124917776E+02  0.10063101945E+03  0.00000000000E+00 0. -1.
</event>
<event>
 6    1  0.4988969E-006  0.1108898E+03  0.7561462E-02  0.1258931E+00
         -2   -1    0    0    0  501 -0.00000000000E+00  0.00000000000E+00  0.13715419978E+03  0.13715419978E+03  0.00000000000E+00 0.  1.
          2   -1    0    0  501    0  0.00000000000E+00 -0.00000000000E+00 -0.15469946641E+03  0.15469946641E+03  0.00000000000E+00 0. -1.
          5    1    1    2  502    0 -0.64977578286E+02 -0.55928630030E+02 -0.42821492493E+00  0.85835616762E+02  0.41800000000E+01 0. -1.
         -5    1    1    2    0  502 -0.13482951179E+01  0.37271643329E+02  0.56002932632E+02  0.67415088515E+02  0.41800000000E+01 0. -1.
        -11    1    1    2    0    0  0.49183563355E+00  0.31362704892E+02  0.89575436502E+01  0.32620526493E+02  0.00000000000E+00 0.  1.
         11    1    1    2    0    0  0.65834037771E+02 -0.12705718192E+02 -0.82077527994E+02  0.10598243442E+03  0.00000000000E+00 0. -1.
</event>
<event>
 6    1  0.4988969E-006  0.9839818E+02  0.7561462E-02  0.1283701E+00
         -2   -1    0    0    0  501 -0.00000000000E+00  0.00000000000E+00  0.37523588069E+02  0.37523588069E+02  0.00000000000E+00 0.  1.
          2   -1    0    0  501    0  0.00000000000E+00 -0.00000000000E+00 -0.33637331033E+03  0.33637331033E+03  0.00000000000E+00 0. -1.
          5    1    1    2  502    0 -0.46121718817E+01 -0.42139594533E+02 -0.13351003973E+03  0.14014071737E+03  0.41800000000E+01 0. -1.
         -5    1    1    2    0  502  0.33847775221E+02  0.55500704912E+02 -0.41026228101E+02  0.76984569398E+02  0.41800000000E+01 0. -1.
        -11    1    1    2    0    0 -0.56200194520E+01  0.34888724287E+02 -0.23198072875E+02  0.42272429385E+02  0.00000000000E+00 0.  1.
         11    1    1    2    0    0 -0.23615583887E+02 -0.48249834665E+02 -0.10111538156E+03  0.11449918224E+03  0.00000000000E+00 0. -1.
</event>
<event>
 6    1  0.4988969E-006  0.1877123E+03  0.7561462E-02  0.1160541E+00
         -1   -1    0    0    0  501 -0.00000000000E+00  0.00000000000E+00  0.56668704922E+02  0.56668704922E+02  0.00000000000E+00 0.  1.
          1   -1    0    0  501    0  0.00000000000E+00 -0.00000000000E+00 -0.72726282717E+03  0.72726282717E+03  0.00000000000E+00 0. -1.
          5    1    1    2  502    0  0.10356858187E+03 -0.49204735719E+02 -0.25449524297E+03  0.27916457200E+03  0.41800000000E+01 0. -1.
         -5    1    1    2    0  502 -0.21992849112E+01 -0.88557637063E+02 -0.98426997057E+02  0.13248636943E+03  0.41800000000E+01 0. -1.
        -11    1    1    2    0    0 -0.26542829491E+02  0.50504734708E+02 -0.19919866140E+03  0.20720848615E+03  0.00000000000E+00 0. -1.
         11    1    1    2    0    0 -0.74826467468E+02  0.87257638074E+02 -0.11847322082E+03  0.16507210451E+03  0.00000000000E+00 0.  1.
</event>
<event>
 6    1  0.4988969E-006  0.1180601E+03  0.7561462E-02  0.1246332E+00
          2   -1    0    0  501    0  0.00000000000E+00  0.00000000000E+00  0.31806189618E+03  0.31806189618E+03  0.00000000000E+00 0. -1.
         -2   -1    0    0    0  501 -0.00000000000E+00 -0.00000000000E+00 -0.62285657676E+02  0.62285657676E+02  0.00000000000E+00 0.  1.
          5    1    1    2  502    0  0.51757201679E+01  0.44145075026E+02  0.11141113204E+03  0.12002286645E+03  0.41800000000E+01 0.  1.
         -5    1    1    2    0  502 -0.62978489268E+02  0.19021837821E+02 -0.35584413190E+01  0.66017083616E+02  0.41800000000E+01 0.  1.
        -11    1    1    2    0    0  0.79369261327E+02 -0.27733867516E+02  0.91272777911E+02  0.12409418616E+03  0.00000000000E+00 0.  1.
         11    1    1    2    0    0 -0.21566492227E+02 -0.35433045332E+02  0.56650769874E+02  0.70213417634E+02  0.00000000000E+00 0. -1.
</event>
<event>
 6    1  0.4988969E-006  0.1087122E+03  0.7561462E-02  0.1262973E+00
         -1   -1    0    0    0  501 -0.00000000000E+00  0.00000000000E+00  0.36915989697E+02  0.36915989697E+02  0.00000000000E+00 0.  1.
          1   -1    0    0  501    0  0.00000000000E+00 -0.00000000000E+00 -0.35250791428E+03  0.35250791428E+03  0.00000000000E+00 0. -1.
          5    1    1    2  502    0 -0.64929587286E+02 -0.25619235320E+02 -0.97166019288E+02  0.11971175476E+03  0.41800000000E+01 0. -1.
         -5    1    1    2    0  502  0.46843072191E+02  0.23509094782E+02 -0.34944614307E+02  0.63131207963E+02  0.41800000000E+01 0. -1.
        -11    1    1    2    0    0 -0.38358125742E+02 -0.12215703312E+01 -0.74866934883E+02  0.84130232279E+02  0.00000000000E+00 0.  1.
         11    1    1    2    0    0  0.56444640836E+02  0.33317108695E+01 -0.10861435610E+03  0.12245070897E+03  0.00000000000E+00 0. -1.
</event>
<event>
 6    1  0.4988969E-006  0.7630280E+02  0.7561462E-02  0.1339884E+00
         -2   -1    0    0    0  501 -0.00000000000E+00  0.00000000000E+00  0.21080873535E+02  0.21080873535E+02  0.00000000000E+00 0.  1.
          2   -1    0    0  501    0  0.00000000000E+00 -0.00000000000E+00 -0.71551604599E+03  0.71551604599E+03  0.00000000000E+00 0. -1.
          5    1    1    2  502    0 -0.20105018804E+02 -0.58686213010E+01 -0.28690811046E+03  0.28770190952E+03  0.41800000000E+01 0.  1.
         -5    1    1    2    0  502 -0.36749808390E+01 -0.36367307234E+02 -0.10029591865E+02  0.38133340171E+02  0.41800000000E+01 0.  1.
        -11    1    1    2    0    0  0.54110840283E+02  0.25541373134E+02 -0.32449215647E+03  0.32996288335E+03  0.00000000000E+00 0. -1.
         11    1    1    2    0    0 -0.30330840639E+02  0.16694555401E+02 -0.73005313658E+02  0.80798786477E+02  0.00000000000E+00 0.  1.
</event>
<event>
 6    1  0.4988969E-006  0.1097296E+03  0.7561462E-02  0.1261072E+00
         -2   -1    0    0    0  501 -0.00000000000E+00  0.00000000000E+00  0.25218138589E+02  0.25218138589E+02  0.00000000000E+00 0.  1.
          2   -1    0    0  501    0  0.00000000000E+00 -0.00000000000E+00 -0.66812167845E+03  0.66812167845E+03  0.00000000000E+00 0. -1.
          5    1    1    2  502    0 -0.32379287329E+02 -0.55402743059E+02 -0.18527540121E+03  0.19611815031E+03  0.41800000000E+01 0. -1.
         -5    1    1    2    0  502  0.53243761038E+02  0.10780421606E+02 -0.45618935492E+02  0.71061067083E+02  0.41800000000E+01 0. -1.
        -11    1    1    2    0    0  0.11122595641E+02 -0.23173582248E+02 -0.47361213961E+02  0.53887026601E+02  0.00000000000E+00 0.  1.
         11    1    1    2    0    0 -0.31987069350E+02  0.67795903701E+02 -0.36464798920E+03  0.37227357305E+03  0.00000000000E+00 0. -1.
</event>
<event>
 6    1  0.4988969E-006  0.1053420E+03  0.7561462E-02  0.1269447E+00
          1   -1    0    0  501    0  0.00000000000E+00  0.00000000000E+00  0.40050253946E+02  0.40050253946E+02  0.00000000000E+00 0. -1.
         -1   -1    0    0    0  501 -0.00000000000E+00 -0.00000000000E+00 -0.43495992583E+03  0.43495992583E+03  0.00000000000E+00 0.  1.
          5    1    1    2  502    0  0.62657831515E+02 -0.16630552607E+02 -0.18020834720E+03  0.19155965110E+03  0.41800000000E+01 0. -1.
         -5    1    1    2    0  502 -0.57451222256E+02  0.17621281463E+02 -0.16905813490E+03  0.17946943437E+03  0.41800000000E+01 0. -1.
        -11    1    1    2    0    0 -0.24564414556E+02  0.36088741183E+02 -0.22549383742E+01  0.43713755841E+02  0.00000000000E+00 0. -1.
         11    1    1    2    0    0  0.19357805297E+02 -0.37079470039E+02 -0.43388251407E+02  0.60267338455E+02  0.00000000000E+00 0.  1.
</event>
<event>
 6    1  0.4988969E-006  0.1208715E+03  0.7561462E-02  0.1241666E+00
         -1   -1    0    0    0  501 -0.00000000000E+00  0.00000000000E+00  0.24472182888E+03  0.24472182888E+03  0.00000000000E+00 0.  1.
          1   -1    0    0  501    0  0.00000000000E+00 -0.00000000000E+00 -0.69255919430E+02  0.69255919430E+02  0.00000000000E+00 0. -1.
          5    1    1    2  502    0  0.42414493205E+01 -0.28727447087E+02  0.62001394694E+02  0.68592284205E+02  0.41800000000E+01 0.  1.
         -5    1    1    2    0  502 -0.48445239789E+02  0.85523281096E+02  0.31223793818E+02  0.10321613521E+03  0.41800000000E+01 0.  1.
        -11    1    1    2    0    0 -0.72761682488E+00 -0.67768874539E+02  0.61357240872E+02  0.91421336624E+02  0.00000000000E+00 0. -1.
         11    1    1    2    0    0  0.44931407294E+02  0.10973040531E+02  0.20883480070E+02  0.50747992273E+02  0.00000000000E+00 0.  1.
</event>
<event>
 6    1  0.4988969E-006  0.1355357E+03  0.7561462E-02  0.1219465E+00
         -1   -1    0    0    0  501 -0.00000000000E+00  0.00000000000E+00  0.32414488848E+03  0.32414488848E+03  0.00000000000E+00 0.  1.
          1   -1    0    0  501    0  0.00000000000E+00 -0.00000000000E+00 -0.64661554896E+02  0.64661554896E+02  0.00000000000E+00 0. -1.
          5    1    1    2  502    0  0.64950530789E+01 -0.20056685269E+02  0.71632845719E+02  0.74787654892E+02  0.41800000000E+01 0.  1.
         -5    1    1    2    0  502 -0.25879718868E+02  0.12354433280E+03  0.89354705604E+02  0.15470842843E+03  0.41800000000E+01 0.  1.
        -11    1    1    2    0    0 -0.20351992038E+02 -0.12214620360E+02  0.30975911013E+02  0.39024448664E+02  0.00000000000E+00 0.  1.
         11    1    1    2    0    0  0.39736657827E+02 -0.91273027169E+02  0.67519871245E+02  0.12028591138E+03  0.00000000000E+00 0. -1.
</event>
<event>
 6    1  0.4988969E-006  0.1119576E+03  0.7561462E-02  0.1256987E+00
         -1   -1    0    0    0  501 -0.00000000000E+00  0.00000000000E+00  0.45546576098E+03  0.45546576098E+03  0.00000000000E+00 0. -1.
          1   -1    0    0  501    0  0.00000000000E+00 -0.00000000000E+00 -0.38123714396E+02  0.38123714396E+02  0.00000000000E+00 0.  1.
          5    1    1    2  502    0  0.15098191894E+02  0.45567268730E+02  0.79767702896E+02  0.93191685269E+02  0.41800000000E+01 0.  1.
         -5    1    1    2    0  502 -0.80957616078E+02 -0.42870581244E+02  0.21470671693E+03  0.23347048857E+03  0.41800000000E+01 0.  1.
        -11    1    1    2    0    0  0.42233091052E+02 -0.27004609962E+02  0.12770399937E+02  0.51729740514E+02  0.00000000000E+00 0.  1.
         11    1    1    2    0    0  0.23626333131E+02  0.24307922476E+02  0.11009722682E+03  0.11519756102E+03  0.00000000000E+00 0. -1.
</event>
<event>
 6    1  0.4988969E-006  0.1145587E+03  0.7561462E-02  0.1252353E+00
          2   -1    0    0  501    0  0.00000000000E+00  0.00000000000E+00  0.19187119578E+03  0.19187119578E+03  0.00000000000E+00 0.  1.
         -2   -1    0    0    0  501 -0.00000000000E+00 -0.00000000000E+00 -0.16017579886E+03  0.16017579886E+03  0.00000000000E+00 0. -1.
          5    1    1    2  502    0 -0.91732049769E+02 -0.21792268035E+02 -0.92069216663E+02  0.13184796152E+03  0.41800000000E+01 0. -1.
         -5    1    1    2    0  502  0.17747867547E+01  0.36992777625E+02  0.16115081036E+02  0.40605217660E+02  0.41800000000E+01 0. -1.
        -11    1    1    2    0    0  0.25085730227E+02 -0.20479016125E+02 -0.18751040602E+02  0.37420388642E+02  0.00000000000E+00 0. -1.
         11    1    1    2    0    0  0.64871532787E+02  0.52785065354E+01  0.12640057315E+03  0.14217342681E+03  0.00000000000E+00 0.  1.
</event>
<event>
 6    1  0.4988969E-006  0.8723280E+02  0.7561462E-02  0.1309695E+00
          1   -1    0    0  501    0  0.00000000000E+00  0.00000000000E+00  0.42681676742E+03  0.42681676742E+03  0.00000000000E+00 0. -1.
         -1   -1    0    0    0  501 -0.00000000000E+00 -0.00000000000E+00 -0.29590544769E+02  0.29590544769E+02  0.00000000000E+00 0.  1.
          5    1    1    2  502    0 -0.28439861550E+02 -0.24909380570E+02  0.42935007051E+01  0.38278055249E+02  0.41800000000E+01 0.  1.
         -5    1    1    2    0  502  0.40519781141E+02  0.21154104141E+02  0.17343852102E+03  0.17940942494E+03  0.41800000000E+01 0.  1.
        -11    1    1    2    0    0 -0.99328414354E+01 -0.42793284959E+02  0.13823673775E+03  0.14504937863E+03  0.00000000000E+00 0.  1.
         11    1    1    2    0    0 -0.21470781558E+01  0.46548561388E+02  0.81257463171E+02  0.93670453361E+02  0.00000000000E+00 0. -1.
</event>
<event>
 6    1  0.4988969E-006  0.4187848E+03  0.7561462E-02  0.1037463E+00
         -2   -1    0    0    0  501 -0.00000000000E+00  0.00000000000E+00  0.37951661816E+03  0.37951661816E+03  0.00000000000E+00 0.  1.
          2   -1    0    0  501    0  0.00000000000E+00 -0.00000000000E+00 -0.50750444194E+03  0.50750444194E+03  0.00000000000E+00 0. -1.
          5    1    1    2  502    0 -0.58194339109E+02  0.47424816094E+02 -0.44023109029E+01  0.75316313155E+02  0.41800000000E+01 0. -1.
         -5    1    1    2    0  502 -0.47093409705E+02  0.34713763948E+03  0.58524346233E+02  0.35519698969E+03  0.41800000000E+01 0. -1.
        -11    1    1    2    0    0  0.82320244967E+02 -0.20226317152E+03 -0.13656052907E+03  0.25755735552E+03  0.00000000000E+00 0. -1.
         11    1    1    2    0    0  0.22967503847E+02 -0.19229928406E+03 -0.45549330043E+02  0.19895040173E+03  0.00000000000E+00 0.  1.
</event>
<event>
 6    1  0.4988969E-006  0.1159149E+03  0.7561462E-02  0.1249992E+00
         -2   -1    0    0    0  501 -0.00000000000E+00  0.00000000000E+00  0.43765836515E+02  0.43765836515E+02  0.00000000000E+00 0.  1.
          2   -1    0    0  501    0  0.00000000000E+00 -0.00000000000E+00 -0.32344879024E+03  0.32344879024E+03  0.00000000000E+00 0. -1.
          5    1    1    2  502    0  0.85739219081E+02  0.25636571042E+02 -0.10092949554E+03  0.13495437353E+03  0.41800000000E+01 0. -1.
         -5    1    1    2    0  502 -0.37463542517E+02 -0.23440791487E+02 -0.44125191427E+02  0.62589876513E+02  0.41800000000E+01 0. -1.
        -11    1    1    2    0    0 -0.73050696122E+02 -0.19205438093E+01 -0.12110267847E+03  0.14144239614E+03  0.00000000000E+00 0. -1.
         11    1    1    2    0    0  0.24775019558E+02 -0.27523574513E+00 -0.13525588278E+02  0.28227980570E+02  0.00000000000E+00 0.  1.
</event>
<event>
 6    1  0.4988969E-006  0.9036909E+02  0.7561462E-02  0.1301960E+00
         -2   -1    0    0    0  501 -0.00000000000E+00  0.00000000000E+00  0.19300621391E+03  0.19300621391E+03  0.00000000000E+00 0. -1.
          2   -1    0    0  501    0  0.00000000000E+00 -0.00000000000E+00 -0.11359945591E+03  0.11359945591E+03  0.00000000000E+00 0.  1.
          5    1    1    2  502    0 -0.78283834651E+02 -0.30514841137E+02  0.13735995621E+02  0.85238865977E+02  0.41800000000E+01 0.  1.
         -5    1    1    2    0  502  0.50933909886E+01  0.15472772259E+02  0.95239207977E+02  0.96712607499E+02  0.41800000000E+01 0.  1.
        -11    1    1    2    0    0  0.50249770207E+02 -0.33956304739E+01  0.29707900664E+02  0.58473319335E+02  0.00000000000E+00 0. -1.
         11    1    1    2    0    0  0.22940673456E+02  0.18437699353E+02 -0.59276346256E+02  0.66180877008E+02  0.00000000000E+00 0.  1.
</event>
<event>
 6    1  0.6573177E-006  0.2055551E+03  0.7561462E-02  0.1145135E+00
         -1   -1    0    0    0  501 -0.00000000000E+00  0.00000000000E+00  0.51523392301E+02  0.51523392301E+02  0.00000000000E+00 0.  1.
          1   -1    0    0  501    0  0.00000000000E+00 -0.00000000000E+00 -0.12113126072E+04  0.12113126072E+04  0.00000000000E+00 0. -1.
          5    1    1    2  502    0  0.45739995760E+02 -0.20341437246E+01 -0.45197681343E+02  0.64471604227E+02  0.41800000000E+01 0.  1.
         -5    1    1    2    0  502 -0.45754983338E+01 -0.17128540734E+03 -0.20090399242E+03  0.26408239723E+03  0.41800000000E+01 0.  1.
        -11    1    1    2    0    0 -0.29999139296E+01  0.14779120716E+03 -0.64710270509E+03  0.66377191213E+03  0.00000000000E+00 0.  1.
         11    1    1    2    0    0 -0.38164583496E+02  0.25528343908E+02 -0.26658483609E+03  0.27051008596E+03  0.00000000000E+00 0. -1.
</event>
<event>
 6    1  0.4988969E-006  0.1003388E+03  0.7561462E-02  0.1279585E+00
          1   -1    0    0  501    0  0.00000000000E+00  0.00000000000E+00  0.29180941308E+03  0.29180941308E+03  0.00000000000E+00 0. -1.
         -1   -1    0    0    0  501 -0.00000000000E+00 -0.00000000000E+00 -0.41691788923E+02  0.41691788923E+02  0.00000000000E+00 0.  1.
          5    1    1    2  502    0  0.64296110959E+02  0.17323149166E+02  0.75372996611E+02  0.10066102721E+03  0.41800000000E+01 0. -1.
         -5    1    1    2    0  502 -0.49414334274E+02 -0.34180440860E+02  0.59705183107E+02  0.84807194618E+02  0.41800000000E+01 0. -1.
        -11    1    1    2    0    0  0.11741652988E+02 -0.22984605417E+02  0.27618163043E+01  0.25957390670E+02  0.00000000000E+00 0.  1.
         11    1    1    2    0    0 -0.26623429673E+02  0.39841897111E+02  0.11227762813E+03  0.12207558950E+03  0.00000000000E+00 0. -1.
</event>
<event>
 6    1  0.4988969E-006  0.1566259E+03  0.7561462E-02  0.1192560E+00
          4   -1    0    0  501    0  0.00000000000E+00  0.00000000000E+00  0.16334407475E+03  0.16334407475E+03  0.00000000000E+00 0. -1.
         -4   -1    0    0    0  501 -0.00000000000E+00 -0.00000000000E+00 -0.16375326373E+03  0.16375326373E+03  0.00000000000E+00 0.  1.
          5    1    1    2  502    0  0.98109248209E+02 -0.53195784942E+02 -0.11048567324E+02  0.11222637551E+03  0.41800000000E+01 0.  1.
         -5    1    1    2    0  502  0.23154459244E+02  0.57660957703E+02  0.16658447533E+01  0.62298976436E+02  0.41800000000E+01 0.  1.
        -11    1    1    2    0    0 -0.46053432561E+02  0.31631374712E+02 -0.26601193113E+02  0.61879608853E+02  0.00000000000E+00 0.  1.
         11    1    1    2    0    0 -0.75210274892E+02 -0.36096547473E+02  0.35574726704E+02  0.90692377677E+02  0.00000000000E+00 0. -1.
</event>
<event>
 6    1  0.4988969E-006  0.1692903E+03  0.7561462E-02  0.1178590E+00
          1   -1    0    0  501    0  0.00000000000E+00  0.00000000000E+00  0.48221434751E+03  0.48221434751E+03  0.00000000000E+00 0. -1.
         -1   -1    0    0    0  501 -0.00000000000E+00 -0.00000000000E+00 -0.76561697911E+02  0.76561697911E+02  0.00000000000E+00 0.  1.
          5    1    1    2  502    0 -0.52996813359E+02 -0.13026230715E+01  0.29781479633E+02  0.60948896480E+02  0.41800000000E+01 0.  1.
         -5    1    1    2    0  502  0.11880305645E+02 -0.13717536969E+03  0.91793045365E+02  0.16553446557E+03  0.41800000000E+01 0.  1.
        -11    1    1    2    0    0  0.12823451406E+01  0.56428045282E+02  0.20149939611E+03  0.20925528747E+03  0.00000000000E+00 0. -1.
         11    1    1    2    0    0  0.39834162573E+02  0.82049947484E+02  0.82578728488E+02  0.12303739590E+03  0.00000000000E+00 0.  1.
</event>
<event>
 6    1  0.4988969E-006  0.2334544E+03  0.7561462E-02  0.1124232E+00
          2   -1    0    0  501    0  0.00000000000E+00  0.00000000000E+00  0.59155996886E+03  0.59155996886E+03  0.00000000000E+00 0. -1.
         -2   -1    0    0    0  501 -0.00000000000E+00 -0.00000000000E+00 -0.93084816015E+02  0.93084816015E+02  0.00000000000E+00 0.  1.
          5    1    1    2  502    0 -0.54668884648E+02 -0.14058292437E+03  0.15408267454E+03  0.21566452783E+03  0.41800000000E+01 0. -1.
         -5    1    1    2    0  502 -0.90809659710E+02 -0.74619280286E+01  0.10531893163E+03  0.13932560578E+03  0.41800000000E+01 0. -1.
        -11    1    1    2    0    0  0.12262318927E+03  0.65236801053E+02  0.16929075395E+03  0.21897864309E+03  0.00000000000E+00 0. -1.
         11    1    1    2    0    0  0.22855355092E+02  0.82808051343E+02  0.69782792729E+02  0.11067600817E+03  0.00000000000E+00 0.  1.
</event>
<event>
 6    1  0.4988969E-006  0.1440705E+03  0.7561462E-02  0.1207954E+00
          2   -1    0    0  501    0  0.00000000000E+00  0.00000000000E+00  0.37472026848E+03  0.37472026848E+03  0.00000000000E+00 0. -1.
         -2   -1    0    0    0  501 -0.00000000000E+00 -0.00000000000E+00 -0.55888266885E+02  0.55888266885E+02  0.00000000000E+00 0.  1.
          5    1    1    2  502    0 -0.32512604970E+02  0.84490471559E+02  0.88588227877E+02  0.12673222078E+03  0.41800000000E+01 0.  1.
         -5    1    1    2    0  502 -0.52530526507E+02 -0.40993309985E+02  0.65817233273E+02  0.93751204122E+02  0.41800000000E+01 0.  1.
        -11    1    1    2    0    0  0.87998321712E+01 -0.53172693333E+02  0.64195601134E+02  0.83820329083E+02  0.00000000000E+00 0. -1.
         11    1    1    2    0    0  0.76243299305E+02  0.96755317591E+01  0.10023093932E+03  0.12630478138E+03  0.00000000000E+00 0.  1.
</event>
<event>
 6    1  0.4988969E-006  0.1508525E+03  0.7561462E-02  0.1199429E+00
         -1   -1    0    0    0  501 -0.00000000000E+00  0.00000000000E+00  0.58764793392E+02  0.58764793392E+02  0.00000000000E+00 0.  1.
          1   -1    0    0  501    0  0.00000000000E+00 -0.00000000000E+00 -0.51524111099E+03  0.51524111099E+03  0.00000000000E+00 0. -1.
          5    1    1    2  502    0 -0.51276678035E+01  0.37855771356E+02 -0.50802040550E+01  0.38763813993E+02  0.41800000000E+01 0.  1.
         -5    1    1    2    0  502  0.11626507154E+03 -0.37959081518E+02 -0.10776157541E+03  0.16305976900E+03  0.41800000000E+01 0.  1.
        -11    1    1    2    0    0 -0.44692622062E+02 -0.42739902827E+02 -0.12023069228E+03  0.13520188285E+03  0.00000000000E+00 0.  1.
         11    1    1    2    0    0 -0.66444781674E+02  0.42843212989E+02 -0.22340384585E+03  0.23698043854E+03  0.00000000000E+00 0. -1.
</event>
<event>
 6    1  0.4988969E-006  0.1311666E+03  0.7561462E-02  0.1225735E+00
         -1   -1    0    0    0  501 -0.00000000000E+00  0.00000000000E+00  0.39184161933E+02  0.39184161933E+02  0.00000000000E+00 0.  1.
          1   -1    0    0  501    0  0.00000000000E+00 -0.00000000000E+00 -0.51030359494E+03  0.51030359494E+03  0.00000000000E+00 0. -1.
          5    1    1    2  502    0 -0.80824218226E+02  0.32189876107E+02 -0.11363047785E+03  0.14317157634E+03  0.41800000000E+01 0.  1.
         -5    1    1    2    0  502  0.71268090694E+01 -0.58732262958E+02 -0.54486915132E+02  0.80539222993E+02  0.41800000000E+01 0.  1.
        -11    1    1    2    0    0  0.53086186520E+02 -0.26271005733E+02 -0.19503084297E+03  0.20382673684E+03  0.00000000000E+00 0. -1.
         11    1    1    2    0    0  0.20611222637E+02  0.52813392583E+02 -0.10797119706E+03  0.12195022070E+03  0.00000000000E+00 0.  1.
</event>
<event>
 6    1  0.4988969E-006  0.9504180E+02  0.7561462E-02  0.1291082E+00
          1   -1    0    0  501    0  0.00000000000E+00  0.00000000000E+00  0.22398602162E+03  0.22398602162E+03  0.00000000000E+00 0. -1.
         -1   -1    0    0    0  501 -0.00000000000E+00 -0.00000000000E+00 -0.57634483681E+02  0.57634483681E+02  0.00000000000E+00 0.  1.
          5    1    1    2  502    0  0.36123018430E+02  0.47764613873E+01  0.97300404210E+02  0.10398330685E+03  0.41800000000E+01 0.  1.
         -5    1    1    2    0  502 -0.50780468609E+02 -0.25765954553E+02  0.91146346281E+00  0.57103796475E+02  0.41800000000E+01 0.  1.
        -11    1    1    2    0    0  0.34384257499E+02  0.50330709528E+02  0.28106115733E+02  0.67122360111E+02  0.00000000000E+00 0.  1.
         11    1    1    2    0    0 -0.19726807319E+02 -0.29341216363E+02  0.40033554532E+02  0.53411041865E+02  0.00000000000E+00 0. -1.
</event>
<event>
 6    1  0.4988969E-006  0.2693564E+03  0.7561462E-02  0.1101649E+00
         -1   -1    0    0    0  501 -0.00000000000E+00  0.00000000000E+00  0.30338949322E+03  0.30338949322E+03  0.00000000000E+00 0. -1.
          1   -1    0    0  501    0  0.00000000000E+00 -0.00000000000E+00 -0.27800073048E+03  0.27800073048E+03  0.00000000000E+00 0.  1.
          5    1    1    2  502    0  0.36652042929E+01 -0.10253771841E+03  0.92539972078E+02  0.13823362924E+03  0.41800000000E+01 0.  1.
         -5    1    1    2    0  502 -0.53689438369E+02 -0.15383724870E+03 -0.88519723704E+01  0.16323077129E+03  0.41800000000E+01 0.  1.
        -11    1    1    2    0    0  0.66137868942E+02  0.24375013725E+03 -0.48286848211E+02  0.25713803069E+03  0.00000000000E+00 0. -1.
         11    1    1    2    0    0 -0.16113634865E+02  0.12624829867E+02 -0.10012388760E+02  0.22787792487E+02  0.00000000000E+00 0.  1.
</event>
<event>
 6    1  0.4988969E-006  0.1232658E+03  0.7561462E-02  0.1237805E+00
         -1   -1    0    0    0  501 -0.00000000000E+00  0.00000000000E+00  0.37502674386E+02  0.37502674386E+02  0.00000000000E+00 0.  1.
          1   -1    0    0  501    0  0.00000000000E+00 -0.00000000000E+00 -0.40960503569E+03  0.40960503569E+03  0.00000000000E+00 0. -1.
          5    1    1    2  502    0  0.86353181680E+01 -0.40235351327E+02 -0.80909395927E+02  0.90869439117E+02  0.41800000000E+01 0. -1.
         -5    1    1    2    0  502  0.16036387932E+02  0.94803046860E+02 -0.13660689361E+03  0.16710385756E+03  0.41800000000E+01 0. -1.
        -11    1    1    2    0    0 -0.56676638291E+02 -0.16164794182E+02 -0.80939322785E+02  0.10012350309E+03  0.00000000000E+00 0. -1.
         11    1    1    2    0    0  0.32004932190E+02 -0.38402901351E+02 -0.73646748987E+02  0.89010910304E+02  0.00000000000E+00 0.  1.
</event>
<event>
 6    1  0.4988969E-006  0.1264134E+03  0.7561462E-02  0.1232877E+00
          2   -1    0    0  501    0  0.00000000000E+00  0.00000000000E+00  0.25770614893E+03  0.25770614893E+03  0.00000000000E+00 0.  1.
         -2   -1    0    0    0  501 -0.00000000000E+00 -0.00000000000E+00 -0.11251197125E+03  0.11251197125E+03  0.00000000000E+00 0. -1.
          5    1    1    2  502    0  0.74858984161E+01  0.33568335403E+01  0.45191295653E+02  0.46119763760E+02  0.41800000000E+01 0.  1.
         -5    1    1    2    0  502  0.12806283739E+02 -0.11091850485E+03 -0.44043155714E+02  0.12010073932E+03  0.41800000000E+01 0.  1.
        -11    1    1    2    0    0 -0.34757305523E+02  0.14424003925E+02  0.84523348979E+02  0.92521990354E+02  0.00000000000E+00 0.  1.
         11    1    1    2    0    0  0.14465123368E+02  0.93137667381E+02  0.59522688770E+02  0.11147562674E+03  0.00000000000E+00 0. -1.
</event>
<event>
 6    1  0.4988969E-006  0.2725750E+03  0.7561462E-02  0.1099815E+00
         -2   -1    0    0    0  501 -0.00000000000E+00  0.00000000000E+00  0.36416257306E+02  0.36416257306E+02  0.00000000000E+00 0.  1.
          2   -1    0    0  501    0  0.00000000000E+00 -0.00000000000E+00 -0.21700824664E+04  0.21700824664E+04  0.00000000000E+00 0. -1.
          5    1    1    2  502    0  0.83232517598E+02  0.15365326040E+03 -0.66814952888E+03  0.69063611385E+03  0.41800000000E+01 0. -1.
         -5    1    1    2    0  502  0.10424171360E+03  0.21530577371E+02 -0.28123213170E+03  0.30073058527E+03  0.41800000000E+01 0. -1.
        -11    1    1    2    0    0 -0.87939044473E+02 -0.12368089688E+03 -0.82263915596E+03  0.83651982685E+03  0.00000000000E+00 0. -1.
         11    1    1    2    0    0 -0.99535186722E+02 -0.51502940893E+02 -0.36164539258E+03  0.37861219776E+03  0.00000000000E+00 0.  1.
</event>
<event>
 6    1  0.4988969E-006  0.2507318E+03  0.7561462E-02  0.1112843E+00
          2   -1    0    0  501    0  0.00000000000E+00  0.00000000000E+00  0.63851618887E+03  0.63851618887E+03  0.00000000000E+00 0. -1.
         -2   -1    0    0    0  501 -0.00000000000E+00 -0.00000000000E+00 -0.18366552390E+03  0.18366552390E+03  0.00000000000E+00 0.  1.
          5    1    1    2  502    0  0.14600363624E+02 -0.20571087138E+03  0.37714205862E+03  0.42986479037E+03  0.41800000000E+01 0. -1.
         -5    1    1    2    0  502 -0.30248620137E+02  0.20056922627E+03 -0.72884176705E+02  0.21557497341E+03  0.41800000000E+01 0.  1.
        -11    1    1    2    0    0  0.42991536851E+02  0.32300394500E+02  0.93470762489E+02  0.10783492554E+03  0.00000000000E+00 0.  1.
         11    1    1    2    0    0 -0.27343280337E+02 -0.27158749385E+02  0.57122020564E+02  0.68907023453E+02  0.00000000000E+00 0. -1.
</event>
<event>
 6    1  0.4988969E-006  0.9089461E+02  0.7561462E-02  0.1300700E+00
          2   -1    0    0  501    0  0.00000000000E+00  0.00000000000E+00  0.55884926816E+03  0.55884926816E+03  0.00000000000E+00 0. -1.
         -2   -1    0    0    0  501 -0.00000000000E+00 -0.00000000000E+00 -0.24436677756E+02  0.24436677756E+02  0.00000000000E+00 0.  1.
          5    1    1    2  502    0  0.24970966736E+02 -0.52763158894E+02  0.15476362278E+03  0.16545921386E+03  0.41800000000E+01 0. -1.
         -5    1    1    2    0  502 -0.11133994219E+02  0.26871390250E+02  0.35302540800E+01  0.29596833194E+02  0.41800000000E+01 0.  1.
        -11    1    1    2    0    0 -0.21215582086E+02 -0.30419929028E+02  0.10888343252E+03  0.11502640950E+03  0.00000000000E+00 0. -1.
         11    1    1    2    0    0  0.73786095683E+01  0.56311697671E+02  0.26723528103E+03  0.27320348936E+03  0.00000000000E+00 0.  1.
</event>
<event>
 6    1  0.4988969E-006  0.9577824E+02  0.7561462E-02  0.1289433E+00
         -1   -1    0    0    0  501 -0.00000000000E+00  0.00000000000E+00  0.78706873958E+02  0.78706873958E+02  0.00000000000E+00 0.  1.
          1   -1    0    0  501    0  0.00000000000E+00 -0.00000000000E+00 -0.29517015211E+03  0.29517015211E+03  0.00000000000E+00 0. -1.
          5    1    1    2  502    0  0.25784949675E+02 -0.52583983298E+01 -0.44680013126E+02  0.52022017989E+02  0.41800000000E+01 0.  1.
         -5    1    1    2    0  502 -0.56091013212E+02  0.64697427877E+02  0.29252038109E+02  0.90582079191E+02  0.41800000000E+01 0.  1.
        -11    1    1    2    0    0 -0.38274657681E+01 -0.39431786990E+02 -0.18396512120E+03  0.18818257395E+03  0.00000000000E+00 0.  1.
         11    1    1    2    0    0  0.34133529305E+02 -0.20007242557E+02 -0.17070181937E+02  0.43090354941E+02  0.00000000000E+00 0. -1.
</event>
<event>
 6    1  0.4988969E-006  0.9286609E+02  0.7561462E-02  0.1296056E+00
         -2   -1    0    0    0  501 -0.00000000000E+00  0.00000000000E+00  0.98897944426E+02  0.98897944426E+02  0.00000000000E+00 0.  1.
          2   -1    0    0  501    0  0.00000000000E+00 -0.00000000000E+00 -0.16019872884E+03  0.16019872884E+03  0.00000000000E+00 0. -1.
          5    1    1    2  502    0  0.43708225607E+02 -0.31000605187E+02  0.36200999982E+02  0.64803019277E+02  0.41800000000E+01 0. -1.
         -5    1    1    2    0  502  0.25080911047E+01  0.60915819352E+02 -0.37857914273E+02  0.71886866961E+02  0.41800000000E+01 0. -1.
        -11    1    1    2    0    0  0.89991519565E+01 -0.50203685470E+01 -0.60959501943E+02  0.61824345636E+02  0.00000000000E+00 0. -1.
         11    1    1    2    0    0 -0.55215468668E+02 -0.24894845618E+02  0.13156318152E+01  0.60582441397E+02  0.00000000000E+00 0.  1.
</event>
<event>
 6    1  0.4988969E-006  0.1117823E+03  0.7561462E-02  0.1257304E+00
         -3   -1    0    0    0  501 -0.00000000000E+00  0.00000000000E+00  0.46846330814E+02  0.46846330814E+02  0.00000000000E+00 0.  1.
          3   -1    0    0  501    0  0.00000000000E+00 -0.00000000000E+00 -0.34847773031E+03  0.34847773031E+03  0.00000000000E+00 0. -1.
          5    1    1    2  502    0  0.25635137329E+02 -0.32977774618E+02 -0.90268753770E+02  0.99552067743E+02  0.41800000000E+01 0.  1.
         -5    1    1    2    0  502  0.13386199453E+02  0.84450179104E+02 -0.49792055134E+02  0.99034055965E+02  0.41800000000E+01 0.  1.
        -11    1    1    2    0    0 -0.25748335871E+02 -0.69199373100E+02 -0.15787373765E+03  0.17428610695E+03  0.00000000000E+00 0. -1.
         11    1    1    2    0    0 -0.13273000911E+02  0.17726968613E+02 -0.36968529409E+01  0.22451830462E+02  0.00000000000E+00 0.  1.
</event>
<event>
 6    1  0.4988969E-006  0.9712326E+02  0.7561462E-02  0.1286464E+00
         -2   -1    0    0    0  501 -0.00000000000E+00  0.00000000000E+00  0.33306769923E+02  0.33306769923E+02  0.00000000000E+00 0. -1.
          2   -1    0    0  501    0  0.00000000000E+00 -0.00000000000E+00 -0.42633452585E+03  0.42633452585E+03  0.00000000000E+00 0.  1.
          5    1    1    2  502    0 -0.25306960678E+02 -0.25885906483E+02 -0.13186658010E+02  0.38754132201E+02  0.41800000000E+01 0.  1.
         -5    1    1    2    0  502  0.51751048499E+02  0.64364861879E+02 -0.15813295040E+03  0.17845029803E+03  0.41800000000E+01 0.  1.
        -11    1    1    2    0    0  0.11628346373E+02 -0.34997167260E+02 -0.18763704175E+03  0.19122677530E+03  0.00000000000E+00 0.  1.
         11    1    1    2    0    0 -0.38072434194E+02 -0.34817881370E+01 -0.34071105768E+02  0.51210090240E+02  0.00000000000E+00 0. -1.
</event>
<event>
 6    1  0.4988969E-006  0.1099364E+03  0.7561462E-02  0.1260688E+00
         -1   -1    0    0    0  501 -0.00000000000E+00  0.00000000000E+00  0.18775622350E+03  0.18775622350E+03  0.00000000000E+00 0.  1.
          1   -1    0    0  501    0  0.00000000000E+00 -0.00000000000E+00 -0.91655398064E+02  0.91655398064E+02  0.00000000000E+00 0. -1.
          5    1    1    2  502    0  0.78021842469E+02  0.12237769946E+02  0.10395134380E+03  0.13061594540E+03  0.41800000000E+01 0. -1.
         -5    1    1    2    0  502 -0.41687804690E+02  0.13543606277E+02  0.11916654071E+02  0.45615582591E+02  0.41800000000E+01 0. -1.
        -11    1    1    2    0    0 -0.37997709369E+02 -0.55351113022E+02  0.76448925358E+00  0.67142803590E+02  0.00000000000E+00 0.  1.
         11    1    1    2    0    0  0.16636715903E+01  0.29569736799E+02 -0.20531661688E+02  0.36037289981E+02  0.00000000000E+00 0. -1.
</event>
<event>
 6    1  0.4988969E-006  0.1168097E+03  0.7561462E-02  0.1248455E+00
         -2   -1    0    0    0  501 -0.00000000000E+00  0.00000000000E+00  0.46160503692E+02  0.46160503692E+02  0.00000000000E+00 0. -1.
          2   -1    0    0  501    0  0.00000000000E+00 -0.00000000000E+00 -0.45823351877E+03  0.45823351877E+03  0.00000000000E+00 0.  1.
          5    1    1    2  502    0  0.45645123326E+02 -0.17205768976E+02 -0.45757910713E+02  0.67013241694E+02  0.41800000000E+01 0.  1.
         -5    1    1    2    0  502 -0.60288336954E+02 -0.71736402322E+02 -0.24016829373E+03  0.25783536745E+03  0.41800000000E+01 0.  1.
        -11    1    1    2    0    0  0.79572876252E+01  0.18983512251E+02 -0.10376958134E+03  0.10579138989E+03  0.00000000000E+00 0.  1.
         11    1    1    2    0    0  0.66859260025E+01  0.69958659046E+02 -0.22377229297E+02  0.73754023436E+02  0.00000000000E+00 0. -1.
</event>
<event>
 6    1  0.4988969E-006  0.1171341E+03  0.7561462E-02  0.1247901E+00
         -2   -1    0    0    0  501 -0.00000000000E+00  0.00000000000E+00  0.48325325833E+02  0.48325325833E+02  0.00000000000E+00 0. -1.
          2   -1    0    0  501    0  0.00000000000E+00 -0.00000000000E+00 -0.35496319200E+03  0.35496319200E+03  0.00000000000E+00 0.  1.
          5    1    1    2  502    0 -0.41470678925E+02 -0.67226430317E+01 -0.50960925705E+02  0.66177786972E+02  0.41800000000E+01 0. -1.
         -5    1    1    2    0  502  0.90565567797E+02 -0.47022317688E+02 -0.15025943125E+03  0.18168266156E+03  0.41800000000E+01 0. -1.
        -11    1    1    2    0    0 -0.20903991542E+02 -0.77299409987E+01  0.77461862263E+01  0.23595174322E+02  0.00000000000E+00 0. -1.
         11    1    1    2    0    0 -0.28190897330E+02  0.61474901718E+02 -0.11316369543E+03  0.13183289497E+03  0.00000000000E+00 0.  1.
</event>
<event>
 6    1  0.4988969E-006  0.1038310E+03  0.7561462E-02  0.1272440E+00
         -1   -1    0    0    0  501 -0.00000000000E+00  0.00000000000E+00  0.69009351749E+03  0.69009351749E+03  0.00000000000E+00 0.  1.
          1   -1    0    0  501    0  0.00000000000E+00 -0.00000000000E+00 -0.19137179031E+02  0.19137179031E+02  0.00000000000E+00 0. -1.
          5    1    1    2  502    0  0.77796367029E+02  0.14958668386E+02  0.23629914356E+03  0.24926049452E+03  0.41800000000E+01 0. -1.
         -5    1    1    2    0  502 -0.49521695912E+02  0.94533127468E+01  0.18603153116E+03  0.19278736077E+03  0.41800000000E+01 0. -1.
        -11    1    1    2    0    0  0.11203882994E+02 -0.35097485696E+02  0.20125375452E+03  0.20459822630E+03  0.00000000000E+00 0.  1.
         11    1    1    2    0    0 -0.39478554111E+02  0.10685504563E+02  0.47371909225E+02  0.62584614931E+02  0.00000000000E+00 0. -1.
</event>
<event>
 6    1  0.4988969E-006  0.8364916E+02  0.7561462E-02  0.1319003E+00
          1   -1    0    0  501    0  0.00000000000E+00  0.00000000000E+00  0.10166559207E+03  0.10166559207E+03  0.00000000000E+00 0. -1.
         -1   -1    0    0    0  501 -0.00000000000E+00 -0.00000000000E+00 -0.15523554036E+03  0.15523554036E+03  0.00000000000E+00 0.  1.
          5    1    1    2  502    0 -0.29116317327E+02  0.48604427136E+02 -0.76951001919E+02  0.95650820009E+02  0.41800000000E+01 0. -1.
         -5    1    1    2    0  502  0.45767741731E+02  0.63046083748E+01  0.28610195375E+02  0.54501834367E+02  0.41800000000E+01 0.  1.
        -11    1    1    2    0    0 -0.24338532530E+02 -0.47740579201E+02 -0.42265947583E+02  0.68249083461E+02  0.00000000000E+00 0.  1.
         11    1    1    2    0    0  0.76871081262E+01 -0.71684563095E+01  0.37036805839E+02  0.38499394593E+02  0.00000000000E+00 0. -1.
</event>
<event>
 6    1  0.4988969E-006  0.1470430E+03  0.7561462E-02  0.1204154E+00
         -2   -1    0    0    0  501 -0.00000000000E+00  0.00000000000E+00  0.17545210278E+03  0.17545210278E+03  0.00000000000E+00 0.  1.
          2   -1    0    0  501    0  0.00000000000E+00 -0.00000000000E+00 -0.18100681944E+03  0.18100681944E+03  0.00000000000E+00 0. -1.
          5    1    1    2  502    0  0.47436809863E+02  0.10049168179E+02 -0.42025858620E+01  0.48850494767E+02  0.41800000000E+01 0. -1.
         -5    1    1    2    0  502 -0.86158335539E+01 -0.92332771544E+02  0.83960716493E+02  0.12516568061E+03  0.41800000000E+01 0. -1.
        -11    1    1    2    0    0 -0.66628431590E+02  0.99599284488E+02 -0.89296964054E+02  0.14944334430E+03  0.00000000000E+00 0.  1.
         11    1    1    2    0    0  0.27807455281E+02 -0.17315681123E+02  0.39841167663E+01  0.32999402546E+02  0.00000000000E+00 0. -1.
</event>
<event>
 6    1  0.4988969E-006  0.1244635E+03  0.7561462E-02  0.1235910E+00
         -1   -1    0    0    0  501 -0.00000000000E+00  0.00000000000E+00  0.11740745069E+03  0.11740745069E+03  0.00000000000E+00 0.  1.
          1   -1    0    0  501    0  0.00000000000E+00 -0.00000000000E+00 -0.23485380949E+03  0.23485380949E+03  0.00000000000E+00 0. -1.
          5    1    1    2  502    0 -0.46666622908E+02  0.52766564646E+02 -0.55643748437E+02  0.89865361393E+02  0.41800000000E+01 0. -1.
         -5    1    1    2    0  502  0.74891137325E+01  0.48952258298E+02  0.57595388490E+02  0.76073067457E+02  0.41800000000E+01 0. -1.
        -11    1    1    2    0    0 -0.13142735986E+02 -0.60904185316E+02 -0.17489046121E+02  0.64714125447E+02  0.00000000000E+00 0.  1.
         11    1    1    2    0    0  0.52320245161E+02 -0.40814637629E+02 -0.10190895274E+03  0.12160870588E+03  0.00000000000E+00 0. -1.
</event>
<event>
 6    1  0.4988969E-006  0.1147687E+03  0.7561462E-02  0.1251985E+00
          2   -1    0    0  501    0  0.00000000000E+00  0.00000000000E+00  0.28970825046E+03  0.28970825046E+03  0.00000000000E+00 0. -1.
         -2   -1    0    0    0  501 -0.00000000000E+00 -0.00000000000E+00 -0.46766613149E+02  0.46766613149E+02  0.00000000000E+00 0.  1.
          5    1    1    2  502    0 -0.28897920937E+02 -0.52194432683E+02  0.52295838095E+02  0.79446055406E+02  0.41800000000E+01 0. -1.
         -5    1    1    2    0  502  0.64061334817E+02  0.31897422521E+02  0.59028669826E+02  0.92860952200E+02  0.41800000000E+01 0. -1.
        -11    1    1    2    0    0 -0.56515111611E+02 -0.13466505294E+02  0.81160986418E+02  0.99811874653E+02  0.00000000000E+00 0. -1.
         11    1    1    2    0    0  0.21351697731E+02  0.33763515457E+02  0.50456142970E+02  0.64355981349E+02  0.00000000000E+00 0.  1.
</event>
<event>
 6    1  0.4988969E-006  0.1051308E+03  0.7561462E-02  0.1269862E+00
         -2   -1    0    0    0  501 -0.00000000000E+00  0.00000000000E+00  0.32512506794E+03  0.32512506794E+03  0.00000000000E+00 0.  1.
          2   -1    0    0  501    0  0.00000000000E+00 -0.00000000000E+00 -0.63076055711E+02  0.63076055711E+02  0.00000000000E+00 0. -1.
          5    1    1    2  502    0 -0.33091431686E+02 -0.46427044273E+01  0.13176681139E+02  0.36162064118E+02  0.41800000000E+01 0. -1.
         -5    1    1    2    0  502  0.69696516967E+02 -0.31366960131E+02  0.22577357314E+03  0.23839603477E+03  0.41800000000E+01 0. -1.
        -11    1    1    2    0    0 -0.48556686645E+02  0.57617249857E+02 -0.58710631249E+01  0.75577567315E+02  0.00000000000E+00 0. -1.
         11    1    1    2    0    0  0.11951601364E+02 -0.21607585298E+02  0.28969821070E+02  0.38065457444E+02  0.00000000000E+00 0.  1.
</event>
<event>
 6    1  0.4988969E-006  0.1040280E+03  0.7561462E-02  0.1272047E+00
         -1   -1    0    0    0  501 -0.00000000000E+00  0.00000000000E+00  0.14226404846E+03  0.14226404846E+03  0.00000000000E+00 0.  1.
          1   -1    0    0  501    0  0.00000000000E+00 -0.00000000000E+00 -0.13195618082E+03  0.13195618082E+03  0.00000000000E+00 0. -1.
          5    1    1    2  502    0 -0.14808905919E+02  0.59755683540E+02  0.59118990670E+02  0.85455092696E+02  0.41800000000E+01 0. -1.
         -5    1    1    2    0  502 -0.54776849855E+02 -0.29632729122E+02 -0.20771448896E+02  0.65783944884E+02  0.41800000000E+01 0. -1.
        -11    1    1    2    0    0  0.30187124309E+02  0.56558440156E+01 -0.55247019159E+02  0.63209842363E+02  0.00000000000E+00 0. -1.
         11    1    1    2    0    0  0.39398631465E+02 -0.35778798433E+02  0.27207345026E+02  0.59771349341E+02  0.00000000000E+00 0.  1.
</event>
<event>
 6    1  0.4988969E-006  0.8627663E+02  0.7561462E-02  0.1312127E+00
          1   -1    0    0  501    0  0.00000000000E+00  0.00000000000E+00  0.36716122016E+02  0.36716122016E+02  0.00000000000E+00 0.  1.
         -1   -1    0    0    0  501 -0.00000000000E+00 -0.00000000000E+00 -0.46434697494E+03  0.46434697494E+03  0.00000000000E+00 0. -1.
          5    1    1    2  502    0  0.29917579546E+02  0.49809467997E+01 -0.82628875985E+01  0.31711498046E+02  0.41800000000E+01 0. -1.
         -5    1    1    2    0  502 -0.32008223843E+01  0.48184307100E+02 -0.33437970133E+03  0.33787457699E+03  0.41800000000E+01 0. -1.
        -11    1    1    2    0    0  0.25036644443E+02 -0.19382095592E+02 -0.53369094797E+02  0.62054487944E+02  0.00000000000E+00 0.  1.
         11    1    1    2    0    0 -0.51753401604E+02 -0.33783158307E+02 -0.31619169196E+02  0.69422533975E+02  0.00000000000E+00 0. -1.
</event>
<event>
 6    1  0.4988969E-006  0.3568872E+03  0.7561462E-02  0.1059823E+00
         -1   -1    0    0    0  501 -0.00000000000E+00  0.00000000000E+00  0.49722464242E+03  0.49722464242E+03  0.00000000000E+00 0.  1.
          1   -1    0    0  501    0  0.00000000000E+00 -0.00000000000E+00 -0.31339797861E+03  0.31339797861E+03  0.00000000000E+00 0. -1.
          5    1    1    2  502    0 -0.29547057145E+03 -0.18169079971E+02  0.12864689821E+03  0.32280097720E+03  0.41800000000E+01 0.  1.
         -5    1    1    2    0  502 -0.59834162660E+02  0.15300623730E+02  0.10074066052E+03  0.11823869583E+03  0.41800000000E+01 0.  1.
        -11    1    1    2    0    0  0.64184801018E+02 -0.67349464028E+01 -0.44341537742E+02  0.78302108235E+02  0.00000000000E+00 0.  1.
         11    1    1    2    0    0  0.29111993309E+03  0.96034026441E+01 -0.12193571773E+01  0.29128083977E+03  0.00000000000E+00 0. -1.
</event>
<event>
 6    1  0.4988969E-006  0.1087645E+03  0.7561462E-02  0.1262875E+00
          1   -1    0    0  501    0  0.00000000000E+00  0.00000000000E+00  0.20274644405E+03  0.20274644405E+03  0.00000000000E+00 0. -1.
         -1   -1    0    0    0  501 -0.00000000000E+00 -0.00000000000E+00 -0.10052263366E+03  0.10052263366E+03  0.00000000000E+00 0.  1.
          5    1    1    2  502    0  0.63697857189E+01  0.24835266363E+02  0.40201627449E+02  0.47864474039E+02  0.41800000000E+01 0.  1.
         -5    1    1    2    0  502  0.47756004800E+02 -0.87396085706E+02 -0.25311269624E+02  0.10284378718E+03  0.41800000000E+01 0.  1.
        -11    1    1    2    0    0 -0.11785406499E+02  0.44158979453E+02  0.95317863413E+02  0.10570906469E+03  0.00000000000E+00 0. -1.
         11    1    1    2    0    0 -0.42340384019E+02  0.18401839891E+02 -0.79844108423E+01  0.46851751800E+02  0.00000000000E+00 0.  1.
</event>
<event>
 6    1  0.4988969E-006  0.2309422E+03  0.7561462E-02  0.1125978E+00
          1   -1    0    0  501    0  0.00000000000E+00  0.00000000000E+00  0.86155033606E+03  0.86155033606E+03  0.00000000000E+00 0. -1.
         -1   -1    0    0    0  501 -0.00000000000E+00 -0.00000000000E+00 -0.13335706468E+03  0.13335706468E+03  0.00000000000E+00 0.  1.
          5    1    1    2  502    0  0.51289531314E+01  0.18602098171E+03  0.17549466396E+03  0.25582408267E+03  0.41800000000E+01 0. -1.
         -5    1    1    2    0  502  0.96068702835E+02 -0.99788662926E+02 -0.23680970070E+02  0.14058888170E+03  0.41800000000E+01 0.  1.
        -11    1    1    2    0    0 -0.85765524626E+02 -0.53783858411E+02  0.53124184125E+03  0.54080155559E+03  0.00000000000E+00 0.  1.
         11    1    1    2    0    0 -0.15432131341E+02 -0.32448460375E+02  0.45137736251E+02  0.57692880776E+02  0.00000000000E+00 0. -1.
</event>
<event>
 6    1  0.4988969E-006  0.1578481E+03  0.7561462E-02  0.1191148E+00
         -1   -1    0    0    0  501 -0.00000000000E+00  0.00000000000E+00  0.87030651220E+02  0.87030651220E+02  0.00000000000E+00 0.  1.
          1   -1    0    0  501    0  0.00000000000E+00 -0.00000000000E+00 -0.42343626527E+03  0.42343626527E+03  0.00000000000E+00 0. -1.
          5    1    1    2  502    0  0.25980823602E+02  0.66352487788E+02 -0.11261247225E+03  0.13332928087E+03  0.41800000000E+01 0. -1.
         -5    1    1    2    0  502  0.44167674425E+02  0.59136647873E+02  0.22767116152E+02  0.77354641514E+02  0.41800000000E+01 0. -1.
        -11    1    1    2    0    0 -0.49487958296E+02 -0.68461324225E+01 -0.77797151229E+02  0.92457148371E+02  0.00000000000E+00 0.  1.
         11    1    1    2    0    0 -0.20660539731E+02 -0.11864300324E+03 -0.16876310672E+03  0.20732584573E+03  0.00000000000E+00 0. -1.
</event>
<event>
 6    1  0.4988969E-006  0.1558884E+03  0.7561462E-02  0.1193419E+00
         -2   -1    0    0    0  501 -0.00000000000E+00  0.00000000000E+00  0.78798136671E+03  0.78798136671E+03  0.00000000000E+00 0.  1.
          2   -1    0    0  501    0  0.00000000000E+00 -0.00000000000E+00 -0.40806326985E+02  0.40806326985E+02  0.00000000000E+00 0. -1.
          5    1    1    2  502    0 -0.15591728225E+02  0.22852206784E+02  0.18694680637E+02  0.33649499671E+02  0.41800000000E+01 0.  1.
         -5    1    1    2    0  502 -0.10179871618E+03 -0.98915063624E+02  0.42493163878E+03  0.44803073384E+03  0.41800000000E+01 0.  1.
        -11    1    1    2    0    0  0.96103221261E+02  0.50610587511E+02  0.29269270616E+03  0.31219590155E+03  0.00000000000E+00 0.  1.
         11    1    1    2    0    0  0.21287223145E+02  0.25452269329E+02  0.10856014147E+02  0.34911558635E+02  0.00000000000E+00 0. -1.
</event>
<event>
 6    1  0.4988969E-006  0.1171440E+03  0.7561462E-02  0.1247884E+00
         -2   -1    0    0    0  501 -0.00000000000E+00  0.00000000000E+00  0.98875642912E+02  0.98875642912E+02  0.00000000000E+00 0.  1.
          2   -1    0    0  501    0  0.00000000000E+00 -0.00000000000E+00 -0.17943224503E+03  0.17943224503E+03  0.00000000000E+00 0. -1.
          5    1    1    2  502    0  0.16969137014E+02  0.92688818869E+02  0.45618234806E+00  0.94323110936E+02  0.41800000000E+01 0. -1.
         -5    1    1    2    0  502  0.11026727361E+02 -0.41315469434E+02  0.10363591537E+02  0.44197660123E+02  0.41800000000E+01 0. -1.
        -11    1    1    2    0    0  0.24794794711E+02 -0.22615420198E+01 -0.20362618163E+01  0.24980848249E+02  0.00000000000E+00 0. -1.
         11    1    1    2    0    0 -0.52790659086E+02 -0.49111807416E+02 -0.89340114183E+02  0.11480626863E+03  0.00000000000E+00 0.  1.
</event>
<event>
 6    1  0.4988969E-006  0.6706199E+02  0.7561462E-02  0.1370379E+00
         -4   -1    0    0    0  501 -0.00000000000E+00  0.00000000000E+00  0.14556932045E+03  0.14556932045E+03  0.00000000000E+00 0.  1.
          4   -1    0    0  501    0  0.00000000000E+00 -0.00000000000E+00 -0.17267676328E+03  0.17267676328E+03  0.00000000000E+00 0. -1.
          5    1    1    2  502    0 -0.18775445487E+01  0.36329476522E+02 -0.58004426092E+02  0.68595494634E+02  0.41800000000E+01 0. -1.
         -5    1    1    2    0  502  0.21299727191E+02 -0.31853707519E+02  0.11687648788E+03  0.12306877297E+03  0.41800000000E+01 0.  1.
        -11    1    1    2    0    0  0.19604562802E+02  0.54455367773E+00  0.10600628573E+02  0.22293692998E+02  0.00000000000E+00 0.  1.
         11    1    1    2    0    0 -0.39026745445E+02 -0.50203226807E+01 -0.96580133189E+02  0.10428812313E+03  0.00000000000E+00 0. -1.
</event>
<event>
 6    1  0.4988969E-006  0.1643909E+03  0.7561462E-02  0.1183827E+00
          1   -1    0    0  501    0  0.00000000000E+00  0.00000000000E+00  0.24894671873E+03  0.24894671873E+03  0.00000000000E+00 0. -1.
         -1   -1    0    0    0  501 -0.00000000000E+00 -0.00000000000E+00 -0.11948370869E+03  0.11948370869E+03  0.00000000000E+00 0.  1.
          5    1    1    2  502    0 -0.15397959669E+02  0.24865694390E+02  0.12744208581E+00  0.29544687526E+02  0.41800000000E+01 0. -1.
         -5    1    1    2    0  502  0.14443711825E+03 -0.14714896307E+02  0.10115927828E+03  0.17700079458E+03  0.41800000000E+01 0. -1.
        -11    1    1    2    0    0 -0.11800275970E+03  0.21968330348E+02  0.39052740977E+02  0.12622351371E+03  0.00000000000E+00 0.  1.
         11    1    1    2    0    0 -0.11036398876E+02 -0.32119128431E+02 -0.10876451304E+02  0.35661431607E+02  0.00000000000E+00 0. -1.
</event>
<event>
 6    1  0.4988969E-006  0.9069894E+02  0.7561462E-02  0.1301168E+00
          1   -1    0    0  501    0  0.00000000000E+00  0.00000000000E+00  0.22275218355E+03  0.22275218355E+03  0.00000000000E+00 0. -1.
         -1   -1    0    0    0  501 -0.00000000000E+00 -0.00000000000E+00 -0.55496751418E+02  0.55496751418E+02  0.00000000000E+00 0.  1.
          5    1    1    2  502    0 -0.49159605974E+02 -0.74704560549E+01 -0.31150276291E+01  0.49996503581E+02  0.41800000000E+01 0.  1.
         -5    1    1    2    0  502  0.46299111103E+02 -0.20293544500E+02  0.95037209646E+02  0.10772640927E+03  0.41800000000E+01 0.  1.
        -11    1    1    2    0    0 -0.24138403366E+02  0.43337302568E+02  0.74303176966E+02  0.89340620202E+02  0.00000000000E+00 0. -1.
         11    1    1    2    0    0  0.26998898238E+02 -0.15573302014E+02  0.10300731477E+01  0.31185401911E+02  0.00000000000E+00 0.  1.
</event>
<event>
 6    1  0.4988969E-006  0.1375981E+03  0.7561462E-02  0.1216598E+00
          2   -1    0    0  501    0  0.00000000000E+00  0.00000000000E+00  0.10409446345E+04  0.10409446345E+04  0.00000000000E+00 0.  1.
         -2   -1    0    0    0  501 -0.00000000000E+00 -0.00000000000E+00 -0.19211480838E+02  0.19211480838E+02  0.00000000000E+00 0. -1.
          5    1    1    2  502    0  0.62050868464E+02 -0.58268909810E+02  0.31055796584E+03  0.32203928126E+03  0.41800000000E+01 0.  1.
         -5    1    1    2    0  502  0.25669950413E+02  0.61713402055E+02  0.20167429877E+03  0.21250290711E+03  0.41800000000E+01 0.  1.
        -11    1    1    2    0    0 -0.59215250099E+02 -0.43758303112E+02  0.22165063261E+03  0.23355992351E+03  0.00000000000E+00 0. -1.
         11    1    1    2    0    0 -0.28505568778E+02  0.40313810866E+02  0.28785025645E+03  0.29205400346E+03  0.00000000000E+00 0.  1.
</event>
<event>
 6    1  0.4988969E-006  0.1329179E+03  0.7561462E-02  0.1223189E+00
          2   -1    0    0  501    0  0.00000000000E+00  0.00000000000E+00  0.37691047446E+02  0.37691047446E+02  0.00000000000E+00 0.  1.
         -2   -1    0    0    0  501 -0.00000000000E+00 -0.00000000000E+00 -0.51245012034E+03  0.51245012034E+03  0.00000000000E+00 0. -1.
          5    1    1    2  502    0  0.11039614042E+01  0.11256780301E+03 -0.26501731462E+03  0.28796593280E+03  0.41800000000E+01 0. -1.
         -5    1    1    2    0  502  0.48207443126E+01 -0.33454887328E+02 -0.55368313272E+02  0.65004550428E+02  0.41800000000E+01 0. -1.
        -11    1    1    2    0    0 -0.46476207967E+02 -0.54763376821E+02 -0.69164412931E+02  0.99713496398E+02  0.00000000000E+00 0.  1.
         11    1    1    2    0    0  0.40551502251E+02 -0.24349538859E+02 -0.85209032073E+02  0.97457188160E+02  0.00000000000E+00 0. -1.
</event>
<event>
 6    1  0.4988969E-006  0.2322348E+03  0.7561462E-02  0.1125077E+00
          2   -1    0    0  501    0  0.00000000000E+00  0.00000000000E+00  0.11345632548E+04  0.11345632548E+04  0.00000000000E+00 0. -1.
         -2   -1    0    0    0  501 -0.00000000000E+00 -0.00000000000E+00 -0.61307045494E+02  0.61307045494E+02  0.00000000000E+00 0.  1.
          5    1    1    2  502    0  0.39177305643E+02  0.17897149013E+01  0.56675229352E+01  0.39845420980E+02  0.41800000000E+01 0.  1.
         -5    1    1    2    0  502  0.19018943584E+03 -0.26433170625E+02  0.39327004773E+03  0.43766372577E+03  0.41800000000E+01 0.  1.
        -11    1    1    2    0    0 -0.13687037187E+03  0.30702249563E+02  0.27846429169E+03  0.31179879501E+03  0.00000000000E+00 0. -1.
         11    1    1    2    0    0 -0.92496369613E+02 -0.60587938399E+01  0.39585434700E+03  0.40656235858E+03  0.00000000000E+00 0.  1.
</event>
<event>
 6    1  0.4988969E-006  0.1036891E+03  0.7561462E-02  0.1272724E+00
          2   -1    0    0  501    0  0.00000000000E+00  0.00000000000E+00  0.15787429468E+03  0.15787429468E+03  0.00000000000E+00 0. -1.
         -2   -1    0    0    0  501 -0.00000000000E+00 -0.00000000000E+00 -0.15461864874E+03  0.15461864874E+03  0.00000000000E+00 0.  1.
          5    1    1    2  502    0  0.60657186230E+02 -0.12544988809E+02 -0.23180724458E+02  0.66268313484E+02  0.41800000000E+01 0.  1.
         -5    1    1    2    0  502 -0.52177130222E+02 -0.34479176685E+00 -0.85014318920E+02  0.99837260684E+02  0.41800000000E+01 0.  1.
        -11    1    1    2    0    0 -0.28710595763E+02 -0.32434769713E+02  0.66855842305E+02  0.79661887034E+02  0.00000000000E+00 0.  1.
         11    1    1    2    0    0  0.20230539755E+02  0.45324550289E+02  0.44594847004E+02  0.66725482216E+02  0.00000000000E+00 0. -1.
</event>
<event>
 6    1  0.4988969E-006  0.1616514E+03  0.7561462E-02  0.1186845E+00
          2   -1    0    0  501    0  0.00000000000E+00  0.00000000000E+00  0.58775271998E+03  0.58775271998E+03  0.00000000000E+00 0. -1.
         -2   -1    0    0    0  501 -0.00000000000E+00 -0.00000000000E+00 -0.49971674420E+02  0.49971674420E+02  0.00000000000E+00 0.  1.
          5    1    1    2  502    0  0.10759991034E+03  0.10011378832E+03  0.29412310132E+03  0.32882576305E+03  0.41800000000E+01 0.  1.
         -5    1    1    2    0  502 -0.10886070959E+01 -0.17417073857E+02 -0.15407046195E+00  0.17945352179E+02  0.41800000000E+01 0.  1.
        -11    1    1    2    0    0 -0.37548366473E+02  0.13555070799E+02  0.71302484448E+02  0.81716975333E+02  0.00000000000E+00 0.  1.
         11    1    1    2    0    0 -0.68962936773E+02 -0.96251785260E+02  0.17250953025E+03  0.20923630383E+03  0.00000000000E+00 0. -1.
</event>
<event>
 6    1  0.4988969E-006  0.1375332E+03  0.7561462E-02  0.1216687E+00
         -2   -1    0    0    0  501 -0.00000000000E+00  0.00000000000E+00  0.27863082301E+02  0.27863082301E+02  0.00000000000E+00 0.  1.
          2   -1    0    0  501    0  0.00000000000E+00 -0.00000000000E+00 -0.93036615391E+03  0.93036615391E+03  0.00000000000E+00 0. -1.
          5    1    1    2  502    0 -0.10793335174E+03 -0.28271271920E+02 -0.18539038449E+03  0.21641612762E+03  0.41800000000E+01 0. -1.
         -5    1    1    2    0  502  0.21786765301E+02  0.33162105230E+02 -0.54168803662E+02  0.67276445029E+02  0.41800000000E+01 0. -1.
        -11    1    1    2    0    0 -0.18465287812E+02 -0.40307193502E+01 -0.74132457268E+02  0.76503821950E+02  0.00000000000E+00 0.  1.
         11    1    1    2    0    0  0.10461187425E+03 -0.86011395924E+00 -0.58881142619E+03  0.59803284161E+03  0.00000000000E+00 0. -1.
</event>
<event>
 6    1  0.4988969E-006  0.2696867E+03  0.7561462E-02  0.1101459E+00
          1   -1    0    0  501    0  0.00000000000E+00  0.00000000000E+00  0.71913322283E+03  0.71913322283E+03  0.00000000000E+00 0. -1.
         -1   -1    0    0    0  501 -0.00000000000E+00 -0.00000000000E+00 -0.12694285371E+03  0.12694285371E+03  0.00000000000E+00 0.  1.
          5    1    1    2  502    0  0.72132059949E+02 -0.41648503376E+02  0.47292446313E+02  0.95873248532E+02  0.41800000000E+01 0.  1.
         -5    1    1    2    0  502  0.17128981415E+03  0.89562226659E+02  0.68230993821E+02  0.20502325184E+03  0.41800000000E+01 0.  1.
        -11    1    1    2    0    0 -0.20068904234E+03 -0.30940777917E+01  0.33427372966E+03  0.38990331029E+03  0.00000000000E+00 0.  1.
         11    1    1    2    0    0 -0.42732831761E+02 -0.44819645491E+02  0.14239319933E+03  0.15527626589E+03  0.00000000000E+00 0. -1.
</event>
<event>
 6    1  0.1126539E-005  0.1840433E+03  0.7561462E-02  0.1163946E+00
          1   -1    0    0  501    0  0.00000000000E+00  0.00000000000E+00  0.68726732495E+03  0.68726732495E+03  0.00000000000E+00 0. -1.
         -1   -1    0    0    0  501 -0.00000000000E+00 -0.00000000000E+00 -0.56333681282E+02  0.56333681282E+02  0.00000000000E+00 0.  1.
          5    1    1    2  502    0 -0.13680333519E+02  0.62868642747E+02  0.11066039300E+03  0.12807346620E+03  0.41800000000E+01 0.  1.
         -5    1    1    2    0  502  0.13056009760E+03  0.50829078632E+02  0.18976514092E+03  0.23591908661E+03  0.41800000000E+01 0.  1.
        -11    1    1    2    0    0 -0.39238233043E+02 -0.45713779289E+02  0.22130115914E+03  0.22935472872E+03  0.00000000000E+00 0. -1.
         11    1    1    2    0    0 -0.77641531039E+02 -0.67983942091E+02  0.10920695061E+03  0.15025372470E+03  0.00000000000E+00 0.  1.
</event>
<event>
 6    1  0.4988969E-006  0.1512065E+03  0.7561462E-02  0.1198998E+00
          3   -1    0    0  501    0  0.00000000000E+00  0.00000000000E+00  0.43618379098E+03  0.43618379098E+03  0.00000000000E+00 0. -1.
         -3   -1    0    0    0  501 -0.00000000000E+00 -0.00000000000E+00 -0.56248105896E+02  0.56248105896E+02  0.00000000000E+00 0.  1.
          5    1    1    2  502    0 -0.99524512258E+02  0.45946551234E+01  0.11944432604E+03  0.15559774683E+03  0.41800000000E+01 0. -1.
         -5    1    1    2    0  502  0.69997688870E+01 -0.67529278447E+02  0.89061565528E+02  0.11206531607E+03  0.41800000000E+01 0. -1.
        -11    1    1    2    0    0  0.44359314514E+02 -0.11674358380E+02  0.21837849921E+02  0.50802865243E+02  0.00000000000E+00 0.  1.
         11    1    1    2    0    0  0.48165428857E+02  0.74608981704E+02  0.14959194360E+03  0.17396596873E+03  0.00000000000E+00 0. -1.
</event>
<event>
 6    1  0.4988969E-006  0.1024875E+03  0.7561462E-02  0.1275150E+00
          1   -1    0    0  501    0  0.00000000000E+00  0.00000000000E+00  0.65708697472E+02  0.65708697472E+02  0.00000000000E+00 0. -1.
         -1   -1    0    0    0  501 -0.00000000000E+00 -0.00000000000E+00 -0.32220239433E+03  0.32220239433E+03  0.00000000000E+00 0.  1.
          5    1    1    2  502    0  0.13019711899E+02 -0.17021205491E+02  0.68678058177E+01  0.22888282833E+02  0.41800000000E+01 0.  1.
         -5    1    1    2    0  502  0.31400936063E+02  0.88639629235E+02 -0.20989089338E+03  0.23003187210E+03  0.41800000000E+01 0.  1.
        -11    1    1    2    0    0 -0.45273202946E+02 -0.50292656486E+02 -0.77478040743E+02  0.10286817291E+03  0.00000000000E+00 0.  1.
         11    1    1    2    0    0  0.85255498402E+00 -0.21325767258E+02  0.24007431451E+02  0.32122763953E+02  0.00000000000E+00 0. -1.
</event>
<event>
 6    1  0.4988969E-006  0.2703744E+03  0.7561462E-02  0.1101066E+00
          2   -1    0    0  501    0  0.00000000000E+00  0.00000000000E+00  0.22524398110E+04  0.22524398110E+04  0.00000000000E+00 0. -1.
         -2   -1    0    0    0  501 -0.00000000000E+00 -0.00000000000E+00 -0.33904475622E+02  0.33904475622E+02  0.00000000000E+00 0.  1.
          5    1    1    2  502    0 -0.24796038464E+02  0.92451430990E+01  0.19604772425E+03  0.19786990367E+03  0.41800000000E+01 0.  1.
         -5    1    1    2    0  502  0.96924098955E+02  0.23065626878E+03  0.11095868575E+04  0.11374520043E+04  0.41800000000E+01 0.  1.
        -11    1    1    2    0    0 -0.61412402539E+02 -0.68521348281E+02  0.38741340076E+03  0.39819065966E+03  0.00000000000E+00 0.  1.
         11    1    1    2    0    0 -0.10715657952E+02 -0.17138006360E+03  0.52548735286E+03  0.55283171901E+03  0.00000000000E+00 0. -1.
</event>
<event>
 6    1  0.4988969E-006  0.1283683E+03  0.7561462E-02  0.1229897E+00
          1   -1    0    0  501    0  0.00000000000E+00  0.00000000000E+00  0.24616319959E+03  0.24616319959E+03  0.00000000000E+00 0. -1.
         -1   -1    0    0    0  501 -0.00000000000E+00 -0.00000000000E+00 -0.72565319231E+02  0.72565319231E+02  0.00000000000E+00 0.  1.
          5    1    1    2  502    0  0.98526081592E+01  0.28970625117E+02  0.21824283033E+02  0.37817228046E+02  0.41800000000E+01 0. -1.
         -5    1    1    2    0  502 -0.88613278231E+02 -0.59535125248E+02  0.36415278982E+02  0.11287288940E+03  0.41800000000E+01 0.  1.
        -11    1    1    2    0    0 -0.72008220157E+01  0.32242775558E+02  0.16197521459E+02  0.36794131526E+02  0.00000000000E+00 0.  1.
         11    1    1    2    0    0  0.85961492087E+02 -0.16782754268E+01  0.99160796882E+02  0.13124426985E+03  0.00000000000E+00 0. -1.
</event>
<event>
 6    1  0.4988969E-006  0.1307694E+03  0.7561462E-02  0.1226319E+00
         -2   -1    0    0    0  501 -0.00000000000E+00  0.00000000000E+00  0.31912928806E+02  0.31912928806E+02  0.00000000000E+00 0.  1.
          2   -1    0    0  501    0  0.00000000000E+00 -0.00000000000E+00 -0.60904430102E+03  0.60904430102E+03  0.00000000000E+00 0. -1.
          5    1    1    2  502    0  0.28721960088E+02 -0.14910225745E+02 -0.12364751441E+03  0.12788059291E+03  0.41800000000E+01 0.  1.
         -5    1    1    2    0  502 -0.10265014480E+03 -0.20937295754E+02 -0.13481754896E+03  0.17078836755E+03  0.41800000000E+01 0.  1.
        -11    1    1    2    0    0  0.27417532651E+02 -0.31787183495E+02 -0.89237063893E+02  0.98617441173E+02  0.00000000000E+00 0.  1.
         11    1    1    2    0    0  0.46510652066E+02  0.67634704993E+02 -0.22942924495E+03  0.24367082820E+03  0.00000000000E+00 0. -1.
</event>
<event>
 6    1  0.4988969E-006  0.1241724E+03  0.7561462E-02  0.1236368E+00
         -1   -1    0    0    0  501 -0.00000000000E+00  0.00000000000E+00  0.36377626131E+02  0.36377626131E+02  0.00000000000E+00 0.  1.
          1   -1    0    0  501    0  0.00000000000E+00 -0.00000000000E+00 -0.51151925277E+03  0.51151925277E+03  0.00000000000E+00 0. -1.
          5    1    1    2  502    0 -0.14820138918E+02 -0.64461370391E+02 -0.11428279651E+03  0.13210955593E+03  0.41800000000E+01 0.  1.
         -5    1    1    2    0  502  0.69859926877E+02  0.18670739424E+02 -0.60901595519E+02  0.94633411809E+02  0.41800000000E+01 0.  1.
        -11    1    1    2    0    0 -0.27061578808E+02 -0.22910633235E+02 -0.57035189536E+02  0.67158313024E+02  0.00000000000E+00 0.  1.
         11    1    1    2    0    0 -0.27978209151E+02  0.68701264202E+02 -0.24292204507E+03  0.25399559814E+03  0.00000000000E+00 0. -1.
</event>
<event>
 6    1  0.4988969E-006  0.9819762E+02  0.7561462E-02  0.1284132E+00
         -1   -1    0    0    0  501 -0.00000000000E+00  0.00000000000E+00  0.32824627612E+02  0.32824627612E+02  0.00000000000E+00 0.  1.
          1   -1    0    0  501    0  0.00000000000E+00 -0.00000000000E+00 -0.51731846454E+03  0.51731846454E+03  0.00000000000E+00 0. -1.
          5    1    1    2  502    0  0.21428019429E+02  0.76451393239E+02 -0.46657740454E+02  0.92186727294E+02  0.41800000000E+01 0.  1.
         -5    1    1    2    0  502 -0.24491053661E+01 -0.20698636014E+02 -0.13208955863E+03  0.13378922060E+03  0.41800000000E+01 0.  1.
        -11    1    1    2    0    0 -0.45201277589E+02 -0.52387062714E+02 -0.27521728293E+03  0.28378180467E+03  0.00000000000E+00 0.  1.
         11    1    1    2    0    0  0.26222363525E+02 -0.33656945109E+01 -0.30529254909E+02  0.40385339589E+02  0.00000000000E+00 0. -1.
</event>
<event>
 6    1  0.4988969E-006  0.1287200E+03  0.7561462E-02  0.1229367E+00
          1   -1    0    0  501    0  0.00000000000E+00  0.00000000000E+00  0.46895589948E+02  0.46895589948E+02  0.00000000000E+00 0. -1.
         -1   -1    0    0    0  501 -0.00000000000E+00 -0.00000000000E+00 -0.46394565457E+03  0.46394565457E+03  0.00000000000E+00 0.  1.
          5    1    1    2  502    0 -0.88619662740E+02  0.21621708663E+02 -0.14315635433E+03  0.16980034480E+03  0.41800000000E+01 0.  1.
         -5    1    1    2    0  502  0.19096726035E+01 -0.67461000887E+02 -0.11029706119E+03  0.12937367428E+03  0.41800000000E+01 0.  1.
        -11    1    1    2    0    0  0.66701725226E+02  0.30755456324E+02 -0.17052400356E+03  0.18567028311E+03  0.00000000000E+00 0.  1.
         11    1    1    2    0    0  0.20008264911E+02  0.15083835899E+02  0.69273544586E+01  0.25996942320E+02  0.00000000000E+00 0. -1.
</event>
<event>
 6    1  0.4988969E-006  0.1188698E+03  0.7561462E-02  0.1244973E+00
         -1   -1    0    0    0  501 -0.00000000000E+00  0.00000000000E+00  0.17201191307E+03  0.17201191307E+03  0.00000000000E+00 0.  1.
          1   -1    0    0  501    0  0.00000000000E+00 -0.00000000000E+00 -0.19547306114E+03  0.19547306114E+03  0.00000000000E+00 0. -1.
          5    1    1    2  502    0  0.63660776880E+02  0.83653790329E+02  0.49057306525E+02  0.11608076013E+03  0.41800000000E+01 0. -1.
         -5    1    1    2    0  502 -0.17274004389E+02 -0.21489578746E+02  0.63041876838E+02  0.68934344543E+02  0.41800000000E+01 0. -1.
        -11    1    1    2    0    0 -0.62991803362E+02 -0.33060957197E+02 -0.13043343885E+03  0.14857279749E+03  0.00000000000E+00 0. -1.
         11    1    1    2    0    0  0.16605030871E+02 -0.29103254386E+02 -0.51268925827E+01  0.33897072051E+02  0.00000000000E+00 0.  1.
</event>
<event>
 6    1  0.4988969E-006  0.7606459E+02  0.7561462E-02  0.1340606E+00
          2   -1    0    0  501    0  0.00000000000E+00  0.00000000000E+00  0.21799741724E+03  0.21799741724E+03  0.00000000000E+00 0. -1.
         -2   -1    0    0    0  501 -0.00000000000E+00 -0.00000000000E+00 -0.12496426911E+03  0.12496426911E+03  0.00000000000E+00 0.  1.
          5    1    1    2  502    0  0.31892086058E+02  0.20017896084E+02 -0.88433115800E+02  0.96206598978E+02  0.41800000000E+01 0. -1.
         -5    1    1    2    0  502 -0.47908979528E+02  0.31770386529E+02  0.13315737705E+01  0.57653042143E+02  0.41800000000E+01 0.  1.
        -11    1    1    2    0    0  0.12168683860E+02 -0.13699524467E+02  0.75262103507E+02  0.77460558104E+02  0.00000000000E+00 0.  1.
         11    1    1    2    0    0  0.38482096101E+01 -0.38088758146E+02  0.10487258666E+03  0.11164148712E+03  0.00000000000E+00 0. -1.
</event>
<event>
 6    1  0.4988969E-006  0.8451924E+02  0.7561462E-02  0.1316695E+00
          2   -1    0    0  501    0  0.00000000000E+00  0.00000000000E+00  0.57934188590E+03  0.57934188590E+03  0.00000000000E+00 0. -1.
         -2   -1    0    0    0  501 -0.00000000000E+00 -0.00000000000E+00 -0.21900184624E+02  0.21900184624E+02  0.00000000000E+00 0.  1.
          5    1    1    2  502    0  0.51945070996E+02 -0.22687910269E+01  0.26080379088E+03  0.26596903495E+03  0.41800000000E+01 0. -1.
         -5    1    1    2    0  502 -0.10843579024E+02  0.18084197366E+02 -0.18085183144E+01  0.21572309541E+02  0.41800000000E+01 0.  1.
        -11    1    1    2    0    0  0.17880134186E+02 -0.29809541531E+02  0.85551843059E+02  0.92344062157E+02  0.00000000000E+00 0. -1.
         11    1    1    2    0    0 -0.58981626158E+02  0.13994135192E+02  0.21289458564E+03  0.22135666387E+03  0.00000000000E+00 0.  1.
</event>
<event>
 6    1  0.4988969E-006  0.1470977E+03  0.7561462E-02  0.1204085E+00
         -2   -1    0    0    0  501 -0.00000000000E+00  0.00000000000E+00  0.30385026217E+02  0.30385026217E+02  0.00000000000E+00 0.  1.
          2   -1    0    0  501    0  0.00000000000E+00 -0.00000000000E+00 -0.12451726819E+04  0.12451726819E+04  0.00000000000E+00 0. -1.
          5    1    1    2  502    0  0.45644197532E+02 -0.76352249495E+02 -0.65100364892E+03  0.65706642136E+03  0.41800000000E+01 0. -1.
         -5    1    1    2    0  502  0.53162153893E+02  0.44319338166E+01 -0.27611935257E+02  0.60214184479E+02  0.41800000000E+01 0.  1.
        -11    1    1    2    0    0  0.10696889199E+02 -0.10181701718E+02 -0.24407540338E+02  0.28527504513E+02  0.00000000000E+00 0.  1.
         11    1    1    2    0    0 -0.10950324062E+03  0.82102017396E+02 -0.51176453112E+03  0.52974959772E+03  0.00000000000E+00 0. -1.
</event>
<event>
 6    1  0.4988969E-006  0.1206045E+03  0.7561462E-02  0.1242103E+00
          1   -1    0    0  501    0  0.00000000000E+00  0.00000000000E+00  0.12969545176E+03  0.12969545176E+03  0.00000000000E+00 0. -1.
         -1   -1    0    0    0  501 -0.00000000000E+00 -0.00000000000E+00 -0.12040147580E+03  0.12040147580E+03  0.00000000000E+00 0.  1.
          5    1    1    2  502    0  0.17863868476E+02 -0.72349406071E+02 -0.17045478599E+02  0.76560924083E+02  0.41800000000E+01 0. -1.
         -5    1    1    2    0  502  0.37826125725E+02  0.46438513560E+02  0.18420845662E+02  0.62802478327E+02  0.41800000000E+01 0. -1.
        -11    1    1    2    0    0  0.12180595290E+02  0.35916153141E+02  0.16943863095E+02  0.41538313093E+02  0.00000000000E+00 0. -1.
         11    1    1    2    0    0 -0.67870589491E+02 -0.10005260630E+02 -0.90252542018E+01  0.69195212057E+02  0.00000000000E+00 0.  1.
</event>
<event>
 6    1  0.4988969E-006  0.3077203E+03  0.7561462E-02  0.1081444E+00
         -1   -1    0    0    0  501 -0.00000000000E+00  0.00000000000E+00  0.14454867414E+03  0.14454867414E+03  0.00000000000E+00 0.  1.
          1   -1    0    0  501    0  0.00000000000E+00 -0.00000000000E+00 -0.82945157389E+03  0.82945157389E+03  0.00000000000E+00 0. -1.
          5    1    1    2  502    0  0.98434784506E+02  0.58925985786E+02 -0.77002737120E+02  0.13823376044E+03  0.41800000000E+01 0. -1.
         -5    1    1    2    0  502  0.50609467242E+02  0.19305561217E+03 -0.60800151475E+02  0.20867658801E+03  0.41800000000E+01 0. -1.
        -11    1    1    2    0    0 -0.95262077651E+02 -0.21664803728E+03 -0.37593211147E+03  0.44422537966E+03  0.00000000000E+00 0. -1.
         11    1    1    2    0    0 -0.53782174097E+02 -0.35333560672E+02 -0.17116789969E+03  0.18286451992E+03  0.00000000000E+00 0.  1.
</event>
<event>
 6    1  0.4988969E-006  0.7154964E+02  0.7561462E-02  0.1354901E+00
          1   -1    0    0  501    0  0.00000000000E+00  0.00000000000E+00  0.23237249449E+03  0.23237249449E+03  0.00000000000E+00 0. -1.
         -1   -1    0    0    0  501 -0.00000000000E+00 -0.00000000000E+00 -0.62564119778E+02  0.62564119778E+02  0.00000000000E+00 0.  1.
          5    1    1    2  502    0  0.44737884943E+02  0.22109277045E+02 -0.27509924022E+02  0.57136387708E+02  0.41800000000E+01 0.  1.
         -5    1    1    2    0  502 -0.14857936494E+02  0.84693562887E+01  0.83743955065E+02  0.85574591338E+02  0.41800000000E+01 0.  1.
        -11    1    1    2    0    0  0.17696456811E+02 -0.19948184574E+02  0.97212432169E+02  0.10080352980E+03  0.00000000000E+00 0. -1.
         11    1    1    2    0    0 -0.47576405261E+02 -0.10630448759E+02  0.16361911500E+02  0.51422105425E+02  0.00000000000E+00 0.  1.
</event>
<event>
 6    1  0.4988969E-006  0.1209305E+03  0.7561462E-02  0.1241570E+00
          1   -1    0    0  501    0  0.00000000000E+00  0.00000000000E+00  0.96135008790E+02  0.96135008790E+02  0.00000000000E+00 0. -1.
         -1   -1    0    0    0  501 -0.00000000000E+00 -0.00000000000E+00 -0.15961370119E+03  0.15961370119E+03  0.00000000000E+00 0.  1.
          5    1    1    2  502    0  0.25942534788E+02  0.29214551266E+02  0.80957017903E+01  0.40118797395E+02  0.41800000000E+01 0.  1.
         -5    1    1    2    0  502 -0.23639531293E+02 -0.94573514989E+02 -0.34463764432E+02  0.10348043601E+03  0.41800000000E+01 0.  1.
        -11    1    1    2    0    0  0.39335714479E+02  0.40700713579E+02 -0.26999394267E+02  0.62712150419E+02  0.00000000000E+00 0.  1.
         11    1    1    2    0    0 -0.41638717974E+02  0.24658250144E+02 -0.10111235491E+02  0.49437326160E+02  0.00000000000E+00 0. -1.
</event>
<event>
 6    1  0.4988969E-006  0.1505462E+03  0.7561462E-02  0.1199803E+00
          1   -1    0    0  501    0  0.00000000000E+00  0.00000000000E+00  0.12208382218E+04  0.12208382218E+04  0.00000000000E+00 0. -1.
         -1   -1    0    0    0  501 -0.00000000000E+00 -0.00000000000E+00 -0.21772303693E+02  0.21772303693E+02  0.00000000000E+00 0.  1.
          5    1    1    2  502    0 -0.85621540618E+02  0.11556796296E+03  0.65435374437E+03  0.66998753529E+03  0.41800000000E+01 0. -1.
         -5    1    1    2    0  502  0.13983975124E+02 -0.23015417211E+02  0.10987501139E+03  0.11320446775E+03  0.41800000000E+01 0. -1.
        -11    1    1    2    0    0  0.49581129418E+02 -0.18894552949E+02  0.77633934163E+02  0.94033612390E+02  0.00000000000E+00 0.  1.
         11    1    1    2    0    0  0.22056436077E+02 -0.73657992797E+02  0.35720322819E+03  0.36538491007E+03  0.00000000000E+00 0. -1.
</event>
<event>
 6    1  0.4988969E-006  0.1519248E+03  0.7561462E-02  0.1198128E+00
         -1   -1    0    0    0  501 -0.00000000000E+00  0.00000000000E+00  0.89751514974E+03  0.89751514974E+03  0.00000000000E+00 0.  1.
          1   -1    0    0  501    0  0.00000000000E+00 -0.00000000000E+00 -0.49871593609E+02  0.49871593609E+02  0.00000000000E+00 0. -1.
          5    1    1    2  502    0  0.65104776662E+02  0.11785944914E+02  0.32094552016E+02  0.73655095620E+02  0.41800000000E+01 0. -1.
         -5    1    1    2    0  502 -0.14702593859E+02 -0.10505812103E+03  0.64267809758E+03  0.65138773750E+03  0.41800000000E+01 0.  1.
        -11    1    1    2    0    0 -0.63496315502E+02  0.98581615022E+02  0.12065106850E+03  0.16824623988E+03  0.00000000000E+00 0. -1.
         11    1    1    2    0    0  0.13094132699E+02 -0.53094389060E+01  0.52219838039E+02  0.54097670351E+02  0.00000000000E+00 0.  1.
</event>
<event>
 6    1  0.4988969E-006  0.1318385E+03  0.7561462E-02  0.1224753E+00
          2   -1    0    0  501    0  0.00000000000E+00  0.00000000000E+00  0.32810146064E+03  0.32810146064E+03  0.00000000000E+00 0. -1.
         -2   -1    0    0    0  501 -0.00000000000E+00 -0.00000000000E+00 -0.65405757953E+02  0.65405757953E+02  0.00000000000E+00 0.  1.
          5    1    1    2  502    0 -0.38350562779E+02 -0.51501540194E+02  0.43330315771E+02  0.77576819815E+02  0.41800000000E+01 0.  1.
         -5    1    1    2    0  502 -0.38140666440E+02  0.71659022844E+02  0.22052111557E+02  0.84222882969E+02  0.41800000000E+01 0.  1.
        -11    1    1    2    0    0  0.96399255590E+02 -0.17047580061E+02  0.18101805393E+03  0.20579351863E+03  0.00000000000E+00 0. -1.
         11    1    1    2    0    0 -0.19908026371E+02 -0.31099025900E+01  0.16295221436E+02  0.25913997178E+02  0.00000000000E+00 0.  1.
</event>
<event>
 6    1  0.4988969E-006  0.1382220E+03  0.7561462E-02  0.1215742E+00
         -2   -1    0    0    0  501 -0.00000000000E+00  0.00000000000E+00  0.21808283275E+03  0.21808283275E+03  0.00000000000E+00 0.  1.
          2   -1    0    0  501    0  0.00000000000E+00 -0.00000000000E+00 -0.13705630670E+03  0.13705630670E+03  0.00000000000E+00 0. -1.
          5    1    1    2  502    0 -0.84481086726E+02  0.41472669031E+01 -0.46694492189E+01  0.84814680293E+02  0.41800000000E+01 0.  1.
         -5    1    1    2    0  502 -0.30250090840E+02  0.30266634355E+02  0.10948224172E+03  0.11762215269E+03  0.41800000000E+01 0.  1.
        -11    1    1    2    0    0  0.17217278095E+02 -0.47360468246E+02  0.38053182776E+01  0.50536413255E+02  0.00000000000E+00 0. -1.
         11    1    1    2    0    0  0.97513899472E+02  0.12946566988E+02 -0.27591584737E+02  0.10216589321E+03  0.00000000000E+00 0.  1.
</event>
<event>
 6    1  0.4988969E-006  0.1134380E+03  0.7561462E-02  0.1254333E+00
          1   -1    0    0  501    0  0.00000000000E+00  0.00000000000E+00  0.46885223548E+03  0.46885223548E+03  0.00000000000E+00 0. -1.
         -1   -1    0    0    0  501 -0.00000000000E+00 -0.00000000000E+00 -0.35768082995E+02  0.35768082995E+02  0.00000000000E+00 0.  1.
          5    1    1    2  502    0  0.14509976244E+02  0.26887420168E+02  0.26747260213E+01  0.30953179694E+02  0.41800000000E+01 0.  1.
         -5    1    1    2    0  502 -0.51769028890E+02 -0.68005212531E+02  0.16156937641E+03  0.18283018645E+03  0.41800000000E+01 0.  1.
        -11    1    1    2    0    0 -0.34037708534E+00 -0.30011315695E+02  0.61456322460E+02  0.68393526716E+02  0.00000000000E+00 0.  1.
         11    1    1    2    0    0  0.37599429731E+02  0.71129108058E+02  0.20738372759E+03  0.22244342561E+03  0.00000000000E+00 0. -1.
</event>
<event>
 6    1  0.4988969E-006  0.1542672E+03  0.7561462E-02  0.1195325E+00
         -2   -1    0    0    0  501 -0.00000000000E+00  0.00000000000E+00  0.13018866997E+03  0.13018866997E+03  0.00000000000E+00 0.  1.
          2   -1    0    0  501    0  0.00000000000E+00 -0.00000000000E+00 -0.30942981157E+03  0.30942981157E+03  0.00000000000E+00 0. -1.
          5    1    1    2  502    0  0.50822276367E+01 -0.23663100316E+02 -0.28422008589E+02  0.37564003069E+02  0.41800000000E+01 0. -1.
         -5    1    1    2    0  502  0.12316305595E+03  0.68921162916E+02  0.43880249646E+02  0.14785876287E+03  0.41800000000E+01 0. -1.
        -11    1    1    2    0    0 -0.33537442999E+02 -0.33394078393E+02 -0.13208342568E+02  0.49136390466E+02  0.00000000000E+00 0.  1.
         11    1    1    2    0    0 -0.94707840592E+02 -0.11863984207E+02 -0.18149104009E+03  0.20505932513E+03  0.00000000000E+00 0. -1.
</event>
<event>
 6    1  0.4988969E-006  0.1910389E+03  0.7561462E-02  0.1157528E+00
          1   -1    0    0  501    0  0.00000000000E+00  0.00000000000E+00  0.39253900789E+03  0.39253900789E+03  0.00000000000E+00 0. -1.
         -1   -1    0    0    0  501 -0.00000000000E+00 -0.00000000000E+00 -0.10105963611E+03  0.10105963611E+03  0.00000000000E+00 0.  1.
          5    1    1    2  502    0  0.92757832596E+01 -0.99540389508E+01 -0.90470357069E+01  0.16865476619E+02  0.41800000000E+01 0.  1.
         -5    1    1    2    0  502 -0.14118808953E+03  0.10777051929E+03  0.15721310285E+03  0.23723826327E+03  0.41800000000E+01 0.  1.
        -11    1    1    2    0    0 -0.95104021278E+01 -0.33484101664E+02  0.14636620233E+02  0.37760607314E+02  0.00000000000E+00 0. -1.
         11    1    1    2    0    0  0.14142270840E+03 -0.64332378674E+02  0.12867668440E+03  0.20173429680E+03  0.00000000000E+00 0.  1.
</event>
<event>
 6    1  0.4988969E-006  0.1829398E+03  0.7561462E-02  0.1164988E+00
          1   -1    0    0  501    0  0.00000000000E+00  0.00000000000E+00  0.12776107468E+04  0.12776107468E+04  0.00000000000E+00 0. -1.
         -1   -1    0    0    0  501 -0.00000000000E+00 -0.00000000000E+00 -0.37875363030E+02  0.37875363030E+02  0.00000000000E+00 0.  1.
          5    1    1    2  502    0  0.16323102949E+03  0.47974900826E+02  0.22539765149E+03  0.28243146743E+03  0.41800000000E+01 0.  1.
         -5    1    1    2    0  502 -0.15249530408E+02 -0.32994051129E+01  0.82715426498E+02  0.84277805101E+02  0.41800000000E+01 0.  1.
        -11    1    1    2    0    0 -0.18429114141E+02 -0.46453774090E+02  0.24820976991E+03  0.25319098572E+03  0.00000000000E+00 0. -1.
         11    1    1    2    0    0 -0.12955238494E+03  0.17782783772E+01  0.68341253583E+03  0.69558585153E+03  0.00000000000E+00 0.  1.
</event>
<event>
 6    1  0.2230299E-005  0.6143470E+02  0.7561462E-02  0.1391908E+00
         -2   -1    0    0    0  501 -0.00000000000E+00  0.00000000000E+00  0.83905484168E+02  0.83905484168E+02  0.00000000000E+00 0.  1.
          2   -1    0    0  501    0  0.00000000000E+00 -0.00000000000E+00 -0.13519859291E+03  0.13519859291E+03  0.00000000000E+00 0. -1.
          5    1    1    2  502    0  0.89447755040E+01 -0.38572862579E+02 -0.74045134393E+02  0.84071571079E+02  0.41800000000E+01 0. -1.
         -5    1    1    2    0  502 -0.29549925945E+02  0.47329021929E+02  0.63339895795E+02  0.84514195491E+02  0.41800000000E+01 0.  1.
        -11    1    1    2    0    0  0.10848530737E+02  0.35327288924E+01 -0.28538400802E+02  0.30734526398E+02  0.00000000000E+00 0. -1.
         11    1    1    2    0    0  0.97566197042E+01 -0.12288888243E+02 -0.12049469343E+02  0.19783784111E+02  0.00000000000E+00 0.  1.
</event>
<event>
 6    1  0.4988969E-006  0.9249367E+02  0.7561462E-02  0.1296923E+00
          3   -1    0    0  501    0  0.00000000000E+00  0.00000000000E+00  0.25207009247E+03  0.25207009247E+03  0.00000000000E+00 0. -1.
         -3   -1    0    0    0  501 -0.00000000000E+00 -0.00000000000E+00 -0.55514023070E+02  0.55514023070E+02  0.00000000000E+00 0.  1.
          5    1    1    2  502    0  0.28104681205E+02  0.10327392593E+02  0.83371912756E+02  0.88684138266E+02  0.41800000000E+01 0.  1.
         -5    1    1    2    0  502 -0.47178035494E+02 -0.46498349906E+02 -0.13470443880E+01  0.66386372891E+02  0.41800000000E+01 0.  1.
        -11    1    1    2    0    0  0.11363160437E+02 -0.24613926953E+02  0.58255448579E+01  0.27729114448E+02  0.00000000000E+00 0.  1.
         11    1    1    2    0    0  0.77101938517E+01  0.60784884265E+02  0.10870565617E+03  0.12478448993E+03  0.00000000000E+00 0. -1.
</event>
<event>
 6    1  0.4988969E-006  0.2026385E+03  0.7561462E-02  0.1147532E+00
         -1   -1    0    0    0  501 -0.00000000000E+00  0.00000000000E+00  0.11621196929E+03  0.11621196929E+03  0.00000000000E+00 0.  1.
          1   -1    0    0  501    0  0.00000000000E+00 -0.00000000000E+00 -0.63540913090E+03  0.63540913090E+03  0.00000000000E+00 0. -1.
          5    1    1    2  502    0  0.84893405719E+01 -0.15333273896E+02 -0.58718811813E+02  0.61421083126E+02  0.41800000000E+01 0.  1.
         -5    1    1    2    0  502  0.91749592227E+02 -0.15879906918E+03 -0.42629133418E+01  0.18349598600E+03  0.41800000000E+01 0.  1.
        -11    1    1    2    0    0 -0.30826582220E+02  0.26400908689E+02 -0.19115983725E+03  0.19542100585E+03  0.00000000000E+00 0. -1.
         11    1    1    2    0    0 -0.69412350579E+02  0.14773143439E+03 -0.26505559920E+03  0.31128302522E+03  0.00000000000E+00 0.  1.
</event>
<event>
 6    1  0.5325056E-006  0.2435872E+03  0.7561462E-02  0.1117426E+00
         -1   -1    0    0    0  501 -0.00000000000E+00  0.00000000000E+00  0.24208035739E+03  0.24208035739E+03  0.00000000000E+00 0.  1.
          1   -1    0    0  501    0  0.00000000000E+00 -0.00000000000E+00 -0.28914628391E+03  0.28914628391E+03  0.00000000000E+00 0. -1.
          5    1    1    2  502    0 -0.65336212210E+02  0.10236456399E+03  0.76761866484E+02  0.14372606281E+03  0.41800000000E+01 0. -1.
         -5    1    1    2    0  502 -0.11168648578E+03  0.40861886581E+02 -0.23968904819E+02  0.12139005593E+03  0.41800000000E+01 0. -1.
        -11    1    1    2    0    0  0.10976551459E+03 -0.28058178863E+02 -0.45872656354E+02  0.12222941624E+03  0.00000000000E+00 0.  1.
         11    1    1    2    0    0  0.67257183400E+02 -0.11516827170E+03 -0.53986231833E+02  0.14388110631E+03  0.00000000000E+00 0. -1.
</event>
<event>
 6    1  0.4988969E-006  0.1774461E+03  0.7561462E-02  0.1170298E+00
          2   -1    0    0  501    0  0.00000000000E+00  0.00000000000E+00  0.24614988884E+02  0.24614988884E+02  0.00000000000E+00 0. -1.
         -2   -1    0    0    0  501 -0.00000000000E+00 -0.00000000000E+00 -0.16586113906E+04  0.16586113906E+04  0.00000000000E+00 0.  1.
          5    1    1    2  502    0 -0.67811812440E+02 -0.56821822485E+02 -0.75079807166E+03  0.75600421839E+03  0.41800000000E+01 0. -1.
         -5    1    1    2    0  502 -0.82256840850E+02  0.53250763096E+02 -0.44757446450E+03  0.45819450598E+03  0.41800000000E+01 0. -1.
        -11    1    1    2    0    0  0.13170284807E+03 -0.25218333110E+02 -0.29074195788E+03  0.32017571830E+03  0.00000000000E+00 0. -1.
         11    1    1    2    0    0  0.18365805217E+02  0.28789392500E+02 -0.14488190763E+03  0.14885193677E+03  0.00000000000E+00 0.  1.
</event>
<event>
 6    1  0.4988969E-006  0.1148773E+03  0.7561462E-02  0.1251795E+00
         -1   -1    0    0    0  501 -0.00000000000E+00  0.00000000000E+00  0.26159846231E+03  0.26159846231E+03  0.00000000000E+00 0.  1.
          1   -1    0    0  501    0  0.00000000000E+00 -0.00000000000E+00 -0.78611900693E+02  0.78611900693E+02  0.00000000000E+00 0. -1.
          5    1    1    2  502    0 -0.26724165515E+02 -0.36164433270E+02  0.38285099419E+02  0.59205307986E+02  0.41800000000E+01 0.  1.
         -5    1    1    2    0  502  0.84765883114E+02  0.28039395737E+02  0.14448165925E+03  0.16989374595E+03  0.41800000000E+01 0.  1.
        -11    1    1    2    0    0 -0.16778983931E+02  0.39801315167E+02 -0.28443713812E+02  0.51717732415E+02  0.00000000000E+00 0. -1.
         11    1    1    2    0    0 -0.41262733668E+02 -0.31676277635E+02  0.28663516761E+02  0.59393576653E+02  0.00000000000E+00 0.  1.
</event>
<event>
 6    1  0.4988969E-006  0.1135226E+03  0.7561462E-02  0.1254182E+00
          2   -1    0    0  501    0  0.00000000000E+00  0.00000000000E+00  0.11689155431E+04  0.11689155431E+04  0.00000000000E+00 0. -1.
         -2   -1    0    0    0  501 -0.00000000000E+00 -0.00000000000E+00 -0.13707548468E+02  0.13707548468E+02  0.00000000000E+00 0.  1.
          5    1    1    2  502    0  0.71601418309E+02 -0.32199179020E+02  0.23738145725E+03  0.25006195008E+03  0.41800000000E+01 0. -1.
         -5    1    1    2    0  502 -0.85496993199E+01  0.40699934374E+02  0.42328337901E+03  0.42534206630E+03  0.41800000000E+01 0. -1.
        -11    1    1    2    0    0 -0.65611714659E+02 -0.38796748075E+02  0.41735989793E+03  0.42426332526E+03  0.00000000000E+00 0.  1.
         11    1    1    2    0    0  0.25599956697E+01  0.30295992721E+02  0.77183260399E+02  0.82955749883E+02  0.00000000000E+00 0. -1.
</event>
<event>
 6    1  0.4988969E-006  0.1125359E+03  0.7561462E-02  0.1255945E+00
          1   -1    0    0  501    0  0.00000000000E+00  0.00000000000E+00  0.13524332390E+03  0.13524332390E+03  0.00000000000E+00 0. -1.
         -1   -1    0    0    0  501 -0.00000000000E+00 -0.00000000000E+00 -0.12975797993E+03  0.12975797993E+03  0.00000000000E+00 0.  1.
          5    1    1    2  502    0  0.44657291031E+02  0.16489178984E+01 -0.87423347723E+01  0.45726287732E+02  0.41800000000E+01 0.  1.
         -5    1    1    2    0  502 -0.78971968612E+02 -0.48568005427E+02 -0.30388657966E+02  0.97654318444E+02  0.41800000000E+01 0.  1.
        -11    1    1    2    0    0  0.38862926117E+02  0.61143732811E+02 -0.21975056554E+01  0.72482495263E+02  0.00000000000E+00 0.  1.
         11    1    1    2    0    0 -0.45482485351E+01 -0.14224645282E+02  0.46813842355E+02  0.49138202391E+02  0.00000000000E+00 0. -1.
</event>
<event>
 6    1  0.4988969E-006  0.1072823E+03  0.7561462E-02  0.1265687E+00
         -1   -1    0    0    0  501 -0.00000000000E+00  0.00000000000E+00  0.17253325525E+03  0.17253325525E+03  0.00000000000E+00 0.  1.
          1   -1    0    0  501    0  0.00000000000E+00 -0.00000000000E+00 -0.16651408748E+03  0.16651408748E+03  0.00000000000E+00 0. -1.
          5    1    1    2  502    0  0.46522379873E+02 -0.18814515701E+01  0.84043376440E+02  0.96169814456E+02  0.41800000000E+01 0.  1.
         -5    1    1    2    0  502 -0.25029348067E+02 -0.79360199797E+02  0.16352599940E+02  0.84908123883E+02  0.41800000000E+01 0.  1.
        -11    1    1    2    0    0 -0.13539971170E+02  0.34085732675E+02  0.14198601373E+02  0.39328974970E+02  0.00000000000E+00 0.  1.
         11    1    1    2    0    0 -0.79530606360E+01  0.47155918692E+02 -0.10857540998E+03  0.11864042942E+03  0.00000000000E+00 0. -1.
</event>
<event>
 6    1  0.4988969E-006  0.9703778E+02  0.7561462E-02  0.1286651E+00
          2   -1    0    0  501    0  0.00000000000E+00  0.00000000000E+00  0.48816483627E+03  0.48816483627E+03  0.00000000000E+00 0. -1.
         -2   -1    0    0    0  501 -0.00000000000E+00 -0.00000000000E+00 -0.37886244965E+02  0.37886244965E+02  0.00000000000E+00 0.  1.
          5    1    1    2  502    0  0.13011465922E+02  0.19736358948E+02  0.12378781435E+03  0.12609408190E+03  0.41800000000E+01 0.  1.
         -5    1    1    2    0  502 -0.66255143587E+02  0.12619535049E+02  0.11801920461E+02  0.68598501756E+02  0.41800000000E+01 0.  1.
        -11    1    1    2    0    0  0.98040471939E+01  0.27123225382E+02  0.11365445507E+03  0.11725665803E+03  0.00000000000E+00 0.  1.
         11    1    1    2    0    0  0.43439630472E+02 -0.59479119379E+02  0.20103440143E+03  0.21410183955E+03  0.00000000000E+00 0. -1.
</event>
<event>
 6    1  0.4988969E-006  0.7782323E+02  0.7561462E-02  0.1335345E+00
          2   -1    0    0  501    0  0.00000000000E+00  0.00000000000E+00  0.37021749730E+03  0.37021749730E+03  0.00000000000E+00 0. -1.
         -2   -1    0    0    0  501 -0.00000000000E+00 -0.00000000000E+00 -0.42833505815E+02  0.42833505815E+02  0.00000000000E+00 0.  1.
          5    1    1    2  502    0  0.18170237501E+02 -0.29720536913E+02  0.13895183938E+03  0.14331278349E+03  0.41800000000E+01 0.  1.
         -5    1    1    2    0  502 -0.31462888433E+02 -0.20961987395E+02 -0.14548549764E+02  0.40724083345E+02  0.41800000000E+01 0.  1.
        -11    1    1    2    0    0 -0.15706793023E+02  0.51164944852E+02  0.49783088560E+02  0.73095217596E+02  0.00000000000E+00 0.  1.
         11    1    1    2    0    0  0.28999443954E+02 -0.48242054386E+00  0.15319761331E+03  0.15591891868E+03  0.00000000000E+00 0. -1.
</event>
<event>
 6    1  0.4988969E-006  0.4088820E+03  0.7561462E-02  0.1040747E+00
          2   -1    0    0  501    0  0.00000000000E+00  0.00000000000E+00  0.95906231165E+03  0.95906231165E+03  0.00000000000E+00 0. -1.
         -2   -1    0    0    0  501 -0.00000000000E+00 -0.00000000000E+00 -0.18849624293E+03  0.18849624293E+03  0.00000000000E+00 0.  1.
          5    1    1    2  502    0  0.56304124561E+02  0.18297045654E+03  0.67123594831E+02  0.20290734780E+03  0.41800000000E+01 0. -1.
         -5    1    1    2    0  502  0.12154256622E+03  0.17871191387E+03  0.21390913811E+03  0.30411368817E+03  0.41800000000E+01 0. -1.
        -11    1    1    2    0    0 -0.73095437949E+02 -0.23294410742E+03  0.25305597025E+03  0.35162938488E+03  0.00000000000E+00 0.  1.
         11    1    1    2    0    0 -0.10475125284E+03 -0.12873826298E+03  0.23647736554E+03  0.28890813373E+03  0.00000000000E+00 0. -1.
</event>
<event>
 6    1  0.4988969E-006  0.7103740E+02  0.7561462E-02  0.1356600E+00
         -2   -1    0    0    0  501 -0.00000000000E+00  0.00000000000E+00  0.57560567609E+02  0.57560567609E+02  0.00000000000E+00 0.  1.
          2   -1    0    0  501    0  0.00000000000E+00 -0.00000000000E+00 -0.25033417381E+03  0.25033417381E+03  0.00000000000E+00 0. -1.
          5    1    1    2  502    0  0.20413062486E+02 -0.67967785731E+01 -0.10641900194E+03  0.10865249971E+03  0.41800000000E+01 0.  1.
         -5    1    1    2    0  502  0.16749138304E+02 -0.85032213997E+01  0.35700497923E+02  0.40556582204E+02  0.41800000000E+01 0.  1.
        -11    1    1    2    0    0 -0.43897374408E+02  0.49440235198E+02 -0.72340308557E+02  0.98002227416E+02  0.00000000000E+00 0.  1.
         11    1    1    2    0    0  0.67351736183E+01 -0.34140235225E+02 -0.49714793625E+02  0.60683432089E+02  0.00000000000E+00 0. -1.
</event>
<event>
 6    1  0.4988969E-006  0.7944891E+02  0.7561462E-02  0.1330623E+00
         -2   -1    0    0    0  501 -0.00000000000E+00  0.00000000000E+00  0.45096758879E+02  0.45096758879E+02  0.00000000000E+00 0.  1.
          2   -1    0    0  501    0  0.00000000000E+00 -0.00000000000E+00 -0.21628003041E+03  0.21628003041E+03  0.00000000000E+00 0. -1.
          5    1    1    2  502    0  0.13008352871E+02  0.32135103169E+02 -0.11109694437E+03  0.11645550888E+03  0.41800000000E+01 0.  1.
         -5    1    1    2    0  502  0.67819126535E+01 -0.55195319357E+02 -0.34782079716E+01  0.55875647189E+02  0.41800000000E+01 0.  1.
        -11    1    1    2    0    0 -0.56072713600E+00  0.41538649678E+02 -0.39742940942E+02  0.57491522738E+02  0.00000000000E+00 0.  1.
         11    1    1    2    0    0 -0.19229538388E+02 -0.18478433490E+02 -0.16865178243E+02  0.31554110478E+02  0.00000000000E+00 0. -1.
</event>
<event>
 6    1  0.4988969E-006  0.9700976E+02  0.7561462E-02  0.1286713E+00
         -2   -1    0    0    0  501 -0.00000000000E+00  0.00000000000E+00  0.68387142289E+02  0.68387142289E+02  0.00000000000E+00 0.  1.
          2   -1    0    0  501    0  0.00000000000E+00 -0.00000000000E+00 -0.18267037121E+03  0.18267037121E+03  0.00000000000E+00 0. -1.
          5    1    1    2  502    0 -0.49953947154E+02  0.78137691105E+01 -0.49886494264E+02  0.71151855450E+02  0.41800000000E+01 0.  1.
         -5    1    1    2    0  502  0.73614076243E+02 -0.24802340166E+01 -0.32731564853E+02  0.80709426461E+02  0.41800000000E+01 0.  1.
        -11    1    1    2    0    0  0.19654257780E+02  0.11807814663E+02 -0.45203447683E+02  0.50685954844E+02  0.00000000000E+00 0. -1.
         11    1    1    2    0    0 -0.43314386869E+02 -0.17141349757E+02  0.13538277884E+02  0.48510276740E+02  0.00000000000E+00 0.  1.
</event>
<event>
 6    1  0.4988969E-006  0.1142179E+03  0.7561462E-02  0.1252952E+00
         -2   -1    0    0    0  501 -0.00000000000E+00  0.00000000000E+00  0.24813723492E+03  0.24813723492E+03  0.00000000000E+00 0. -1.
          2   -1    0    0  501    0  0.00000000000E+00 -0.00000000000E+00 -0.83960901667E+02  0.83960901667E+02  0.00000000000E+00 0.  1.
          5    1    1    2  502    0  0.69460216074E+02  0.77825419674E+02  0.10631394307E+03  0.14900216258E+03  0.41800000000E+01 0.  1.
         -5    1    1    2    0  502 -0.80943925191E+01 -0.65528523462E+01 -0.24972850670E+02  0.27378362528E+02  0.41800000000E+01 0.  1.
        -11    1    1    2    0    0 -0.45098182769E+02 -0.59392727803E+01 -0.41991232291E+01  0.45680999180E+02  0.00000000000E+00 0.  1.
         11    1    1    2    0    0 -0.16267640786E+02 -0.65333294548E+02  0.87034364085E+02  0.11003661229E+03  0.00000000000E+00 0. -1.
</event>
<event>
 6    1  0.4988969E-006  0.1203110E+03  0.7561462E-02  0.1242585E+00
          1   -1    0    0  501    0  0.00000000000E+00  0.00000000000E+00  0.11355086714E+03  0.11355086714E+03  0.00000000000E+00 0. -1.
         -1   -1    0    0    0  501 -0.00000000000E+00 -0.00000000000E+00 -0.13487047870E+03  0.13487047870E+03  0.00000000000E+00 0.  1.
          5    1    1    2  502    0 -0.69192116658E+02 -0.25729803671E+02 -0.24557701756E+02  0.77911006412E+02  0.41800000000E+01 0. -1.
         -5    1    1    2    0  502  0.12120551718E+02  0.56155920982E+02 -0.37395977947E+00  0.57602148234E+02  0.41800000000E+01 0.  1.
        -11    1    1    2    0    0  0.80902727847E+02 -0.24355454430E+02  0.14994508471E+02  0.85809526382E+02  0.00000000000E+00 0.  1.
         11    1    1    2    0    0 -0.23831162906E+02 -0.60706628814E+01 -0.11382458489E+02  0.27098664811E+02  0.00000000000E+00 0. -1.
</event>
<event>
 6    1  0.4988969E-006  0.1351394E+03  0.7561462E-02  0.1220023E+00
          2   -1    0    0  501    0  0.00000000000E+00  0.00000000000E+00  0.94544326525E+02  0.94544326525E+02  0.00000000000E+00 0. -1.
         -2   -1    0    0    0  501 -0.00000000000E+00 -0.00000000000E+00 -0.23642720672E+03  0.23642720672E+03  0.00000000000E+00 0.  1.
          5    1    1    2  502    0  0.48586850493E+02 -0.55910942732E+02 -0.54515840095E+02  0.92066089192E+02  0.41800000000E+01 0.  1.
         -5    1    1    2    0  502 -0.75271594339E+02 -0.40637998488E+02 -0.48117510130E+02  0.98234551033E+02  0.41800000000E+01 0.  1.
        -11    1    1    2    0    0  0.32824700811E+02  0.32807520117E+02  0.22620573821E+02  0.51628332527E+02  0.00000000000E+00 0. -1.
         11    1    1    2    0    0 -0.61399569641E+01  0.63741421103E+02 -0.61870103787E+02  0.89042560489E+02  0.00000000000E+00 0.  1.
</event>
<event>
 6    1  0.4988969E-006  0.9703725E+02  0.7561462E-02  0.1286653E+00
          2   -1    0    0  501    0  0.00000000000E+00  0.00000000000E+00  0.13437348288E+03  0.13437348288E+03  0.00000000000E+00 0. -1.
         -2   -1    0    0    0  501 -0.00000000000E+00 -0.00000000000E+00 -0.15040687806E+03  0.15040687806E+03  0.00000000000E+00 0.  1.
          5    1    1    2  502    0  0.42113260849E+02 -0.96560288685E+01  0.48264546122E+02  0.64913052965E+02  0.41800000000E+01 0. -1.
         -5    1    1    2    0  502 -0.48025770173E+02  0.52105197975E+02 -0.10283743756E+03  0.12495774174E+03  0.41800000000E+01 0.  1.
        -11    1    1    2    0    0  0.21349084940E+02 -0.55501753515E+02  0.10568223873E+02  0.60397975354E+02  0.00000000000E+00 0. -1.
         11    1    1    2    0    0 -0.15436575616E+02  0.13052584409E+02  0.27971272383E+02  0.34511590882E+02  0.00000000000E+00 0.  1.
</event>
<event>
 6    1  0.4988969E-006  0.1621245E+03  0.7561462E-02  0.1186319E+00
          1   -1    0    0  501    0  0.00000000000E+00  0.00000000000E+00  0.44553810980E+02  0.44553810980E+02  0.00000000000E+00 0. -1.
         -1   -1    0    0    0  501 -0.00000000000E+00 -0.00000000000E+00 -0.71644289392E+03  0.71644289392E+03  0.00000000000E+00 0.  1.
          5    1    1    2  502    0  0.10490223261E+02  0.44856979345E+02 -0.12652594791E+03  0.13471629921E+03  0.41800000000E+01 0.  1.
         -5    1    1    2    0  502  0.11525381835E+03 -0.64568764029E+02 -0.34649582647E+03  0.37084956261E+03  0.41800000000E+01 0.  1.
        -11    1    1    2    0    0 -0.36446156187E+02  0.40135879532E+02 -0.12992420038E+03  0.14078177783E+03  0.00000000000E+00 0.  1.
         11    1    1    2    0    0 -0.89297885428E+02 -0.20424094848E+02 -0.68943108186E+02  0.11464906523E+03  0.00000000000E+00 0. -1.
</event>
<event>
 6    1  0.4988969E-006  0.1473528E+03  0.7561462E-02  0.1203764E+00
          1   -1    0    0  501    0  0.00000000000E+00  0.00000000000E+00  0.91068867237E+02  0.91068867237E+02  0.00000000000E+00 0. -1.
         -1   -1    0    0    0  501 -0.00000000000E+00 -0.00000000000E+00 -0.39187967363E+03  0.39187967363E+03  0.00000000000E+00 0.  1.
          5    1    1    2  502    0 -0.41077663390E+02 -0.18285371093E+02 -0.20896253449E+03  0.21378620733E+03  0.41800000000E+01 0.  1.
         -5    1    1    2    0  502 -0.70146666445E+02 -0.55639869498E+02 -0.48017001339E+02  0.10168310926E+03  0.41800000000E+01 0.  1.
        -11    1    1    2    0    0  0.12225491110E+03  0.47281158993E+02 -0.26178038355E+02  0.13366772601E+03  0.00000000000E+00 0.  1.
         11    1    1    2    0    0 -0.11030581268E+02  0.26644081598E+02 -0.17653232208E+02  0.33811498262E+02  0.00000000000E+00 0. -1.
</event>
<event>
 6    1  0.4988969E-006  0.9224873E+02  0.7561462E-02  0.1297496E+00
          2   -1    0    0  501    0  0.00000000000E+00  0.00000000000E+00  0.19045630876E+03  0.19045630876E+03  0.00000000000E+00 0. -1.
         -2   -1    0    0    0  501 -0.00000000000E+00 -0.00000000000E+00 -0.83293099708E+02  0.83293099708E+02  0.00000000000E+00 0.  1.
          5    1    1    2  502    0 -0.12101717328E+02  0.54044969032E+02  0.49033324100E+02  0.74088119913E+02  0.41800000000E+01 0. -1.
         -5    1    1    2    0  502  0.50289153621E+02 -0.19511205540E+02 -0.30950037902E+02  0.62330276428E+02  0.41800000000E+01 0. -1.
        -11    1    1    2    0    0  0.13218804142E+02 -0.55130343853E+00  0.72249496738E+02  0.73450871318E+02  0.00000000000E+00 0. -1.
         11    1    1    2    0    0 -0.51406240435E+02 -0.33982460054E+02  0.16830426120E+02  0.63880140813E+02  0.00000000000E+00 0.  1.
</event>
<event>
 6    1  0.4988969E-006  0.1768502E+03  0.7561462E-02  0.1170887E+00
         -1   -1    0    0    0  501 -0.00000000000E+00  0.00000000000E+00  0.21399171097E+03  0.21399171097E+03  0.00000000000E+00 0.  1.
          1   -1    0    0  501    0  0.00000000000E+00 -0.00000000000E+00 -0.21665212269E+03  0.21665212269E+03  0.00000000000E+00 0. -1.
          5    1    1    2  502    0  0.46349105368E+02  0.81581855724E+02  0.34547717190E+02  0.10007425201E+03  0.41800000000E+01 0.  1.
         -5    1    1    2    0  502 -0.75000991077E+02  0.69342793916E+02  0.70281034802E+02  0.12405832493E+03  0.41800000000E+01 0.  1.
        -11    1    1    2    0    0 -0.73262590867E+01 -0.12170456591E+02 -0.50154238325E+02  0.52127168615E+02  0.00000000000E+00 0. -1.
         11    1    1    2    0    0  0.35978144795E+02 -0.13875419305E+03 -0.57334925390E+02  0.15438408811E+03  0.00000000000E+00 0.  1.
</event>
<event>
 6    1  0.4988969E-006  0.1915395E+03  0.7561462E-02  0.1157080E+00
          1   -1    0    0  501    0  0.00000000000E+00  0.00000000000E+00  0.38353675939E+03  0.38353675939E+03  0.00000000000E+00 0. -1.
         -1   -1    0    0    0  501 -0.00000000000E+00 -0.00000000000E+00 -0.11935534883E+03  0.11935534883E+03  0.00000000000E+00 0.  1.
          5    1    1    2  502    0 -0.74740075322E+02  0.17868061078E+02 -0.25081105768E+02  0.80943688651E+02  0.41800000000E+01 0. -1.
         -5    1    1    2    0  502 -0.10229435104E+03 -0.34605870356E+02  0.10503810017E+03  0.15070559182E+03  0.41800000000E+01 0. -1.
        -11    1    1    2    0    0  0.31078490377E+02 -0.31575736182E+02  0.30207809175E+02  0.53622862799E+02  0.00000000000E+00 0.  1.
         11    1    1    2    0    0  0.14595593598E+03  0.48313545460E+02  0.15401660697E+03  0.21761996495E+03  0.00000000000E+00 0. -1.
</event>
<event>
 6    1  0.4988969E-006  0.2035340E+03  0.7561462E-02  0.1146791E+00
         -2   -1    0    0    0  501 -0.00000000000E+00  0.00000000000E+00  0.51413915879E+03  0.51413915879E+03  0.00000000000E+00 0.  1.
          2   -1    0    0  501    0  0.00000000000E+00 -0.00000000000E+00 -0.96315678804E+02  0.96315678804E+02  0.00000000000E+00 0. -1.
          5    1    1    2  502    0 -0.45715949215E+02  0.16581269091E+03  0.11672583728E+03  0.20790909063E+03  0.41800000000E+01 0. -1.
         -5    1    1    2    0  502 -0.81832508384E+01  0.20182844575E+02  0.12185225674E+03  0.12385377540E+03  0.41800000000E+01 0. -1.
        -11    1    1    2    0    0 -0.10797433511E+02 -0.11978249287E+03  0.91217865990E+02  0.15094743868E+03  0.00000000000E+00 0.  1.
         11    1    1    2    0    0  0.64696633565E+02 -0.66213042620E+02  0.88027519980E+02  0.12774453288E+03  0.00000000000E+00 0. -1.
</event>
<event>
 6    1  0.4988969E-006  0.1584278E+03  0.7561462E-02  0.1190483E+00
          1   -1    0    0  501    0  0.00000000000E+00  0.00000000000E+00  0.43118380901E+02  0.43118380901E+02  0.00000000000E+00 0. -1.
         -1   -1    0    0    0  501 -0.00000000000E+00 -0.00000000000E+00 -0.10142719950E+04  0.10142719950E+04  0.00000000000E+00 0.  1.
          5    1    1    2  502    0  0.26373360610E+02  0.14642107348E+03 -0.73346320409E+03  0.74841193808E+03  0.41800000000E+01 0. -1.
         -5    1    1    2    0  502  0.94963242562E+01 -0.25227052687E+02 -0.90427683454E+02  0.94452224413E+02  0.41800000000E+01 0. -1.
        -11    1    1    2    0    0  0.13944335101E+01 -0.95426499386E+02 -0.51170745707E+02  0.10828945676E+03  0.00000000000E+00 0. -1.
         11    1    1    2    0    0 -0.37264118376E+02 -0.25767521409E+02 -0.96091980803E+02  0.10623675660E+03  0.00000000000E+00 0.  1.
</event>
<event>
 6    1  0.4988969E-006  0.1497733E+03  0.7561462E-02  0.1200752E+00
         -1   -1    0    0    0  501 -0.00000000000E+00  0.00000000000E+00  0.32352862358E+02  0.32352862358E+02  0.00000000000E+00 0.  1.
          1   -1    0    0  501    0  0.00000000000E+00 -0.00000000000E+00 -0.78319867895E+03  0.78319867895E+03  0.00000000000E+00 0. -1.
          5    1    1    2  502    0  0.12850630312E+03  0.39877460049E+02 -0.30552645777E+03  0.33386819340E+03  0.41800000000E+01 0.  1.
         -5    1    1    2    0  502 -0.16583378908E+02 -0.25236183552E+02 -0.37700049365E+02  0.48483394461E+02  0.41800000000E+01 0.  1.
        -11    1    1    2    0    0 -0.96239133166E+02  0.18297395064E+02 -0.20356813464E+03  0.22591314893E+03  0.00000000000E+00 0.  1.
         11    1    1    2    0    0 -0.15683791049E+02 -0.32938671561E+02 -0.20405117482E+03  0.20728680452E+03  0.00000000000E+00 0. -1.
</event>
<event>
 6    1  0.4988969E-006  0.1041225E+03  0.7561462E-02  0.1271858E+00
          1   -1    0    0  501    0  0.00000000000E+00  0.00000000000E+00  0.34546015397E+03  0.34546015397E+03  0.00000000000E+00 0. -1.
         -1   -1    0    0    0  501 -0.00000000000E+00 -0.00000000000E+00 -0.42757835800E+02  0.42757835800E+02  0.00000000000E+00 0.  1.
          5    1    1    2  502    0 -0.10534316809E+02 -0.31536208382E+02  0.12247164218E+03  0.12697353980E+03  0.41800000000E+01 0. -1.
         -5    1    1    2    0  502 -0.32860279147E+02  0.62392394502E+02  0.28505865053E+02  0.76175229436E+02  0.41800000000E+01 0. -1.
        -11    1    1    2    0    0 -0.24669444013E+02  0.77310317211E+01  0.54103688574E+02  0.59962983887E+02  0.00000000000E+00 0. -1.
         11    1    1    2    0    0  0.68064039968E+02 -0.38587217841E+02  0.97621122361E+02  0.12510623665E+03  0.00000000000E+00 0.  1.
</event>
<event>
 6    1  0.4988969E-006  0.1262212E+03  0.7561462E-02  0.1233173E+00
          1   -1    0    0  501    0  0.00000000000E+00  0.00000000000E+00  0.77087956644E+03  0.77087956644E+03  0.00000000000E+00 0. -1.
         -1   -1    0    0    0  501 -0.00000000000E+00 -0.00000000000E+00 -0.22226805331E+02  0.22226805331E+02  0.00000000000E+00 0.  1.
          5    1    1    2  502    0 -0.97235925711E+02  0.29918442123E+02  0.38725518077E+03  0.40041726469E+03  0.41800000000E+01 0.  1.
         -5    1    1    2    0  502  0.27605920068E+02 -0.21163717179E+02  0.62427675468E+02  0.71586848038E+02  0.41800000000E+01 0.  1.
        -11    1    1    2    0    0 -0.15506677875E+02  0.20374867624E+02  0.46605199962E+02  0.53175529644E+02  0.00000000000E+00 0.  1.
         11    1    1    2    0    0  0.85136683518E+02 -0.29129592567E+02  0.25236470491E+03  0.26792672940E+03  0.00000000000E+00 0. -1.
</event>
<event>
 6    1  0.4988969E-006  0.9953954E+02  0.7561462E-02  0.1281267E+00
          1   -1    0    0  501    0  0.00000000000E+00  0.00000000000E+00  0.10728511026E+03  0.10728511026E+03  0.00000000000E+00 0. -1.
         -1   -1    0    0    0  501 -0.00000000000E+00 -0.00000000000E+00 -0.19880665187E+03  0.19880665187E+03  0.00000000000E+00 0.  1.
          5    1    1    2  502    0 -0.41226829159E+02  0.14854977612E+02 -0.33103541711E+02  0.55078477432E+02  0.41800000000E+01 0. -1.
         -5    1    1    2    0  502  0.80526639977E+02 -0.29602781005E+02 -0.11006596745E+03  0.13961681124E+03  0.41800000000E+01 0. -1.
        -11    1    1    2    0    0 -0.46130098292E+02 -0.67348120088E+01 -0.82982489455E+01  0.47351922841E+02  0.00000000000E+00 0.  1.
         11    1    1    2    0    0  0.68302874741E+01  0.21482615401E+02  0.59946216503E+02  0.64044550622E+02  0.00000000000E+00 0. -1.
</event>
<event>
 6    1  0.4988969E-006  0.1461030E+03  0.7561462E-02  0.1205345E+00
         -2   -1    0    0    0  501 -0.00000000000E+00  0.00000000000E+00  0.24605826148E+03  0.24605826148E+03  0.00000000000E+00 0.  1.
          2   -1    0    0  501    0  0.00000000000E+00 -0.00000000000E+00 -0.14405352809E+03  0.14405352809E+03  0.00000000000E+00 0. -1.
          5    1    1    2  502    0 -0.18814569145E+02 -0.22214138116E+02  0.27775888740E+01  0.29540537306E+02  0.41800000000E+01 0.  1.
         -5    1    1    2    0  502 -0.28769402731E+02  0.12222028543E+03  0.16340912767E+03  0.20612009148E+03  0.41800000000E+01 0.  1.
        -11    1    1    2    0    0  0.89598899613E+01 -0.98086029148E+02 -0.30336926043E+02  0.10306055416E+03  0.00000000000E+00 0.  1.
         11    1    1    2    0    0  0.38624081915E+02 -0.19201181659E+01 -0.33845057115E+02  0.51390606618E+02  0.00000000000E+00 0. -1.
</event>
<event>
 6    1  0.4988969E-006  0.6437614E+02  0.7561462E-02  0.1380334E+00
         -2   -1    0    0    0  501 -0.00000000000E+00  0.00000000000E+00  0.23681489533E+03  0.23681489533E+03  0.00000000000E+00 0.  1.
          2   -1    0    0  501    0  0.00000000000E+00 -0.00000000000E+00 -0.51630320600E+02  0.51630320600E+02  0.00000000000E+00 0. -1.
          5    1    1    2  502    0 -0.18702381520E+01 -0.23937518790E+02 -0.16727461803E+02  0.29559820279E+02  0.41800000000E+01 0. -1.
         -5    1    1    2    0  502  0.12467620619E+02  0.26415776491E+02  0.15264230705E+03  0.15546826400E+03  0.41800000000E+01 0. -1.
        -11    1    1    2    0    0 -0.29005011486E+02 -0.30021883784E+02 -0.26500381343E+01  0.41828541683E+02  0.00000000000E+00 0. -1.
         11    1    1    2    0    0  0.18407629019E+02  0.27543626083E+02  0.51919767617E+02  0.61588589960E+02  0.00000000000E+00 0.  1.
</event>
<event>
 6    1  0.4988969E-006  0.1857104E+03  0.7561462E-02  0.1162388E+00
          1   -1    0    0  501    0  0.00000000000E+00  0.00000000000E+00  0.44528178137E+03  0.44528178137E+03  0.00000000000E+00 0. -1.
         -1   -1    0    0    0  501 -0.00000000000E+00 -0.00000000000E+00 -0.88444806150E+02  0.88444806150E+02  0.00000000000E+00 0.  1.
          5    1    1    2  502    0 -0.72333108568E+02  0.41848100601E+02  0.18847216987E+02  0.85767313746E+02  0.41800000000E+01 0.  1.
         -5    1    1    2    0  502 -0.92721398174E+02 -0.43925719680E+02  0.14828297088E+03  0.18036640037E+03  0.41800000000E+01 0.  1.
        -11    1    1    2    0    0  0.70790102431E+01 -0.23936923690E+02  0.46553790870E+02  0.52823708182E+02  0.00000000000E+00 0. -1.
         11    1    1    2    0    0  0.15797549650E+03  0.26014542769E+02  0.14315299649E+03  0.21476916523E+03  0.00000000000E+00 0.  1.
</event>
<event>
 6    1  0.4988969E-006  0.1779678E+03  0.7561462E-02  0.1169784E+00
         -1   -1    0    0    0  501 -0.00000000000E+00  0.00000000000E+00  0.54516478696E+02  0.54516478696E+02  0.00000000000E+00 0.  1.
          1   -1    0    0  501    0  0.00000000000E+00 -0.00000000000E+00 -0.74315648492E+03  0.74315648492E+03  0.00000000000E+00 0. -1.
          5    1    1    2  502    0 -0.67608458281E+02 -0.79334667143E+02 -0.13051160798E+03  0.16707975718E+03  0.41800000000E+01 0.  1.
         -5    1    1    2    0  502  0.54779739768E+02 -0.63432249686E+02 -0.69470421349E+02  0.10894072715E+03  0.41800000000E+01 0.  1.
        -11    1    1    2    0    0 -0.30719509901E+02  0.18119867784E+02 -0.38282926856E+02  0.52322083155E+02  0.00000000000E+00 0.  1.
         11    1    1    2    0    0  0.43548228414E+02  0.12464704905E+03 -0.45037505005E+03  0.46933039614E+03  0.00000000000E+00 0. -1.
</event>
<event>
 6    1  0.4988969E-006  0.1258742E+03  0.7561462E-02  0.1233709E+00
          3   -1    0    0  501    0  0.00000000000E+00  0.00000000000E+00  0.21527412484E+03  0.21527412484E+03  0.00000000000E+00 0. -1.
         -3   -1    0    0    0  501 -0.00000000000E+00 -0.00000000000E+00 -0.80023097105E+02  0.80023097105E+02  0.00000000000E+00 0.  1.
          5    1    1    2  502    0  0.10355200882E+03 -0.21137615091E+02  0.35414598678E+02  0.11154139816E+03  0.41800000000E+01 0.  1.
         -5    1    1    2    0  502 -0.32313604261E+02  0.18543495075E+02  0.21939104100E+02  0.43437621005E+02  0.41800000000E+01 0.  1.
        -11    1    1    2    0    0  0.29211795732E+01 -0.28082733688E+02 -0.34351723144E+00  0.28236345826E+02  0.00000000000E+00 0.  1.
         11    1    1    2    0    0 -0.74159584137E+02  0.30676853705E+02  0.78240842188E+02  0.11208185696E+03  0.00000000000E+00 0. -1.
</event>
<event>
 6    1  0.4988969E-006  0.6220409E+02  0.7561462E-02  0.1388808E+00
          1   -1    0    0  501    0  0.00000000000E+00  0.00000000000E+00  0.23598321942E+03  0.23598321942E+03  0.00000000000E+00 0. -1.
         -1   -1    0    0    0  501 -0.00000000000E+00 -0.00000000000E+00 -0.54334536749E+02  0.54334536749E+02  0.00000000000E+00 0.  1.
          5    1    1    2  502    0  0.61437569612E+01  0.21279709309E+02  0.98680213842E+02  0.10122168138E+03  0.41800000000E+01 0.  1.
         -5    1    1    2    0  502  0.11842990301E+02  0.19158119164E+01 -0.36669333520E+02  0.38807720564E+02  0.41800000000E+01 0.  1.
        -11    1    1    2    0    0 -0.50742528671E+02 -0.24572820121E+02  0.60687043636E+02  0.82834443137E+02  0.00000000000E+00 0.  1.
         11    1    1    2    0    0  0.32755781409E+02  0.13772988959E+01  0.58950758715E+02  0.67453911088E+02  0.00000000000E+00 0. -1.
</event>
<event>
 6    1  0.4988969E-006  0.7955452E+02  0.7561462E-02  0.1330320E+00
         -2   -1    0    0    0  501 -0.00000000000E+00  0.00000000000E+00  0.19088732738E+02  0.19088732738E+02  0.00000000000E+00 0.  1.
          2   -1    0    0  501    0  0.00000000000E+00 -0.00000000000E+00 -0.56500220991E+03  0.56500220991E+03  0.00000000000E+00 0. -1.
          5    1    1    2  502    0 -0.46954090774E+00  0.42349418724E+02 -0.25851175942E+03  0.26199140424E+03  0.41800000000E+01 0.  1.
         -5    1    1    2    0  502  0.33235860327E+01 -0.60221409417E+02 -0.87267713291E+02  0.10616397958E+03  0.41800000000E+01 0.  1.
        -11    1    1    2    0    0 -0.27705296124E+02  0.13652975018E+02 -0.18268721839E+03  0.18527980712E+03  0.00000000000E+00 0. -1.
         11    1    1    2    0    0  0.24851250999E+02  0.42190156748E+01 -0.17446786066E+02  0.30655751720E+02  0.00000000000E+00 0.  1.
</event>
<event>
 6    1  0.4988969E-006  0.1290171E+03  0.7561462E-02  0.1228921E+00
         -2   -1    0    0    0  501 -0.00000000000E+00  0.00000000000E+00  0.15128059350E+03  0.15128059350E+03  0.00000000000E+00 0.  1.
          2   -1    0    0  501    0  0.00000000000E+00 -0.00000000000E+00 -0.27969940305E+03  0.27969940305E+03  0.00000000000E+00 0. -1.
          5    1    1    2  502    0 -0.32063209392E+02 -0.16513274273E+02 -0.71380506329E+02  0.80083623217E+02  0.41800000000E+01 0. -1.
         -5    1    1    2    0  502  0.23825642533E+02 -0.93232499728E+02  0.99957341252E+02  0.13881247321E+03  0.41800000000E+01 0.  1.
        -11    1    1    2    0    0  0.34118230190E+02  0.71566659715E+02 -0.45470277788E+02  0.91396863055E+02  0.00000000000E+00 0.  1.
         11    1    1    2    0    0 -0.25880663331E+02  0.38179114286E+02 -0.11152536669E+03  0.12068703707E+03  0.00000000000E+00 0. -1.
</event>
<event>
 6    1  0.4988969E-006  0.1021385E+03  0.7561462E-02  0.1275862E+00
          1   -1    0    0  501    0  0.00000000000E+00  0.00000000000E+00  0.85654226859E+03  0.85654226859E+03  0.00000000000E+00 0. -1.
         -1   -1    0    0    0  501 -0.00000000000E+00 -0.00000000000E+00 -0.19058324497E+02  0.19058324497E+02  0.00000000000E+00 0.  1.
          5    1    1    2  502    0  0.15541379614E+00 -0.30487110020E+02  0.31958863519E+03  0.32106674723E+03  0.41800000000E+01 0.  1.
         -5    1    1    2    0  502  0.65088224920E+02  0.99247006979E+01  0.83023573852E+02  0.10604415553E+03  0.41800000000E+01 0.  1.
        -11    1    1    2    0    0 -0.53216130206E+02  0.51673390902E+02  0.33777044423E+03  0.34581927193E+03  0.00000000000E+00 0. -1.
         11    1    1    2    0    0 -0.12027508510E+02 -0.31110981580E+02  0.97101290815E+02  0.10267041840E+03  0.00000000000E+00 0.  1.
</event>
<event>
 6    1  0.4988969E-006  0.1639328E+03  0.7561462E-02  0.1184327E+00
          2   -1    0    0  501    0  0.00000000000E+00  0.00000000000E+00  0.10888249437E+04  0.10888249437E+04  0.00000000000E+00 0. -1.
         -2   -1    0    0    0  501 -0.00000000000E+00 -0.00000000000E+00 -0.37361320513E+02  0.37361320513E+02  0.00000000000E+00 0.  1.
          5    1    1    2  502    0  0.48615478315E+02 -0.97062064365E+02  0.99299894362E+02  0.14718169210E+03  0.41800000000E+01 0. -1.
         -5    1    1    2    0  502 -0.49418552516E+01 -0.49642993197E+02  0.24294854113E+03  0.24805304825E+03  0.41800000000E+01 0. -1.
        -11    1    1    2    0    0  0.15918096004E+02  0.71301912127E+02  0.41659832973E+03  0.42295569128E+03  0.00000000000E+00 0. -1.
         11    1    1    2    0    0 -0.59591719067E+02  0.75403145435E+02  0.29261685799E+03  0.30799583260E+03  0.00000000000E+00 0.  1.
</event>
<event>
 6    1  0.4988969E-006  0.1108798E+03  0.7561462E-02  0.1258949E+00
          1   -1    0    0  501    0  0.00000000000E+00  0.00000000000E+00  0.10273045602E+02  0.10273045602E+02  0.00000000000E+00 0. -1.
         -1   -1    0    0    0  501 -0.00000000000E+00 -0.00000000000E+00 -0.15116459469E+04  0.15116459469E+04  0.00000000000E+00 0.  1.
          5    1    1    2  502    0  0.31031245451E+02 -0.79186082527E+01 -0.55580045972E+03  0.55673805867E+03  0.41800000000E+01 0.  1.
         -5    1    1    2    0  502 -0.86957604332E+02  0.94220952621E+01 -0.45964385277E+03  0.46791061606E+03  0.41800000000E+01 0.  1.
        -11    1    1    2    0    0  0.78503520299E+02 -0.65008691274E+01 -0.42198104375E+03  0.42927038715E+03  0.00000000000E+00 0. -1.
         11    1    1    2    0    0 -0.22577161418E+02  0.49973821179E+01 -0.63947545074E+02  0.67999930638E+02  0.00000000000E+00 0.  1.
</event>
<event>
 6    1  0.4988969E-006  0.1277766E+03  0.7561462E-02  0.1230793E+00
         -1   -1    0    0    0  501 -0.00000000000E+00  0.00000000000E+00  0.53088429211E+02  0.53088429211E+02  0.00000000000E+00 0.  1.
          1   -1    0    0  501    0  0.00000000000E+00 -0.00000000000E+00 -0.57146441246E+03  0.57146441246E+03  0.00000000000E+00 0. -1.
          5    1    1    2  502    0  0.43417254442E+02 -0.18115744973E+02 -0.62808361996E+02  0.78584991798E+02  0.41800000000E+01 0.  1.
         -5    1    1    2    0  502 -0.65278917077E+02 -0.56565945464E+02 -0.14145245019E+02  0.87627641516E+02  0.41800000000E+01 0.  1.
        -11    1    1    2    0    0  0.54950681320E+02  0.69103243791E+02 -0.34968497953E+03  0.36065831556E+03  0.00000000000E+00 0. -1.
         11    1    1    2    0    0 -0.33089018686E+02  0.55784466465E+01 -0.91737396705E+02  0.97681892789E+02  0.00000000000E+00 0.  1.
</event>
<event>
 6    1  0.4988969E-006  0.8493680E+02  0.7561462E-02  0.1315598E+00
          1   -1    0    0  501    0  0.00000000000E+00  0.00000000000E+00  0.55056848678E+02  0.55056848678E+02  0.00000000000E+00 0. -1.
         -1   -1    0    0    0  501 -0.00000000000E+00 -0.00000000000E+00 -0.22251549669E+03  0.22251549669E+03  0.00000000000E+00 0.  1.
          5    1    1    2  502    0 -0.44492973506E+02 -0.40054063375E+02 -0.84184627765E+02  0.10338508904E+03  0.41800000000E+01 0.  1.
         -5    1    1    2    0  502  0.39219325324E+02  0.44660280225E+02 -0.32744959889E+02  0.67988240945E+02  0.41800000000E+01 0.  1.
        -11    1    1    2    0    0  0.11836815568E+02 -0.25642193548E+02  0.18483909583E+02  0.33753328817E+02  0.00000000000E+00 0. -1.
         11    1    1    2    0    0 -0.65631673850E+01  0.21035976697E+02 -0.69012969940E+02  0.72445686563E+02  0.00000000000E+00 0.  1.
</event>
<event>
 6    1  0.4988969E-006  0.1053548E+03  0.7561462E-02  0.1269422E+00
          1   -1    0    0  501    0  0.00000000000E+00  0.00000000000E+00  0.41997996399E+03  0.41997996399E+03  0.00000000000E+00 0. -1.
         -1   -1    0    0    0  501 -0.00000000000E+00 -0.00000000000E+00 -0.48621362982E+02  0.48621362982E+02  0.00000000000E+00 0.  1.
          5    1    1    2  502    0  0.56470824789E+02  0.44985916827E+02  0.18741016258E+02  0.74708666535E+02  0.41800000000E+01 0. -1.
         -5    1    1    2    0  502 -0.18520771604E+02  0.34594539895E+02  0.14136812445E+03  0.14677268200E+03  0.41800000000E+01 0. -1.
        -11    1    1    2    0    0  0.26140058037E+01 -0.46530661404E+02  0.23456776003E+02  0.52174283105E+02  0.00000000000E+00 0.  1.
         11    1    1    2    0    0 -0.40564058989E+02 -0.33049795317E+02  0.18779268430E+03  0.19494569534E+03  0.00000000000E+00 0. -1.
</event>
<event>
 6    1  0.4988969E-006  0.8190598E+02  0.7561462E-02  0.1323728E+00
         -2   -1    0    0    0  501 -0.00000000000E+00  0.00000000000E+00  0.74505624485E+03  0.74505624485E+03  0.00000000000E+00 0. -1.
          2   -1    0    0  501    0  0.00000000000E+00 -0.00000000000E+00 -0.17918341714E+02  0.17918341714E+02  0.00000000000E+00 0.  1.
          5    1    1    2  502    0 -0.33225295629E+02  0.36443743288E+02  0.38525683560E+03  0.38842292475E+03  0.41800000000E+01 0.  1.
         -5    1    1    2    0  502  0.19468819761E+02  0.83400017536E+00  0.14863064615E+01  0.19985294746E+02  0.41800000000E+01 0.  1.
        -11    1    1    2    0    0  0.49815345449E+02 -0.28044428290E+02  0.14909512429E+03  0.15967909909E+03  0.00000000000E+00 0.  1.
         11    1    1    2    0    0 -0.36058869582E+02 -0.92333151734E+01  0.19129963678E+03  0.19488726797E+03  0.00000000000E+00 0. -1.
</event>
<event>
 6    1  0.4988969E-006  0.9650832E+02  0.7561462E-02  0.1287815E+00
         -1   -1    0    0    0  501 -0.00000000000E+00  0.00000000000E+00  0.12124412010E+03  0.12124412010E+03  0.00000000000E+00 0.  1.
          1   -1    0    0  501    0  0.00000000000E+00 -0.00000000000E+00 -0.10959434362E+03  0.10959434362E+03  0.00000000000E+00 0. -1.
          5    1    1    2  502    0 -0.39499667756E+02 -0.30546168942E+01  0.39211761919E+02  0.55898024204E+02  0.41800000000E+01 0. -1.
         -5    1    1    2    0  502  0.68766419152E+02  0.14086981637E+02 -0.23171141593E+02  0.74038082481E+02  0.41800000000E+01 0. -1.
        -11    1    1    2    0    0  0.14151829537E+02  0.23467204001E+02  0.25905186956E+02  0.37710246009E+02  0.00000000000E+00 0.  1.
         11    1    1    2    0    0 -0.43418580934E+02 -0.34499568743E+02 -0.30296030805E+02  0.63192111029E+02  0.00000000000E+00 0. -1.
</event>
<event>
 6    1  0.4988969E-006  0.1324071E+03  0.7561462E-02  0.1223927E+00
          2   -1    0    0  501    0  0.00000000000E+00  0.00000000000E+00  0.33590008617E+03  0.33590008617E+03  0.00000000000E+00 0. -1.
         -2   -1    0    0    0  501 -0.00000000000E+00 -0.00000000000E+00 -0.60040277464E+02  0.60040277464E+02  0.00000000000E+00 0.  1.
          5    1    1    2  502    0  0.64185976764E+02  0.93200831538E+02  0.17511002676E+03  0.20853591653E+03  0.41800000000E+01 0. -1.
         -5    1    1    2    0  502 -0.19324656468E+02 -0.21042316060E+02  0.10114774388E+02  0.30594157509E+02  0.41800000000E+01 0. -1.
        -11    1    1    2    0    0 -0.14317415607E+02 -0.87398695800E+02  0.83945430600E+02  0.12202604532E+03  0.00000000000E+00 0. -1.
         11    1    1    2    0    0 -0.30543904689E+02  0.15240180323E+02  0.66895769604E+01  0.34784244276E+02  0.00000000000E+00 0.  1.
</event>
<event>
 6    1  0.4988969E-006  0.1300319E+03  0.7561462E-02  0.1227408E+00
          1   -1    0    0  501    0  0.00000000000E+00  0.00000000000E+00  0.21048509539E+03  0.21048509539E+03  0.00000000000E+00 0. -1.
         -1   -1    0    0    0  501 -0.00000000000E+00 -0.00000000000E+00 -0.11305086975E+03  0.11305086975E+03  0.00000000000E+00 0.  1.
          5    1    1    2  502    0  0.93486928625E+01 -0.35135377820E+02 -0.67149277151E+01  0.37208271755E+02  0.41800000000E+01 0. -1.
         -5    1    1    2    0  502 -0.47550138558E+02  0.96858520663E+02 -0.26538833139E+02  0.11119519219E+03  0.41800000000E+01 0. -1.
        -11    1    1    2    0    0 -0.13268909647E+02  0.16915895541E+02  0.15699998285E+02  0.26621446830E+02  0.00000000000E+00 0.  1.
         11    1    1    2    0    0  0.51470355343E+02 -0.78639038384E+02  0.11498798821E+03  0.14851105437E+03  0.00000000000E+00 0. -1.
</event>
<event>
 6    1  0.4988969E-006  0.1383366E+03  0.7561462E-02  0.1215585E+00
         -2   -1    0    0    0  501 -0.00000000000E+00  0.00000000000E+00  0.70259854564E+02  0.70259854564E+02  0.00000000000E+00 0.  1.
          2   -1    0    0  501    0  0.00000000000E+00 -0.00000000000E+00 -0.30370597119E+03  0.30370597119E+03  0.00000000000E+00 0. -1.
          5    1    1    2  502    0 -0.77435465495E+02  0.31864682901E+02 -0.68807338499E+02  0.10845981543E+03  0.41800000000E+01 0. -1.
         -5    1    1    2    0  502  0.42745046042E+02  0.62500394491E+02 -0.43554956277E+02  0.87452529346E+02  0.41800000000E+01 0. -1.
        -11    1    1    2    0    0  0.33988658532E+01 -0.83951061465E+02 -0.45410798064E+02  0.95506406020E+02  0.00000000000E+00 0.  1.
         11    1    1    2    0    0  0.31291553600E+02 -0.10414015928E+02 -0.75673023790E+02  0.82547074957E+02  0.00000000000E+00 0. -1.
</event>
<event>
 6    1  0.4988969E-006  0.9443771E+02  0.7561462E-02  0.1292448E+00
          1   -1    0    0  501    0  0.00000000000E+00  0.00000000000E+00  0.38593431488E+02  0.38593431488E+02  0.00000000000E+00 0. -1.
         -1   -1    0    0    0  501 -0.00000000000E+00 -0.00000000000E+00 -0.34585440051E+03  0.34585440051E+03  0.00000000000E+00 0.  1.
          5    1    1    2  502    0 -0.16649618225E+02  0.35399805033E+02 -0.12887039108E+03  0.13474199820E+03  0.41800000000E+01 0. -1.
         -5    1    1    2    0  502  0.57505661559E+02 -0.50259143557E+02 -0.66927826437E+02  0.10163507748E+03  0.41800000000E+01 0. -1.
        -11    1    1    2    0    0  0.15200041612E+02  0.57637411853E+01  0.62174829582E+01  0.17404570429E+02  0.00000000000E+00 0. -1.
         11    1    1    2    0    0 -0.56056084946E+02  0.90955973382E+01 -0.11768023447E+03  0.13066618589E+03  0.00000000000E+00 0.  1.
</event>
<event>
 6    1  0.4988969E-006  0.1743946E+03  0.7561462E-02  0.1173341E+00
         -1   -1    0    0    0  501 -0.00000000000E+00  0.00000000000E+00  0.10587231677E+03  0.10587231677E+03  0.00000000000E+00 0.  1.
          1   -1    0    0  501    0  0.00000000000E+00 -0.00000000000E+00 -0.33295377351E+03  0.33295377351E+03  0.00000000000E+00 0. -1.
          5    1    1    2  502    0 -0.69522075711E+02 -0.48150592575E+02 -0.74287965316E+02  0.11264090184E+03  0.41800000000E+01 0. -1.
         -5    1    1    2    0  502 -0.10521107041E+02  0.13116819232E+03 -0.31543050667E+02  0.13538177431E+03  0.41800000000E+01 0.  1.
        -11    1    1    2    0    0  0.79382680096E+02 -0.39011373760E+02 -0.37255200721E+02  0.95976284376E+02  0.00000000000E+00 0.  1.
         11    1    1    2    0    0  0.66050265524E+00 -0.44006225981E+02 -0.83995240034E+02  0.94827129753E+02  0.00000000000E+00 0. -1.
</event>
<event>
 6    1  0.4988969E-006  0.9244873E+02  0.7561462E-02  0.1297028E+00
          2   -1    0    0  501    0  0.00000000000E+00  0.00000000000E+00  0.45998892258E+03  0.45998892258E+03  0.00000000000E+00 0.  1.
         -2   -1    0    0    0  501 -0.00000000000E+00 -0.00000000000E+00 -0.29812416933E+02  0.29812416933E+02  0.00000000000E+00 0. -1.
          5    1    1    2  502    0 -0.33899292287E+02 -0.44639935422E+01  0.10515657444E+02  0.36015839673E+02  0.41800000000E+01 0. -1.
         -5    1    1    2    0  502  0.74850184811E+02 -0.89878516084E+01  0.18753330854E+03  0.20216217711E+03  0.41800000000E+01 0. -1.
        -11    1    1    2    0    0 -0.31118991250E+01  0.32455472671E+02  0.18668556768E+03  0.18951132632E+03  0.00000000000E+00 0.  1.
         11    1    1    2    0    0 -0.37838993400E+02 -0.19003627520E+02  0.45441971985E+02  0.62111996412E+02  0.00000000000E+00 0. -1.
</event>
<event>
 6    1  0.4988969E-006  0.1592257E+03  0.7561462E-02  0.1189574E+00
          3   -1    0    0  501    0  0.00000000000E+00  0.00000000000E+00  0.27925955256E+02  0.27925955256E+02  0.00000000000E+00 0. -1.
         -3   -1    0    0    0  501 -0.00000000000E+00 -0.00000000000E+00 -0.20307684130E+04  0.20307684130E+04  0.00000000000E+00 0.  1.
          5    1    1    2  502    0  0.99540549012E+02 -0.63758172008E+02 -0.80717657687E+03  0.81579710961E+03  0.41800000000E+01 0. -1.
         -5    1    1    2    0  502 -0.90223072673E+01  0.71551326028E+02 -0.10349592649E+04  0.10374772994E+04  0.41800000000E+01 0.  1.
        -11    1    1    2    0    0  0.54857034933E+01  0.25678431064E+02 -0.31576998721E+02  0.41068012041E+02  0.00000000000E+00 0.  1.
         11    1    1    2    0    0 -0.96003945238E+02 -0.33471585085E+02 -0.12912961721E+03  0.16435194721E+03  0.00000000000E+00 0. -1.
</event>
<event>
 6    1  0.4988969E-006  0.1350873E+03  0.7561462E-02  0.1220097E+00
         -1   -1    0    0    0  501 -0.00000000000E+00  0.00000000000E+00  0.64781010463E+02  0.64781010463E+02  0.00000000000E+00 0.  1.
          1   -1    0    0  501    0  0.00000000000E+00 -0.00000000000E+00 -0.33239319759E+03  0.33239319759E+03  0.00000000000E+00 0. -1.
          5    1    1    2  502    0  0.29376887386E+02 -0.97653561762E+02 -0.10043925574E+03  0.14319474897E+03  0.41800000000E+01 0. -1.
         -5    1    1    2    0  502 -0.46272165763E+02  0.49432992896E+01 -0.82708731068E+01  0.47449228384E+02  0.41800000000E+01 0. -1.
        -11    1    1    2    0    0 -0.29911936076E+02  0.48633108016E+02 -0.35080698467E+02  0.67011629737E+02  0.00000000000E+00 0.  1.
         11    1    1    2    0    0  0.46807214454E+02  0.44077154456E+02 -0.12382135981E+03  0.13951860096E+03  0.00000000000E+00 0. -1.
</event>
<event>
 6    1  0.4988969E-006  0.9834122E+02  0.7561462E-02  0.1283823E+00
          1   -1    0    0  501    0  0.00000000000E+00  0.00000000000E+00  0.28913519426E+03  0.28913519426E+03  0.00000000000E+00 0. -1.
         -1   -1    0    0    0  501 -0.00000000000E+00 -0.00000000000E+00 -0.60392757169E+02  0.60392757169E+02  0.00000000000E+00 0.  1.
          5    1    1    2  502    0 -0.18135231234E+02  0.34116991321E+02 -0.22926719400E+02  0.45121641938E+02  0.41800000000E+01 0.  1.
         -5    1    1    2    0  502  0.26170946558E+02 -0.60664491200E+02  0.57254341117E+02  0.87525030209E+02  0.41800000000E+01 0.  1.
        -11    1    1    2    0    0 -0.17833898004E+02 -0.29635387231E+02  0.43663252670E+02  0.55702636635E+02  0.00000000000E+00 0.  1.
         11    1    1    2    0    0  0.97981826795E+01  0.56182887110E+02  0.15075156270E+03  0.16117864264E+03  0.00000000000E+00 0. -1.
</event>
<event>
 6    1  0.4988969E-006  0.1115504E+03  0.7561462E-02  0.1257726E+00
          2   -1    0    0  501    0  0.00000000000E+00  0.00000000000E+00  0.21002399533E+03  0.21002399533E+03  0.00000000000E+00 0. -1.
         -2   -1    0    0    0  501 -0.00000000000E+00 -0.00000000000E+00 -0.78387916280E+02  0.78387916280E+02  0.00000000000E+00 0.  1.
          5    1    1    2  502    0 -0.45880618392E+02  0.28097401574E+02  0.73569556766E+01  0.54461842753E+02  0.41800000000E+01 0.  1.
         -5    1    1    2    0  502  0.81403549020E+02  0.27320185868E+02  0.37999501004E+02  0.93991301860E+02  0.41800000000E+01 0.  1.
        -11    1    1    2    0    0  0.12069641165E+02 -0.31345039213E+01 -0.13041439816E+02  0.18043849510E+02  0.00000000000E+00 0.  1.
         11    1    1    2    0    0 -0.47592571792E+02 -0.52283083521E+02  0.99321062185E+02  0.12191491749E+03  0.00000000000E+00 0. -1.
</event>
<event>
 6    1  0.4988969E-006  0.9163791E+02  0.7561462E-02  0.1298933E+00
          1   -1    0    0  501    0  0.00000000000E+00  0.00000000000E+00  0.44000734419E+03  0.44000734419E+03  0.00000000000E+00 0. -1.
         -1   -1    0    0    0  501 -0.00000000000E+00 -0.00000000000E+00 -0.27287688047E+02  0.27287688047E+02  0.00000000000E+00 0.  1.
          5    1    1    2  502    0 -0.15331879027E+02  0.50676234763E+02  0.50001580265E+02  0.72943661227E+02  0.41800000000E+01 0. -1.
         -5    1    1    2    0  502  0.22535664990E+01 -0.58189336595E+02  0.18104230084E+03  0.19022319666E+03  0.41800000000E+01 0. -1.
        -11    1    1    2    0    0 -0.10013372510E+02  0.34698590952E+02  0.26210206633E+02  0.44623253745E+02  0.00000000000E+00 0.  1.
         11    1    1    2    0    0  0.23091685038E+02 -0.27185489120E+02  0.15546556841E+03  0.15950492061E+03  0.00000000000E+00 0. -1.
</event>
<event>
 6    1  0.4988969E-006  0.1059572E+03  0.7561462E-02  0.1268245E+00
         -2   -1    0    0    0  501 -0.00000000000E+00  0.00000000000E+00  0.26378462917E+03  0.26378462917E+03  0.00000000000E+00 0. -1.
          2   -1    0    0  501    0  0.00000000000E+00 -0.00000000000E+00 -0.62292271984E+02  0.62292271984E+02  0.00000000000E+00 0.  1.
          5    1    1    2  502    0  0.83679648481E+02  0.38451710650E+02  0.60023163813E+02  0.11000486451E+03  0.41800000000E+01 0.  1.
         -5    1    1    2    0  502 -0.22695205190E+02 -0.24265720432E+02  0.85610144158E+02  0.91926420084E+02  0.41800000000E+01 0.  1.
        -11    1    1    2    0    0 -0.40589357331E+02  0.20903040948E+02  0.67890486217E+02  0.81814125725E+02  0.00000000000E+00 0. -1.
         11    1    1    2    0    0 -0.20395085960E+02 -0.35089031166E+02 -0.12031437005E+02  0.42331490831E+02  0.00000000000E+00 0.  1.
</event>
<event>
 6    1  0.4988969E-006  0.1191044E+03  0.7561462E-02  0.1244582E+00
          2   -1    0    0  501    0  0.00000000000E+00  0.00000000000E+00  0.44472697443E+03  0.44472697443E+03  0.00000000000E+00 0. -1.
         -2   -1    0    0    0  501 -0.00000000000E+00 -0.00000000000E+00 -0.35934242106E+02  0.35934242106E+02  0.00000000000E+00 0.  1.
          5    1    1    2  502    0  0.41642151946E+02  0.37877370899E+02  0.48676976151E+02  0.74536463909E+02  0.41800000000E+01 0.  1.
         -5    1    1    2    0  502 -0.67174176547E+02  0.24104193710E+02  0.19186038887E+03  0.20474682749E+03  0.41800000000E+01 0.  1.
        -11    1    1    2    0    0  0.57623851260E+02 -0.30001673501E+02  0.10719926832E+03  0.12534868079E+03  0.00000000000E+00 0. -1.
         11    1    1    2    0    0 -0.32091826659E+02 -0.31979891107E+02  0.61056098979E+02  0.76029244347E+02  0.00000000000E+00 0.  1.
</event>
<event>
 6    1  0.4988969E-006  0.1305213E+03  0.7561462E-02  0.1226684E+00
          4   -1    0    0  501    0  0.00000000000E+00  0.00000000000E+00  0.34713625380E+02  0.34713625380E+02  0.00000000000E+00 0. -1.
         -4   -1    0    0    0  501 -0.00000000000E+00 -0.00000000000E+00 -0.56512651887E+03  0.56512651887E+03  0.00000000000E+00 0.  1.
          5    1    1    2  502    0 -0.50087179706E+02  0.42709091305E+02 -0.21271426106E+03  0.22270523413E+03  0.41800000000E+01 0. -1.
         -5    1    1    2    0  502 -0.27851905103E+02 -0.72875116883E+02 -0.13138705498E+03  0.15286118505E+03  0.41800000000E+01 0. -1.
        -11    1    1    2    0    0  0.24286668410E+02  0.53267959117E+02 -0.54016815099E+02  0.79656349680E+02  0.00000000000E+00 0. -1.
         11    1    1    2    0    0  0.53652416399E+02 -0.23101933539E+02 -0.13229476235E+03  0.14461737539E+03  0.00000000000E+00 0.  1.
</event>
<event>
 6    1  0.4988969E-006  0.8061584E+02  0.7561462E-02  0.1327313E+00
          2   -1    0    0  501    0  0.00000000000E+00  0.00000000000E+00  0.13884489594E+03  0.13884489594E+03  0.00000000000E+00 0. -1.
         -2   -1    0    0    0  501 -0.00000000000E+00 -0.00000000000E+00 -0.12367681598E+03  0.12367681598E+03  0.00000000000E+00 0.  1.
          5    1    1    2  502    0  0.45044272097E+02 -0.22345727356E+02  0.84680134483E+01  0.51161485822E+02  0.41800000000E+01 0.  1.
         -5    1    1    2    0  502 -0.39271888635E+02  0.36902543260E+02 -0.71932808079E+02  0.89977109390E+02  0.41800000000E+01 0.  1.
        -11    1    1    2    0    0  0.23393434996E+02  0.14805115065E+01 -0.10909554065E+02  0.25854653066E+02  0.00000000000E+00 0.  1.
         11    1    1    2    0    0 -0.29165818458E+02 -0.16037327411E+02  0.89542428655E+02  0.95528463644E+02  0.00000000000E+00 0. -1.
</event>
<event>
 6    1  0.4988969E-006  0.1396180E+03  0.7561462E-02  0.1213844E+00
         -2   -1    0    0    0  501 -0.00000000000E+00  0.00000000000E+00  0.24198407621E+02  0.24198407621E+02  0.00000000000E+00 0.  1.
          2   -1    0    0  501    0  0.00000000000E+00 -0.00000000000E+00 -0.86232220207E+03  0.86232220207E+03  0.00000000000E+00 0. -1.
          5    1    1    2  502    0  0.63762750601E+01 -0.78471933143E+02 -0.20956615507E+03  0.22390611185E+03  0.41800000000E+01 0. -1.
         -5    1    1    2    0  502  0.66476994960E+02  0.30391464400E+02 -0.23029033765E+03  0.24164838916E+03  0.41800000000E+01 0. -1.
        -11    1    1    2    0    0 -0.44613920735E+02 -0.23361053568E+02 -0.88597001397E+02  0.10190961389E+03  0.00000000000E+00 0. -1.
         11    1    1    2    0    0 -0.28239349285E+02  0.71441522312E+02 -0.30967030033E+03  0.31905649479E+03  0.00000000000E+00 0.  1.
</event>
<event>
 6    1  0.4988969E-006  0.1650639E+03  0.7561462E-02  0.1183095E+00
          2   -1    0    0  501    0  0.00000000000E+00  0.00000000000E+00  0.52700634492E+03  0.52700634492E+03  0.00000000000E+00 0. -1.
         -2   -1    0    0    0  501 -0.00000000000E+00 -0.00000000000E+00 -0.62408580572E+02  0.62408580572E+02  0.00000000000E+00 0.  1.
          5    1    1    2  502    0  0.46237552695E+02  0.42940830423E+02  0.18815920130E+02  0.65979826060E+02  0.41800000000E+01 0. -1.
         -5    1    1    2    0  502 -0.49712492005E+02  0.95563721498E+02  0.15699202631E+03  0.19044087127E+03  0.41800000000E+01 0. -1.
        -11    1    1    2    0    0  0.23738358265E+02 -0.52660229460E+01  0.87026936871E+02  0.90359993315E+02  0.00000000000E+00 0. -1.
         11    1    1    2    0    0 -0.20263418954E+02 -0.13323852898E+03  0.20176288104E+03  0.24263423484E+03  0.00000000000E+00 0.  1.
</event>
<event>
 6    1  0.4988969E-006  0.1175250E+03  0.7561462E-02  0.1247237E+00
          2   -1    0    0  501    0  0.00000000000E+00  0.00000000000E+00  0.57518241861E+02  0.57518241861E+02  0.00000000000E+00 0. -1.
         -2   -1    0    0    0  501 -0.00000000000E+00 -0.00000000000E+00 -0.31199273642E+03  0.31199273642E+03  0.00000000000E+00 0.  1.
          5    1    1    2  502    0 -0.99594642444E+02 -0.34904049531E+02 -0.14750782946E+03  0.18142055459E+03  0.41800000000E+01 0. -1.
         -5    1    1    2    0  502  0.26419003920E+02  0.17967861274E+02 -0.11083689445E+02  0.34075333873E+02  0.41800000000E+01 0. -1.
        -11    1    1    2    0    0  0.12963711958E+02  0.32525562955E+02  0.51314359534E+01  0.35387875158E+02  0.00000000000E+00 0. -1.
         11    1    1    2    0    0  0.60211926567E+02 -0.15589374699E+02 -0.10101441161E+03  0.11862721465E+03  0.00000000000E+00 0.  1.
</event>
<event>
 6    1  0.4988969E-006  0.1346221E+03  0.7561462E-02  0.1220754E+00
         -2   -1    0    0    0  501 -0.00000000000E+00  0.00000000000E+00  0.10699443581E+03  0.10699443581E+03  0.00000000000E+00 0. -1.
          2   -1    0    0  501    0  0.00000000000E+00 -0.00000000000E+00 -0.24011596281E+03  0.24011596281E+03  0.00000000000E+00 0.  1.
          5    1    1    2  502    0 -0.34037357929E+02  0.73289311159E+02 -0.43895676604E+01  0.81034594891E+02  0.41800000000E+01 0. -1.
         -5    1    1    2    0  502 -0.66744848023E+02 -0.47110286341E+02 -0.79746740856E+01  0.82190763736E+02  0.41800000000E+01 0. -1.
        -11    1    1    2    0    0  0.22970940735E+02  0.35200804119E+01 -0.93358886199E+02  0.96207778878E+02  0.00000000000E+00 0.  1.
         11    1    1    2    0    0  0.77811265217E+02 -0.29699105230E+02 -0.27398399051E+02  0.87677261115E+02  0.00000000000E+00 0. -1.
</event>
<event>
 6    1  0.4988969E-006  0.1286459E+03  0.7561462E-02  0.1229479E+00
         -2   -1    0    0    0  501 -0.00000000000E+00  0.00000000000E+00  0.29252070407E+02  0.29252070407E+02  0.00000000000E+00 0. -1.
          2   -1    0    0  501    0  0.00000000000E+00 -0.00000000000E+00 -0.59386425495E+03  0.59386425495E+03  0.00000000000E+00 0.  1.
          5    1    1    2  502    0  0.10557081960E+03 -0.84865753455E+01 -0.17254386582E+03  0.20249957517E+03  0.41800000000E+01 0.  1.
         -5    1    1    2    0  502 -0.35684920042E+02  0.27537331981E+01 -0.84023848822E+02  0.91424702000E+02  0.41800000000E+01 0.  1.
        -11    1    1    2    0    0  0.22580885949E+02 -0.50671974707E+00 -0.46093676631E+02  0.51330110077E+02  0.00000000000E+00 0. -1.
         11    1    1    2    0    0 -0.92466785509E+02  0.62395618945E+01 -0.26195079326E+03  0.27786193810E+03  0.00000000000E+00 0.  1.
</event>
<event>
 6    1  0.4988969E-006  0.2066939E+03  0.7561462E-02  0.1144211E+00
          1   -1    0    0  501    0  0.00000000000E+00  0.00000000000E+00  0.56790654045E+03  0.56790654045E+03  0.00000000000E+00 0. -1.
         -1   -1    0    0    0  501 -0.00000000000E+00 -0.00000000000E+00 -0.10465760912E+03  0.10465760912E+03  0.00000000000E+00 0.  1.
          5    1    1    2  502    0  0.11658490100E+03 -0.55368557987E+02  0.10485720097E+03  0.16634368443E+03  0.41800000000E+01 0. -1.
         -5    1    1    2    0  502  0.21073379037E+02 -0.78395392657E+02 -0.94553543340E+01  0.81833984501E+02  0.41800000000E+01 0. -1.
        -11    1    1    2    0    0 -0.33595257409E+02  0.12844219561E+00  0.11688079605E+03  0.12161323243E+03  0.00000000000E+00 0. -1.
         11    1    1    2    0    0 -0.10406302262E+03  0.13363550845E+03  0.25096628865E+03  0.30277324821E+03  0.00000000000E+00 0.  1.
</event>
<event>
 6    1  0.4988969E-006  0.2223087E+03  0.7561462E-02  0.1132173E+00
         -1   -1    0    0    0  501 -0.00000000000E+00  0.00000000000E+00  0.85754471126E+02  0.85754471126E+02  0.00000000000E+00 0.  1.
          1   -1    0    0  501    0  0.00000000000E+00 -0.00000000000E+00 -0.70829234258E+03  0.70829234258E+03  0.00000000000E+00 0. -1.
          5    1    1    2  502    0  0.17736986160E+03 -0.34393409580E+02 -0.98161381146E+02  0.20566016526E+03  0.41800000000E+01 0. -1.
         -5    1    1    2    0  502  0.31153360956E+02  0.18741196133E+02 -0.10629145200E+03  0.11241489892E+03  0.41800000000E+01 0. -1.
        -11    1    1    2    0    0 -0.14682954209E+03  0.51915972139E+02 -0.29548017238E+03  0.33401005204E+03  0.00000000000E+00 0. -1.
         11    1    1    2    0    0 -0.61693680463E+02 -0.36263758693E+02 -0.12260486593E+03  0.14196169749E+03  0.00000000000E+00 0.  1.
</event>
<event>
 6    1  0.4988969E-006  0.1168460E+03  0.7561462E-02  0.1248393E+00
         -2   -1    0    0    0  501 -0.00000000000E+00  0.00000000000E+00  0.44530636378E+02  0.44530636378E+02  0.00000000000E+00 0.  1.
          2   -1    0    0  501    0  0.00000000000E+00 -0.00000000000E+00 -0.54276436410E+03  0.54276436410E+03  0.00000000000E+00 0. -1.
          5    1    1    2  502    0 -0.14994943754E+02  0.31748807341E+02  0.96227069513E+01  0.36645654515E+02  0.41800000000E+01 0.  1.
         -5    1    1    2    0  502 -0.78486842473E+02 -0.15981166339E+02 -0.16872001399E+03  0.18681407238E+03  0.41800000000E+01 0.  1.
        -11    1    1    2    0    0  0.80055898758E+02  0.17766939067E+02 -0.14693728920E+03  0.16827114431E+03  0.00000000000E+00 0.  1.
         11    1    1    2    0    0  0.13425887468E+02 -0.33534580069E+02 -0.19219913147E+03  0.19556412926E+03  0.00000000000E+00 0. -1.
</event>
<event>
 6    1  0.4988969E-006  0.6415803E+02  0.7561462E-02  0.1381167E+00
         -2   -1    0    0    0  501 -0.00000000000E+00  0.00000000000E+00  0.55663963935E+02  0.55663963935E+02  0.00000000000E+00 0.  1.
          2   -1    0    0  501    0  0.00000000000E+00 -0.00000000000E+00 -0.13369637401E+04  0.13369637401E+04  0.00000000000E+00 0. -1.
          5    1    1    2  502    0  0.99804213253E+01  0.21476977068E+02 -0.10759538106E+04  0.10762225348E+04  0.41800000000E+01 0. -1.
         -5    1    1    2    0  502  0.79452722871E+01 -0.94396056668E+01  0.46565329560E+02  0.48353240055E+02  0.41800000000E+01 0.  1.
        -11    1    1    2    0    0  0.31036501046E+02  0.15895815784E+02 -0.10822232663E+03  0.11370142188E+03  0.00000000000E+00 0.  1.
         11    1    1    2    0    0 -0.48962194658E+02 -0.27933187186E+02 -0.14368896849E+03  0.15435050735E+03  0.00000000000E+00 0. -1.
</event>
<event>
 6    1  0.4988969E-006  0.1022872E+03  0.7561462E-02  0.1275558E+00
         -1   -1    0    0    0  501 -0.00000000000E+00  0.00000000000E+00  0.62254261287E+03  0.62254261287E+03  0.00000000000E+00 0.  1.
          1   -1    0    0  501    0  0.00000000000E+00 -0.00000000000E+00 -0.44609662706E+02  0.44609662706E+02  0.00000000000E+00 0. -1.
          5    1    1    2  502    0  0.47459167391E+01 -0.55884016509E+02  0.12846322906E+03  0.14023487671E+03  0.41800000000E+01 0. -1.
         -5    1    1    2    0  502  0.37616713245E+02  0.22143509686E+02  0.41350978846E+03  0.41582829352E+03  0.41800000000E+01 0.  1.
        -11    1    1    2    0    0 -0.41255511117E+02 -0.23334854175E+02  0.22351215074E+02  0.52403334170E+02  0.00000000000E+00 0.  1.
         11    1    1    2    0    0 -0.11071188674E+01  0.57075360997E+02  0.13608717579E+02  0.58685771183E+02  0.00000000000E+00 0. -1.
</event>
<event>
 6    1  0.4988969E-006  0.3202559E+03  0.7561462E-02  0.1075532E+00
          1   -1    0    0  501    0  0.00000000000E+00  0.00000000000E+00  0.91374655963E+03  0.91374655963E+03  0.00000000000E+00 0. -1.
         -1   -1    0    0    0  501 -0.00000000000E+00 -0.00000000000E+00 -0.12456270776E+03  0.12456270776E+03  0.00000000000E+00 0.  1.
          5    1    1    2  502    0 -0.27695676693E+03  0.11863725453E+03  0.29853687238E+03  0.42417164624E+03  0.41800000000E+01 0.  1.
         -5    1    1    2    0  502 -0.57896242009E+00  0.23203214526E+02 -0.22445074577E+01  0.23690389941E+02  0.41800000000E+01 0.  1.
        -11    1    1    2    0    0  0.22297653010E+03 -0.13488753256E+03  0.34290036060E+03  0.43068995428E+03  0.00000000000E+00 0.  1.
         11    1    1    2    0    0  0.54559199242E+02 -0.69529364939E+01  0.14999112635E+03  0.15975727693E+03  0.00000000000E+00 0. -1.
</event>
<event>
 6    1  0.4988969E-006  0.1174037E+03  0.7561462E-02  0.1247443E+00
          2   -1    0    0  501    0  0.00000000000E+00  0.00000000000E+00  0.29876014868E+03  0.29876014868E+03  0.00000000000E+00 0. -1.
         -2   -1    0    0    0  501 -0.00000000000E+00 -0.00000000000E+00 -0.62869446386E+02  0.62869446386E+02  0.00000000000E+00 0.  1.
          5    1    1    2  502    0 -0.35645390745E+01  0.69967612288E+02  0.84296287667E+02  0.10968823648E+03  0.41800000000E+01 0. -1.
         -5    1    1    2    0  502  0.68906325353E+02 -0.19656258821E+02  0.25921243990E+02  0.76314045066E+02  0.41800000000E+01 0. -1.
        -11    1    1    2    0    0 -0.37916019072E+02 -0.28385711412E+01  0.11318059359E+03  0.11939651902E+03  0.00000000000E+00 0. -1.
         11    1    1    2    0    0 -0.27425767206E+02 -0.47472782326E+02  0.12492577046E+02  0.56230794498E+02  0.00000000000E+00 0.  1.
</event>
<event>
 6    1  0.4988969E-006  0.1206735E+03  0.7561462E-02  0.1241990E+00
          1   -1    0    0  501    0  0.00000000000E+00  0.00000000000E+00  0.11155568250E+03  0.11155568250E+03  0.00000000000E+00 0. -1.
         -1   -1    0    0    0  501 -0.00000000000E+00 -0.00000000000E+00 -0.34718656050E+03  0.34718656050E+03  0.00000000000E+00 0.  1.
          5    1    1    2  502    0  0.50772838848E+02 -0.25987296537E+02 -0.64335768663E+02  0.86080103830E+02  0.41800000000E+01 0.  1.
         -5    1    1    2    0  502  0.13472000118E+02  0.86804732494E+02 -0.21962187022E+03  0.23657513532E+03  0.41800000000E+01 0.  1.
        -11    1    1    2    0    0 -0.52150735992E+02 -0.65073846310E+02 -0.27378633982E+01  0.83437405485E+02  0.00000000000E+00 0.  1.
         11    1    1    2    0    0 -0.12094102974E+02  0.42564103526E+01  0.51064624279E+02  0.52649598370E+02  0.00000000000E+00 0. -1.
</event>
<event>
 6    1  0.4988969E-006  0.7899718E+02  0.7561462E-02  0.1331922E+00
         -3   -1    0    0    0  501 -0.00000000000E+00  0.00000000000E+00  0.31593016218E+03  0.31593016218E+03  0.00000000000E+00 0.  1.
          3   -1    0    0  501    0  0.00000000000E+00 -0.00000000000E+00 -0.53502557592E+02  0.53502557592E+02  0.00000000000E+00 0. -1.
          5    1    1    2  502    0  0.15461130472E+02  0.23207888459E+02 -0.36874076168E+01  0.28438038208E+02  0.41800000000E+01 0. -1.
         -5    1    1    2    0  502 -0.11129099723E+02 -0.35387897123E+02  0.24233750877E+03  0.24519604540E+03  0.41800000000E+01 0.  1.
        -11    1    1    2    0    0 -0.27515146609E+02  0.44722641881E+02  0.94567358615E+01  0.53353798767E+02  0.00000000000E+00 0. -1.
         11    1    1    2    0    0  0.23183115860E+02 -0.32542633217E+02  0.14320767573E+02  0.42444837396E+02  0.00000000000E+00 0.  1.
</event>
<event>
 6    1  0.4988969E-006  0.1154563E+03  0.7561462E-02  0.1250787E+00
          1   -1    0    0  501    0  0.00000000000E+00  0.00000000000E+00  0.25351144751E+02  0.25351144751E+02  0.00000000000E+00 0. -1.
         -1   -1    0    0    0  501 -0.00000000000E+00 -0.00000000000E+00 -0.90622256088E+03  0.90622256088E+03  0.00000000000E+00 0.  1.
          5    1    1    2  502    0 -0.46859125399E+02 -0.21310306439E+02 -0.55030817710E+02  0.75470325901E+02  0.41800000000E+01 0. -1.
         -5    1    1    2    0  502 -0.53667643637E+02 -0.23755769684E+00 -0.49431487962E+03  0.49723731258E+03  0.41800000000E+01 0. -1.
        -11    1    1    2    0    0  0.91424319485E+02 -0.10587665128E+02 -0.16415232496E+03  0.18819269549E+03  0.00000000000E+00 0. -1.
         11    1    1    2    0    0  0.91024495509E+01  0.32135529264E+02 -0.16737339384E+03  0.17067337166E+03  0.00000000000E+00 0.  1.
</event>
<event>
 6    1  0.4988969E-006  0.1038817E+03  0.7561462E-02  0.1272339E+00
         -1   -1    0    0    0  501 -0.00000000000E+00  0.00000000000E+00  0.80777638132E+02  0.80777638132E+02  0.00000000000E+00 0.  1.
          1   -1    0    0  501    0  0.00000000000E+00 -0.00000000000E+00 -0.18100647171E+03  0.18100647171E+03  0.00000000000E+00 0. -1.
          5    1    1    2  502    0 -0.72607241104E+02  0.71593791048E-01 -0.28053226638E+02  0.77950449076E+02  0.41800000000E+01 0.  1.
         -5    1    1    2    0  502  0.45007267828E+02 -0.35457151951E+02  0.19561130690E+01  0.57481845484E+02  0.41800000000E+01 0.  1.
        -11    1    1    2    0    0  0.45362252431E+02  0.38568413363E+02 -0.10818094561E+02  0.60516837532E+02  0.00000000000E+00 0.  1.
         11    1    1    2    0    0 -0.17762279156E+02 -0.31828552028E+01 -0.63313625452E+02  0.65834977754E+02  0.00000000000E+00 0. -1.
</event>
<event>
 6    1  0.4988969E-006  0.1091399E+03  0.7561462E-02  0.1262171E+00
         -1   -1    0    0    0  501 -0.00000000000E+00  0.00000000000E+00  0.11861449509E+04  0.11861449509E+04  0.00000000000E+00 0.  1.
          1   -1    0    0  501    0  0.00000000000E+00 -0.00000000000E+00 -0.28638600235E+02  0.28638600235E+02  0.00000000000E+00 0. -1.
          5    1    1    2  502    0 -0.44199927917E+02  0.11553164470E+02  0.25251750395E+03  0.25665087461E+03  0.41800000000E+01 0. -1.
         -5    1    1    2    0  502  0.35412677411E+02 -0.64585966805E+02  0.81612676145E+03  0.81945455517E+03  0.41800000000E+01 0.  1.
        -11    1    1    2    0    0  0.34170183510E+02 -0.57026500380E+01  0.58188723217E+02  0.67720374838E+02  0.00000000000E+00 0.  1.
         11    1    1    2    0    0 -0.25382933004E+02  0.58735452373E+02  0.30673362066E+02  0.70957746538E+02  0.00000000000E+00 0. -1.
</event>
<event>
 6    1  0.4988969E-006  0.1561801E+03  0.7561462E-02  0.1193078E+00
         -1   -1    0    0    0  501 -0.00000000000E+00  0.00000000000E+00  0.25510872239E+03  0.25510872239E+03  0.00000000000E+00 0.  1.
          1   -1    0    0  501    0  0.00000000000E+00 -0.00000000000E+00 -0.11032947017E+03  0.11032947017E+03  0.00000000000E+00 0. -1.
          5    1    1    2  502    0  0.20229608557E+02 -0.61038275597E+02  0.82071935249E+02  0.10434645708E+03  0.41800000000E+01 0.  1.
         -5    1    1    2    0  502 -0.57442909791E+02  0.34842545986E+01 -0.47397691500E+01  0.57894436062E+02  0.41800000000E+01 0.  1.
        -11    1    1    2    0    0  0.85137223464E+02 -0.30116499395E+02  0.19563571692E+02  0.92401751565E+02  0.00000000000E+00 0. -1.
         11    1    1    2    0    0 -0.47923922230E+02  0.87670520394E+02  0.47883514433E+02  0.11079554785E+03  0.00000000000E+00 0.  1.
</event>
<event>
 6    1  0.4988969E-006  0.1074415E+03  0.7561462E-02  0.1265383E+00
          1   -1    0    0  501    0  0.00000000000E+00  0.00000000000E+00  0.51461496963E+03  0.51461496963E+03  0.00000000000E+00 0. -1.
         -1   -1    0    0    0  501 -0.00000000000E+00 -0.00000000000E+00 -0.34017437278E+02  0.34017437278E+02  0.00000000000E+00 0.  1.
          5    1    1    2  502    0  0.32640720737E+02  0.11428797500E+02  0.95232726627E+02  0.10140403682E+03  0.41800000000E+01 0. -1.
         -5    1    1    2    0  502 -0.81503455743E+02 -0.12745883327E+02  0.50688090639E+02  0.96912464485E+02  0.41800000000E+01 0. -1.
        -11    1    1    2    0    0  0.34975842651E+02  0.41885469039E+02  0.12647942739E+03  0.13774885713E+03  0.00000000000E+00 0.  1.
         11    1    1    2    0    0  0.13886892356E+02 -0.40568383211E+02  0.20819728770E+03  0.21256704848E+03  0.00000000000E+00 0. -1.
</event>
<event>
 6    1  0.4988969E-006  0.9595074E+02  0.7561462E-02  0.1289049E+00
          2   -1    0    0  501    0  0.00000000000E+00  0.00000000000E+00  0.54094706036E+02  0.54094706036E+02  0.00000000000E+00 0. -1.
         -2   -1    0    0    0  501 -0.00000000000E+00 -0.00000000000E+00 -0.34756597666E+03  0.34756597666E+03  0.00000000000E+00 0.  1.
          5    1    1    2  502    0  0.60362256398E+02  0.24211840679E+02 -0.13240367027E+03  0.14757377656E+03  0.41800000000E+01 0. -1.
         -5    1    1    2    0  502 -0.62067068465E+02  0.12980860957E+01 -0.14634450388E+03  0.15902261547E+03  0.41800000000E+01 0. -1.
        -11    1    1    2    0    0  0.94991557522E+01 -0.43699414498E+02 -0.42009799595E+02  0.61357118979E+02  0.00000000000E+00 0.  1.
         11    1    1    2    0    0 -0.77943436845E+01  0.18189487723E+02  0.27286703111E+02  0.33707171697E+02  0.00000000000E+00 0. -1.
</event>
<event>
 6    1  0.4988969E-006  0.1148838E+03  0.7561462E-02  0.1251784E+00
         -2   -1    0    0    0  501 -0.00000000000E+00  0.00000000000E+00  0.47537533183E+02  0.47537533183E+02  0.00000000000E+00 0.  1.
          2   -1    0    0  501    0  0.00000000000E+00 -0.00000000000E+00 -0.36276938704E+03  0.36276938704E+03  0.00000000000E+00 0. -1.
          5    1    1    2  502    0 -0.60443797913E+02  0.58553087560E+02 -0.29492334747E+02  0.89270302888E+02  0.41800000000E+01 0.  1.
         -5    1    1    2    0  502  0.33732564766E+01 -0.34393992047E+02 -0.83002746607E+02  0.90006965800E+02  0.41800000000E+01 0.  1.
        -11    1    1    2    0    0  0.78234225578E+02  0.45727242581E+00 -0.14727774977E+03  0.16676791876E+03  0.00000000000E+00 0.  1.
         11    1    1    2    0    0 -0.21163684142E+02 -0.24616367938E+02 -0.55459022735E+02  0.64261732778E+02  0.00000000000E+00 0. -1.
</event>
<event>
 6    1  0.4988969E-006  0.1930072E+03  0.7561462E-02  0.1155777E+00
         -2   -1    0    0    0  501 -0.00000000000E+00  0.00000000000E+00  0.60851685384E+02  0.60851685384E+02  0.00000000000E+00 0.  1.
          2   -1    0    0  501    0  0.00000000000E+00 -0.00000000000E+00 -0.75256025429E+03  0.75256025429E+03  0.00000000000E+00 0. -1.
          5    1    1    2  502    0 -0.65737425355E+02  0.10437067016E+03 -0.12311268683E+03  0.17432398556E+03  0.41800000000E+01 0.  1.
         -5    1    1    2    0  502 -0.86314806961E+02 -0.21712158844E+02 -0.11579383509E+03  0.14610731804E+03  0.41800000000E+01 0.  1.
        -11    1    1    2    0    0  0.81111906951E+02 -0.37175298757E+02 -0.34387584384E+03  0.35526291710E+03  0.00000000000E+00 0. -1.
         11    1    1    2    0    0  0.70940325365E+02 -0.45483212557E+02 -0.10892620315E+03  0.13771771898E+03  0.00000000000E+00 0.  1.
</event>
<event>
 6    1  0.4988969E-006  0.1384408E+03  0.7561462E-02  0.1215442E+00
          1   -1    0    0  501    0  0.00000000000E+00  0.00000000000E+00  0.43147430212E+03  0.43147430212E+03  0.00000000000E+00 0. -1.
         -1   -1    0    0    0  501 -0.00000000000E+00 -0.00000000000E+00 -0.55118342147E+02  0.55118342147E+02  0.00000000000E+00 0.  1.
          5    1    1    2  502    0  0.15338918566E+02  0.28533502138E+02  0.30115067715E+02  0.44427838913E+02  0.41800000000E+01 0.  1.
         -5    1    1    2    0  502 -0.10459723650E+03 -0.71453576201E+02  0.99242979460E+02  0.16097464648E+03  0.41800000000E+01 0.  1.
        -11    1    1    2    0    0  0.95788616531E+02  0.25874345314E+02  0.24303803733E+03  0.26251176810E+03  0.00000000000E+00 0. -1.
         11    1    1    2    0    0 -0.65302985945E+01  0.17045728748E+02  0.39598754678E+01  0.18678390777E+02  0.00000000000E+00 0.  1.
</event>
<event>
 6    1  0.4988969E-006  0.1501407E+03  0.7561462E-02  0.1200300E+00
          2   -1    0    0  501    0  0.00000000000E+00  0.00000000000E+00  0.11321898592E+04  0.11321898592E+04  0.00000000000E+00 0. -1.
         -2   -1    0    0    0  501 -0.00000000000E+00 -0.00000000000E+00 -0.22223693674E+02  0.22223693674E+02  0.00000000000E+00 0.  1.
          5    1    1    2  502    0  0.71218561406E+02 -0.23747461328E+02  0.15654722203E+03  0.17366787421E+03  0.41800000000E+01 0.  1.
         -5    1    1    2    0  502 -0.91907690278E+01 -0.84345535562E+02  0.45494563080E+03  0.46280842580E+03  0.41800000000E+01 0.  1.
        -11    1    1    2    0    0 -0.73275982925E+02  0.73575273519E+02  0.34916034994E+03  0.36427412826E+03  0.00000000000E+00 0.  1.
         11    1    1    2    0    0  0.11248190547E+02  0.34517723371E+02  0.14931296275E+03  0.15366312460E+03  0.00000000000E+00 0. -1.
</event>
<event>
 6    1  0.4988969E-006  0.1088754E+03  0.7561462E-02  0.1262667E+00
         -1   -1    0    0    0  501 -0.00000000000E+00  0.00000000000E+00  0.68179196139E+03  0.68179196139E+03  0.00000000000E+00 0.  1.
          1   -1    0    0  501    0  0.00000000000E+00 -0.00000000000E+00 -0.20070482901E+02  0.20070482901E+02  0.00000000000E+00 0. -1.
          5    1    1    2  502    0  0.73684892885E+02 -0.32573405772E+02  0.27265861589E+03  0.28434254592E+03  0.41800000000E+01 0.  1.
         -5    1    1    2    0  502 -0.33048716708E+02  0.38368211571E+02  0.15405275775E+03  0.16221609632E+03  0.41800000000E+01 0.  1.
        -11    1    1    2    0    0 -0.54812645539E+01 -0.38118636134E+02  0.44271283927E+02  0.58677263589E+02  0.00000000000E+00 0. -1.
         11    1    1    2    0    0 -0.35154911623E+02  0.32323830335E+02  0.19073882092E+03  0.19662653846E+03  0.00000000000E+00 0.  1.
</event>
<event>
 6    1  0.4988969E-006  0.8483634E+02  0.7561462E-02  0.1315861E+00
          4   -1    0    0  501    0  0.00000000000E+00  0.00000000000E+00  0.47397541026E+03  0.47397541026E+03  0.00000000000E+00 0. -1.
         -4   -1    0    0    0  501 -0.00000000000E+00 -0.00000000000E+00 -0.35323600798E+02  0.35323600798E+02  0.00000000000E+00 0.  1.
          5    1    1    2  502    0 -0.12284915861E+02 -0.17627715240E+02 -0.83092789727E+01  0.23413073684E+02  0.41800000000E+01 0. -1.
         -5    1    1    2    0  502  0.35495180243E+02 -0.48338057912E+02  0.25401372620E+03  0.26103049853E+03  0.41800000000E+01 0. -1.
        -11    1    1    2    0    0  0.20021621786E+01  0.62133265084E+02  0.18911077301E+03  0.19906641040E+03  0.00000000000E+00 0. -1.
         11    1    1    2    0    0 -0.25212426561E+02  0.38325080679E+01  0.38365892263E+01  0.25789028444E+02  0.00000000000E+00 0.  1.
</event>
<event>
 6    1  0.4988969E-006  0.1349755E+03  0.7561462E-02  0.1220254E+00
          2   -1    0    0  501    0  0.00000000000E+00  0.00000000000E+00  0.68440010351E+03  0.68440010351E+03  0.00000000000E+00 0. -1.
         -2   -1    0    0    0  501 -0.00000000000E+00 -0.00000000000E+00 -0.33634068295E+02  0.33634068295E+02  0.00000000000E+00 0.  1.
          5    1    1    2  502    0  0.12134090454E+03 -0.62532008944E+01  0.20582069499E+03  0.23904465801E+03  0.41800000000E+01 0.  1.
         -5    1    1    2    0  502 -0.26307198690E+02  0.20756629524E+02  0.91628646681E+02  0.97653405802E+02  0.41800000000E+01 0.  1.
        -11    1    1    2    0    0  0.79344522836E+01 -0.82552126693E+01 -0.17542585310E+01  0.11583673521E+02  0.00000000000E+00 0.  1.
         11    1    1    2    0    0 -0.10296815813E+03 -0.62482159607E+01  0.35507095207E+03  0.36975243447E+03  0.00000000000E+00 0. -1.
</event>
<event>
 6    1  0.4988969E-006  0.8488364E+02  0.7561462E-02  0.1315737E+00
          1   -1    0    0  501    0  0.00000000000E+00  0.00000000000E+00  0.70901400979E+03  0.70901400979E+03  0.00000000000E+00 0. -1.
         -1   -1    0    0    0  501 -0.00000000000E+00 -0.00000000000E+00 -0.23756644216E+02  0.23756644216E+02  0.00000000000E+00 0.  1.
          5    1    1    2  502    0  0.17567551532E+02  0.47631271166E+01  0.45042527299E+03  0.45081227267E+03  0.41800000000E+01 0.  1.
         -5    1    1    2    0  502  0.41542498742E+02 -0.18562694421E+01  0.36801600381E+02  0.55687118156E+02  0.41800000000E+01 0.  1.
        -11    1    1    2    0    0 -0.68100232378E+02 -0.34577885077E+02  0.14399350910E+03  0.16299509946E+03  0.00000000000E+00 0. -1.
         11    1    1    2    0    0  0.89901821036E+01  0.31671027402E+02  0.54036983107E+02  0.63276163713E+02  0.00000000000E+00 0.  1.
</event>
<event>
 6    1  0.4988969E-006  0.5863127E+02  0.7561462E-02  0.1403667E+00
          2   -1    0    0  501    0  0.00000000000E+00  0.00000000000E+00  0.51263201182E+03  0.51263201182E+03  0.00000000000E+00 0. -1.
         -2   -1    0    0    0  501 -0.00000000000E+00 -0.00000000000E+00 -0.29198191541E+02  0.29198191541E+02  0.00000000000E+00 0.  1.
          5    1    1    2  502    0  0.19024174473E+02  0.10894693247E+02  0.18907227409E+03  0.19038490167E+03  0.41800000000E+01 0.  1.
         -5    1    1    2    0  502  0.13166661456E+02  0.35948939527E+00 -0.18987245814E+02  0.23483571069E+02  0.41800000000E+01 0.  1.
        -11    1    1    2    0    0 -0.67435430414E+01  0.31041179268E+02  0.44826777742E+02  0.54940605983E+02  0.00000000000E+00 0.  1.
         11    1    1    2    0    0 -0.25447292888E+02 -0.42295361910E+02  0.26852201427E+03  0.27302112464E+03  0.00000000000E+00 0. -1.
</event>
<event>
 6    1  0.4988969E-006  0.1090260E+03  0.7561462E-02  0.1262384E+00
         -2   -1    0    0    0  501 -0.00000000000E+00  0.00000000000E+00  0.54504176932E+02  0.54504176932E+02  0.00000000000E+00 0.  1.
          2   -1    0    0  501    0  0.00000000000E+00 -0.00000000000E+00 -0.32415890789E+03  0.32415890789E+03  0.00000000000E+00 0. -1.
          5    1    1    2  502    0 -0.56215587361E+02  0.19557000676E+02 -0.64336205366E+02  0.87745588258E+02  0.41800000000E+01 0. -1.
         -5    1    1    2    0  502  0.65131303716E+02  0.53642008379E+02 -0.62981298669E+02  0.10537394445E+03  0.41800000000E+01 0. -1.
        -11    1    1    2    0    0 -0.28768454788E+01 -0.43637319432E+02 -0.14845072173E+03  0.15475822650E+03  0.00000000000E+00 0. -1.
         11    1    1    2    0    0 -0.60388708764E+01 -0.29561689622E+02  0.61134948045E+01  0.30785325620E+02  0.00000000000E+00 0.  1.
</event>
<event>
 6    1  0.4988969E-006  0.1762772E+03  0.7561462E-02  0.1171455E+00
          2   -1    0    0  501    0  0.00000000000E+00  0.00000000000E+00  0.10593339936E+04  0.10593339936E+04  0.00000000000E+00 0. -1.
         -2   -1    0    0    0  501 -0.00000000000E+00 -0.00000000000E+00 -0.32232825496E+02  0.32232825496E+02  0.00000000000E+00 0.  1.
          5    1    1    2  502    0  0.68073683659E+02 -0.12189867604E+03  0.29064271379E+03  0.32246546033E+03  0.41800000000E+01 0.  1.
         -5    1    1    2    0  502  0.40736211592E+02  0.25327727898E+02  0.16615402857E+03  0.17299007586E+03  0.41800000000E+01 0.  1.
        -11    1    1    2    0    0 -0.84756870430E+02  0.10865722190E+03  0.53015946475E+03  0.54777657582E+03  0.00000000000E+00 0. -1.
         11    1    1    2    0    0 -0.24053024821E+02 -0.12086273750E+02  0.40144961029E+02  0.48334707118E+02  0.00000000000E+00 0.  1.
</event>
<event>
 6    1  0.4988969E-006  0.1038298E+03  0.7561462E-02  0.1272442E+00
          3   -1    0    0  501    0  0.00000000000E+00  0.00000000000E+00  0.39210016188E+02  0.39210016188E+02  0.00000000000E+00 0. -1.
         -3   -1    0    0    0  501 -0.00000000000E+00 -0.00000000000E+00 -0.35689537590E+03  0.35689537590E+03  0.00000000000E+00 0.  1.
          5    1    1    2  502    0  0.14116566556E+02 -0.71570255680E+02 -0.11460345618E+03  0.13591542781E+03  0.41800000000E+01 0.  1.
         -5    1    1    2    0  502 -0.40532128822E+02  0.37355173160E+02 -0.43986237511E+02  0.70643640330E+02  0.41800000000E+01 0.  1.
        -11    1    1    2    0    0 -0.39850614091E+01  0.46392437214E+02 -0.14770896546E+03  0.15487439241E+03  0.00000000000E+00 0.  1.
         11    1    1    2    0    0  0.30400623675E+02 -0.12177354694E+02 -0.11386700563E+02  0.34671931543E+02  0.00000000000E+00 0. -1.
</event>
<event>
 6    1  0.4988969E-006  0.9176544E+02  0.7561462E-02  0.1298632E+00
          3   -1    0    0  501    0  0.00000000000E+00  0.00000000000E+00  0.14925578960E+03  0.14925578960E+03  0.00000000000E+00 0. -1.
         -3   -1    0    0    0  501 -0.00000000000E+00 -0.00000000000E+00 -0.19220716983E+03  0.19220716983E+03  0.00000000000E+00 0.  1.
          5    1    1    2  502    0  0.48069944058E+02  0.16951810690E+02  0.14572484781E+01  0.51163262020E+02  0.41800000000E+01 0. -1.
         -5    1    1    2    0  502 -0.16102262855E+02  0.33170916301E+02 -0.13960338469E+03  0.14445127198E+03  0.41800000000E+01 0. -1.
        -11    1    1    2    0    0 -0.55278530402E+02 -0.23987018626E+02  0.92926674116E+02  0.11075405071E+03  0.00000000000E+00 0. -1.
         11    1    1    2    0    0  0.23310849199E+02 -0.26135708365E+02  0.22680818610E+01  0.35094374726E+02  0.00000000000E+00 0.  1.
</event>
<event>
 6    1  0.4988969E-006  0.1012621E+03  0.7561462E-02  0.1277664E+00
         -2   -1    0    0    0  501 -0.00000000000E+00  0.00000000000E+00  0.89396870552E+02  0.89396870552E+02  0.00000000000E+00 0.  1.
          2   -1    0    0  501    0  0.00000000000E+00 -0.00000000000E+00 -0.18973677252E+03  0.18973677252E+03  0.00000000000E+00 0. -1.
          5    1    1    2  502    0  0.84106339851E+02 -0.30688935095E+02 -0.21362492445E+02  0.92138567516E+02  0.41800000000E+01 0. -1.
         -5    1    1    2    0  502 -0.38968845447E+02  0.72170510201E+01  0.16232604103E+02  0.43030530753E+02  0.41800000000E+01 0. -1.
        -11    1    1    2    0    0 -0.19083931090E+02  0.38498183134E+02 -0.10408563179E+03  0.11260606234E+03  0.00000000000E+00 0. -1.
         11    1    1    2    0    0 -0.26053563314E+02 -0.15026299059E+02  0.88756181623E+01  0.31358482465E+02  0.00000000000E+00 0.  1.
</event>
<event>
 6    1  0.4988969E-006  0.1550993E+03  0.7561462E-02  0.1194343E+00
          2   -1    0    0  501    0  0.00000000000E+00  0.00000000000E+00  0.69282308616E+03  0.69282308616E+03  0.00000000000E+00 0. -1.
         -2   -1    0    0    0  501 -0.00000000000E+00 -0.00000000000E+00 -0.48900408685E+02  0.48900408685E+02  0.00000000000E+00 0.  1.
          5    1    1    2  502    0 -0.26007947607E+02  0.11860951029E+03  0.96649648095E+02  0.15525223395E+03  0.41800000000E+01 0. -1.
         -5    1    1    2    0  502 -0.49219780626E+02 -0.16372727645E+02  0.81758042271E+02  0.96914926050E+02  0.41800000000E+01 0. -1.
        -11    1    1    2    0    0  0.56641804394E+02 -0.10354793459E+03  0.45027035624E+03  0.46548239760E+03  0.00000000000E+00 0. -1.
         11    1    1    2    0    0  0.18585923839E+02  0.13111519495E+01  0.15244630871E+02  0.24073937251E+02  0.00000000000E+00 0.  1.
</event>
<event>
 6    1  0.4988969E-006  0.1661892E+03  0.7561462E-02  0.1181881E+00
          2   -1    0    0  501    0  0.00000000000E+00  0.00000000000E+00  0.70380150920E+02  0.70380150920E+02  0.00000000000E+00 0.  1.
         -2   -1    0    0    0  501 -0.00000000000E+00 -0.00000000000E+00 -0.43815994583E+03  0.43815994583E+03  0.00000000000E+00 0. -1.
          5    1    1    2  502    0  0.22002875294E+02 -0.40118154817E+00  0.25561022831E+00  0.22401455408E+02  0.41800000000E+01 0. -1.
         -5    1    1    2    0  502 -0.79001491617E+02  0.12502391808E+03 -0.22117045190E+03  0.26609407540E+03  0.41800000000E+01 0. -1.
        -11    1    1    2    0    0  0.14153097439E+02 -0.11779307568E+03 -0.92198335736E+02  0.15025329267E+03  0.00000000000E+00 0.  1.
         11    1    1    2    0    0  0.42845518885E+02 -0.68296608504E+01 -0.54666617505E+02  0.69791273275E+02  0.00000000000E+00 0. -1.
</event>
<event>
 6    1  0.4988969E-006  0.1355362E+03  0.7561462E-02  0.1219465E+00
          2   -1    0    0  501    0  0.00000000000E+00  0.00000000000E+00  0.42453020286E+03  0.42453020286E+03  0.00000000000E+00 0. -1.
         -2   -1    0    0    0  501 -0.00000000000E+00 -0.00000000000E+00 -0.44937090724E+02  0.44937090724E+02  0.00000000000E+00 0.  1.
          5    1    1    2  502    0  0.11227767541E+03 -0.26933643985E+02  0.16263476493E+03  0.19949746048E+03  0.41800000000E+01 0. -1.
         -5    1    1    2    0  502 -0.28437252128E+02  0.14913259746E+02  0.22411238400E+02  0.39380434628E+02  0.41800000000E+01 0. -1.
        -11    1    1    2    0    0 -0.10256465025E+03  0.16541633182E+02  0.15493510675E+03  0.18654227514E+03  0.00000000000E+00 0.  1.
         11    1    1    2    0    0  0.18724226967E+02 -0.45212489426E+01  0.39612002062E+02  0.44047123344E+02  0.00000000000E+00 0. -1.
</event>
<event>
 6    1  0.4988969E-006  0.1965354E+03  0.7561462E-02  0.1152695E+00
         -1   -1    0    0    0  501 -0.00000000000E+00  0.00000000000E+00  0.24294054525E+03  0.24294054525E+03  0.00000000000E+00 0.  1.
          1   -1    0    0  501    0  0.00000000000E+00 -0.00000000000E+00 -0.19149758946E+03  0.19149758946E+03  0.00000000000E+00 0. -1.
          5    1    1    2  502    0  0.49330459958E+02 -0.13472853073E+03 -0.41712134416E+02  0.14947456583E+03  0.41800000000E+01 0.  1.
         -5    1    1    2    0  502  0.11407677510E+02 -0.41021659817E+02  0.62303087144E+02  0.75578163169E+02  0.41800000000E+01 0.  1.
        -11    1    1    2    0    0 -0.19732992410E+02  0.16244852907E+03  0.19450850937E+02  0.16479457269E+03  0.00000000000E+00 0.  1.
         11    1    1    2    0    0 -0.41005145058E+02  0.13301661478E+02  0.11401152132E+02  0.44590833018E+02  0.00000000000E+00 0. -1.
</event>
<event>
 6    1  0.4988969E-006  0.1762422E+03  0.7561462E-02  0.1171490E+00
         -1   -1    0    0    0  501 -0.00000000000E+00  0.00000000000E+00  0.88236619155E+02  0.88236619155E+02  0.00000000000E+00 0.  1.
          1   -1    0    0  501    0  0.00000000000E+00 -0.00000000000E+00 -0.80562243655E+03  0.80562243655E+03  0.00000000000E+00 0. -1.
          5    1    1    2  502    0  0.55718920537E+01 -0.31979269717E+02 -0.31253852940E+02  0.45254783132E+02  0.41800000000E+01 0.  1.
         -5    1    1    2    0  502 -0.14884331247E+03  0.14350948050E+02 -0.83911459647E+01  0.14982711740E+03  0.41800000000E+01 0.  1.
        -11    1    1    2    0    0  0.12042035933E+02  0.35717838955E+02 -0.14819984656E+03  0.15291817802E+03  0.00000000000E+00 0.  1.
         11    1    1    2    0    0  0.13122938448E+03 -0.18089517288E+02 -0.52954097194E+03  0.54585897716E+03  0.00000000000E+00 0. -1.
</event>
<event>
 6    1  0.4988969E-006  0.1070864E+03  0.7561462E-02  0.1266063E+00
          1   -1    0    0  501    0  0.00000000000E+00  0.00000000000E+00  0.18691921171E+03  0.18691921171E+03  0.00000000000E+00 0. -1.
         -1   -1    0    0    0  501 -0.00000000000E+00 -0.00000000000E+00 -0.10396009684E+03  0.10396009684E+03  0.00000000000E+00 0.  1.
          5    1    1    2  502    0  0.95463898738E+01 -0.57118332921E+02  0.56887004349E+01  0.58339276889E+02  0.41800000000E+01 0. -1.
         -5    1    1    2    0  502  0.26969120252E+02  0.49794482674E+02 -0.45498553764E+02  0.72762729103E+02  0.41800000000E+01 0.  1.
        -11    1    1    2    0    0 -0.38687428939E+02  0.46275169188E+02  0.55240955005E+02  0.81790412342E+02  0.00000000000E+00 0.  1.
         11    1    1    2    0    0  0.21719188129E+01 -0.38951318941E+02  0.67528013198E+02  0.77986890212E+02  0.00000000000E+00 0. -1.
</event>
<event>
 6    1  0.4988969E-006  0.1477926E+03  0.7561462E-02  0.1203212E+00
         -2   -1    0    0    0  501 -0.00000000000E+00  0.00000000000E+00  0.59627351528E+03  0.59627351528E+03  0.00000000000E+00 0.  1.
          2   -1    0    0  501    0  0.00000000000E+00 -0.00000000000E+00 -0.37719969750E+02  0.37719969750E+02  0.00000000000E+00 0. -1.
          5    1    1    2  502    0  0.59224999396E+02  0.68453001626E+01  0.83719460005E+02  0.10286340006E+03  0.41800000000E+01 0. -1.
         -5    1    1    2    0  502 -0.51248895739E+02  0.63637521431E+02  0.17353412812E+03  0.19185345832E+03  0.41800000000E+01 0. -1.
        -11    1    1    2    0    0 -0.43069557917E+02 -0.99530231725E+02  0.18606106112E+03  0.21536009916E+03  0.00000000000E+00 0. -1.
         11    1    1    2    0    0  0.35093454260E+02  0.29047410132E+02  0.11523889629E+03  0.12391652749E+03  0.00000000000E+00 0.  1.
</event>
<event>
 6    1  0.4988969E-006  0.9452588E+02  0.7561462E-02  0.1292248E+00
          2   -1    0    0  501    0  0.00000000000E+00  0.00000000000E+00  0.17090543650E+02  0.17090543650E+02  0.00000000000E+00 0. -1.
         -2   -1    0    0    0  501 -0.00000000000E+00 -0.00000000000E+00 -0.14692544497E+04  0.14692544497E+04  0.00000000000E+00 0.  1.
          5    1    1    2  502    0 -0.56115015760E+01  0.35808337009E+02 -0.10407946028E+03  0.11028931227E+03  0.41800000000E+01 0.  1.
         -5    1    1    2    0  502  0.73947734417E+02 -0.89818108299E+01 -0.10931674930E+04  0.10957105368E+04  0.41800000000E+01 0.  1.
        -11    1    1    2    0    0 -0.20665398298E+02  0.41885465439E+01 -0.20767326732E+01  0.21187624397E+02  0.00000000000E+00 0. -1.
         11    1    1    2    0    0 -0.47670834543E+02 -0.31015072723E+02 -0.25284022015E+03  0.25915751992E+03  0.00000000000E+00 0.  1.
</event>
<event>
 6    1  0.4988969E-006  0.1073568E+03  0.7561462E-02  0.1265544E+00
          1   -1    0    0  501    0  0.00000000000E+00  0.00000000000E+00  0.13585181559E+03  0.13585181559E+03  0.00000000000E+00 0. -1.
         -1   -1    0    0    0  501 -0.00000000000E+00 -0.00000000000E+00 -0.13631117527E+03  0.13631117527E+03  0.00000000000E+00 0.  1.
          5    1    1    2  502    0  0.50337150556E+02 -0.59036560588E+02 -0.44240879038E+02  0.89408455921E+02  0.41800000000E+01 0. -1.
         -5    1    1    2    0  502 -0.17113553765E+02  0.49026715056E+02 -0.28834791762E+02  0.59543346628E+02  0.41800000000E+01 0. -1.
        -11    1    1    2    0    0  0.28882176737E+00 -0.31540234226E+02 -0.18416254480E+01  0.31595274604E+02  0.00000000000E+00 0.  1.
         11    1    1    2    0    0 -0.33512418559E+02  0.41550079757E+02  0.74457936570E+02  0.91615913704E+02  0.00000000000E+00 0. -1.
</event>
<event>
 6    1  0.4988969E-006  0.1244799E+03  0.7561462E-02  0.1235884E+00
          2   -1    0    0  501    0  0.00000000000E+00  0.00000000000E+00  0.32219658109E+03  0.32219658109E+03  0.00000000000E+00 0. -1.
         -2   -1    0    0    0  501 -0.00000000000E+00 -0.00000000000E+00 -0.63956855573E+02  0.63956855573E+02  0.00000000000E+00 0.  1.
          5    1    1    2  502    0  0.63977998694E+02  0.89461188410E+02  0.59564277843E+02  0.12514736970E+03  0.41800000000E+01 0.  1.
         -5    1    1    2    0  502 -0.39422837018E+02 -0.67346708434E+00  0.55340180431E+02  0.68078055250E+02  0.41800000000E+01 0.  1.
        -11    1    1    2    0    0 -0.34392261858E+02 -0.65896863690E+02  0.14976487125E+03  0.16719671343E+03  0.00000000000E+00 0. -1.
         11    1    1    2    0    0  0.98371001823E+01 -0.22890857635E+02 -0.64296040138E+01  0.25731298277E+02  0.00000000000E+00 0.  1.
</event>
<event>
 6    1  0.4988969E-006  0.1007050E+03  0.7561462E-02  0.1278820E+00
          2   -1    0    0  501    0  0.00000000000E+00  0.00000000000E+00  0.54597107403E+03  0.54597107403E+03  0.00000000000E+00 0. -1.
         -2   -1    0    0    0  501 -0.00000000000E+00 -0.00000000000E+00 -0.42263197182E+02  0.42263197182E+02  0.00000000000E+00 0.  1.
          5    1    1    2  502    0  0.41636743384E+02 -0.65291429623E+02  0.10424470858E+02  0.78247882875E+02  0.41800000000E+01 0.  1.
         -5    1    1    2    0  502 -0.67844794748E+01  0.68566897046E+01  0.10371589819E+03  0.10424731791E+03  0.41800000000E+01 0.  1.
        -11    1    1    2    0    0  0.75699298740E+01  0.69173697918E+02  0.23264611442E+03  0.24283022645E+03  0.00000000000E+00 0. -1.
         11    1    1    2    0    0 -0.42422193783E+02 -0.10738958000E+02  0.15692139338E+03  0.16290884398E+03  0.00000000000E+00 0.  1.
</event>
<event>
 6    1  0.4988969E-006  0.2302605E+03  0.7561462E-02  0.1126457E+00
         -2   -1    0    0    0  501 -0.00000000000E+00  0.00000000000E+00  0.85277720754E+03  0.85277720754E+03  0.00000000000E+00 0.  1.
          2   -1    0    0  501    0  0.00000000000E+00 -0.00000000000E+00 -0.12145969489E+03  0.12145969489E+03  0.00000000000E+00 0. -1.
          5    1    1    2  502    0 -0.14310927857E+03 -0.15912074202E+02  0.26072822358E+03  0.29787604584E+03  0.41800000000E+01 0.  1.
         -5    1    1    2    0  502 -0.76804822324E+02  0.34886855717E+02  0.42425913824E+03  0.43258451453E+03  0.41800000000E+01 0.  1.
        -11    1    1    2    0    0  0.52802675257E+02  0.26134259965E+02 -0.13846826998E+02  0.60521538944E+02  0.00000000000E+00 0. -1.
         11    1    1    2    0    0  0.16711142563E+03 -0.45109041480E+02  0.60176977830E+02  0.18325480311E+03  0.00000000000E+00 0.  1.
</event>
<event>
 6    1  0.4988969E-006  0.8046650E+02  0.7561462E-02  0.1327733E+00
          2   -1    0    0  501    0  0.00000000000E+00  0.00000000000E+00  0.43115787852E+02  0.43115787852E+02  0.00000000000E+00 0. -1.
         -2   -1    0    0    0  501 -0.00000000000E+00 -0.00000000000E+00 -0.29816201249E+03  0.29816201249E+03  0.00000000000E+00 0.  1.
          5    1    1    2  502    0 -0.24031513041E+02 -0.28211287845E+02 -0.12349954429E+03  0.12900775256E+03  0.41800000000E+01 0. -1.
         -5    1    1    2    0  502  0.40136818816E+02  0.47178067933E+02 -0.25478935687E+02  0.67107249104E+02  0.41800000000E+01 0. -1.
        -11    1    1    2    0    0 -0.97202602170E+00 -0.37565907525E+02 -0.12094825696E+01  0.37597939982E+02  0.00000000000E+00 0. -1.
         11    1    1    2    0    0 -0.15133279753E+02  0.18599127437E+02 -0.10485826209E+03  0.10756485870E+03  0.00000000000E+00 0.  1.
</event>
<event>
 6    1  0.4988969E-006  0.1013847E+03  0.7561462E-02  0.1277411E+00
         -1   -1    0    0    0  501 -0.00000000000E+00  0.00000000000E+00  0.88157839741E+03  0.88157839741E+03  0.00000000000E+00 0.  1.
          1   -1    0    0  501    0  0.00000000000E+00 -0.00000000000E+00 -0.23970159933E+02  0.23970159933E+02  0.00000000000E+00 0. -1.
          5    1    1    2  502    0 -0.26079887848E+02  0.25948396971E+02  0.13464398034E+03  0.13964223464E+03  0.41800000000E+01 0. -1.
         -5    1    1    2    0  502  0.46968758191E+02 -0.69130110661E+02  0.60112325031E+03  0.60691982248E+03  0.41800000000E+01 0.  1.
        -11    1    1    2    0    0 -0.12828120314E+02  0.61090431496E+02  0.38450680375E+02  0.73314775540E+02  0.00000000000E+00 0. -1.
         11    1    1    2    0    0 -0.80607500288E+01 -0.17908717806E+02  0.83390326457E+02  0.85671724688E+02  0.00000000000E+00 0.  1.
</event>
<event>
 6    1  0.4988969E-006  0.1077585E+03  0.7561462E-02  0.1264778E+00
         -1   -1    0    0    0  501 -0.00000000000E+00  0.00000000000E+00  0.10446837077E+03  0.10446837077E+03  0.00000000000E+00 0.  1.
          1   -1    0    0  501    0  0.00000000000E+00 -0.00000000000E+00 -0.13872781190E+03  0.13872781190E+03  0.00000000000E+00 0. -1.
          5    1    1    2  502    0  0.19131613575E+02  0.49768616182E+02  0.90826975450E+01  0.54248516932E+02  0.41800000000E+01 0. -1.
         -5    1    1    2    0  502  0.24658094554E+02 -0.72998756514E+02 -0.25679411680E+02  0.81324932609E+02  0.41800000000E+01 0. -1.
        -11    1    1    2    0    0  0.78875210849E+01  0.31555636986E+02 -0.39273101440E+02  0.50993604610E+02  0.00000000000E+00 0. -1.
         11    1    1    2    0    0 -0.51677229214E+02 -0.83254966533E+01  0.21610374438E+02  0.56629128521E+02  0.00000000000E+00 0.  1.
</event>
<event>
 6    1  0.4988969E-006  0.8595031E+02  0.7561462E-02  0.1312966E+00
         -1   -1    0    0    0  501 -0.00000000000E+00  0.00000000000E+00  0.16866056648E+03  0.16866056648E+03  0.00000000000E+00 0.  1.
          1   -1    0    0  501    0  0.00000000000E+00 -0.00000000000E+00 -0.80253120400E+02  0.80253120400E+02  0.00000000000E+00 0. -1.
          5    1    1    2  502    0 -0.36335891708E+02 -0.24781420984E+02  0.31443949445E+01  0.44291934613E+02  0.41800000000E+01 0.  1.
         -5    1    1    2    0  502  0.78839860364E+02  0.30276259903E+02  0.49897871951E+02  0.98181696467E+02  0.41800000000E+01 0.  1.
        -11    1    1    2    0    0 -0.20335221432E+02 -0.46746188712E-01 -0.30541333356E+02  0.36691912720E+02  0.00000000000E+00 0. -1.
         11    1    1    2    0    0 -0.22168747225E+02 -0.54480927303E+01  0.65906512545E+02  0.69748143085E+02  0.00000000000E+00 0.  1.
</event>
<event>
 6    1  0.4988969E-006  0.6713598E+02  0.7561462E-02  0.1370112E+00
         -2   -1    0    0    0  501 -0.00000000000E+00  0.00000000000E+00  0.56795719913E+02  0.56795719913E+02  0.00000000000E+00 0.  1.
          2   -1    0    0  501    0  0.00000000000E+00 -0.00000000000E+00 -0.27400462101E+03  0.27400462101E+03  0.00000000000E+00 0. -1.
          5    1    1    2  502    0 -0.21322133731E+02 -0.70639965220E+01  0.34909602640E+02  0.41721531494E+02  0.41800000000E+01 0. -1.
         -5    1    1    2    0  502  0.12221423247E+02  0.38574565379E+02 -0.90146095610E+02  0.98899702901E+02  0.41800000000E+01 0. -1.
        -11    1    1    2    0    0 -0.27031719377E+02 -0.16102438863E+02 -0.97055263052E+01  0.32927186802E+02  0.00000000000E+00 0.  1.
         11    1    1    2    0    0  0.36132429861E+02 -0.15408129994E+02 -0.15226688182E+03  0.15725191973E+03  0.00000000000E+00 0. -1.
</event>
<event>
 6    1  0.4988969E-006  0.8313659E+02  0.7561462E-02  0.1320379E+00
         -2   -1    0    0    0  501 -0.00000000000E+00  0.00000000000E+00  0.63894768683E+02  0.63894768683E+02  0.00000000000E+00 0.  1.
          2   -1    0    0  501    0  0.00000000000E+00 -0.00000000000E+00 -0.24133043124E+03  0.24133043124E+03  0.00000000000E+00 0. -1.
          5    1    1    2  502    0  0.16625966787E+02 -0.12884476047E+02 -0.10331547794E+03  0.10551773726E+03  0.41800000000E+01 0.  1.
         -5    1    1    2    0  502 -0.14433049416E+02 -0.46837885849E+02  0.23425851168E+02  0.54482505167E+02  0.41800000000E+01 0.  1.
        -11    1    1    2    0    0 -0.37500190608E+02  0.41404884567E+02 -0.88140235185E+02  0.10435195168E+03  0.00000000000E+00 0. -1.
         11    1    1    2    0    0  0.35307273238E+02  0.18317477329E+02 -0.94058005993E+01  0.40873005812E+02  0.00000000000E+00 0.  1.
</event>
<event>
 6    1  0.4988969E-006  0.1249398E+03  0.7561462E-02  0.1235163E+00
         -1   -1    0    0    0  501 -0.00000000000E+00  0.00000000000E+00  0.13634852128E+03  0.13634852128E+03  0.00000000000E+00 0.  1.
          1   -1    0    0  501    0  0.00000000000E+00 -0.00000000000E+00 -0.17058646896E+03  0.17058646896E+03  0.00000000000E+00 0. -1.
          5    1    1    2  502    0 -0.40728796454E+02  0.72436547619E+02  0.49567636696E+02  0.96852007203E+02  0.41800000000E+01 0.  1.
         -5    1    1    2    0  502  0.58467591205E+02 -0.26849705728E+01  0.11196644809E+02  0.59736969652E+02  0.41800000000E+01 0.  1.
        -11    1    1    2    0    0 -0.35181675096E+02 -0.80258948716E+02 -0.49858709645E+02  0.10082231915E+03  0.00000000000E+00 0.  1.
         11    1    1    2    0    0  0.17442880345E+02  0.10507371669E+02 -0.45143519543E+02  0.49523694237E+02  0.00000000000E+00 0. -1.
</event>
<event>
 6    1  0.4988969E-006  0.2991614E+03  0.7561462E-02  0.1085661E+00
          1   -1    0    0  501    0  0.00000000000E+00  0.00000000000E+00  0.26297994184E+03  0.26297994184E+03  0.00000000000E+00 0. -1.
         -1   -1    0    0    0  501 -0.00000000000E+00 -0.00000000000E+00 -0.36795972462E+03  0.36795972462E+03  0.00000000000E+00 0.  1.
          5    1    1    2  502    0 -0.12528256056E+03  0.12328239362E+02 -0.55562892628E+02  0.13766776276E+03  0.41800000000E+01 0.  1.
         -5    1    1    2    0  502 -0.15275396653E+03 -0.96319715422E+02  0.14549814884E+02  0.18121929087E+03  0.41800000000E+01 0.  1.
        -11    1    1    2    0    0  0.23195594504E+03  0.80464795972E+02 -0.86923870637E+02  0.26044942526E+03  0.00000000000E+00 0.  1.
         11    1    1    2    0    0  0.46080582051E+02  0.35266800889E+01  0.22957165599E+02  0.51603187566E+02  0.00000000000E+00 0. -1.
</event>
<event>
 6    1  0.4988969E-006  0.9530726E+02  0.7561462E-02  0.1290486E+00
         -1   -1    0    0    0  501 -0.00000000000E+00  0.00000000000E+00  0.12488763105E+03  0.12488763105E+03  0.00000000000E+00 0.  1.
          1   -1    0    0  501    0  0.00000000000E+00 -0.00000000000E+00 -0.15234333733E+03  0.15234333733E+03  0.00000000000E+00 0. -1.
          5    1    1    2  502    0  0.27048850269E+01  0.70640168490E+02  0.12704375225E+02  0.71945975268E+02  0.41800000000E+01 0.  1.
         -5    1    1    2    0  502  0.22033979840E+02 -0.46717109059E+02  0.50537426794E+02  0.72384310824E+02  0.41800000000E+01 0.  1.
        -11    1    1    2    0    0 -0.28188037573E+02  0.12895651718E+02 -0.90773975874E+02  0.95920685941E+02  0.00000000000E+00 0. -1.
         11    1    1    2    0    0  0.34491727055E+01 -0.36818711149E+02  0.76467576773E-01  0.36979996353E+02  0.00000000000E+00 0.  1.
</event>
<event>
 6    1  0.4988969E-006  0.1343660E+03  0.7561462E-02  0.1221117E+00
          3   -1    0    0  501    0  0.00000000000E+00  0.00000000000E+00  0.44700620453E+02  0.44700620453E+02  0.00000000000E+00 0. -1.
         -3   -1    0    0    0  501 -0.00000000000E+00 -0.00000000000E+00 -0.52724651656E+03  0.52724651656E+03  0.00000000000E+00 0.  1.
          5    1    1    2  502    0  0.23429002513E+02 -0.12446921695E+02 -0.65686974242E+01  0.27648945808E+02  0.41800000000E+01 0.  1.
         -5    1    1    2    0  502 -0.73668038880E+02 -0.72963989213E+02 -0.31240277574E+03  0.32918640671E+03  0.41800000000E+01 0.  1.
        -11    1    1    2    0    0  0.45905199753E+02  0.10681759192E+03 -0.14838470953E+03  0.18850810945E+03  0.00000000000E+00 0.  1.
         11    1    1    2    0    0  0.43338366140E+01 -0.21406681015E+02 -0.15189713413E+02  0.26603675036E+02  0.00000000000E+00 0. -1.
</event>
<event>
 6    1  0.4988969E-006  0.9227665E+02  0.7561462E-02  0.1297430E+00
         -1   -1    0    0    0  501 -0.00000000000E+00  0.00000000000E+00  0.50128095315E+02  0.50128095315E+02  0.00000000000E+00 0.  1.
          1   -1    0    0  501    0  0.00000000000E+00 -0.00000000000E+00 -0.23200120632E+03  0.23200120632E+03  0.00000000000E+00 0. -1.
          5    1    1    2  502    0 -0.58998410705E+02  0.75519563967E+01 -0.62412701038E+02  0.86317218224E+02  0.41800000000E+01 0. -1.
         -5    1    1    2    0  502  0.62624096489E+02  0.12207706077E+02 -0.30837017747E+02  0.70987320081E+02  0.41800000000E+01 0. -1.
        -11    1    1    2    0    0 -0.15372770707E+02  0.16690240899E+02  0.53798040750E+01  0.23320131053E+02  0.00000000000E+00 0.  1.
         11    1    1    2    0    0  0.11747084922E+02 -0.36449903373E+02 -0.94003196291E+02  0.10150463227E+03  0.00000000000E+00 0. -1.
</event>
<event>
 6    1  0.4988969E-006  0.1225287E+03  0.7561462E-02  0.1238983E+00
         -1   -1    0    0    0  501 -0.00000000000E+00  0.00000000000E+00  0.38950314869E+03  0.38950314869E+03  0.00000000000E+00 0.  1.
          1   -1    0    0  501    0  0.00000000000E+00 -0.00000000000E+00 -0.44989092457E+02  0.44989092457E+02  0.00000000000E+00 0. -1.
          5    1    1    2  502    0  0.10543493150E+02 -0.10658521446E+03  0.10343299009E+03  0.14895445287E+03  0.41800000000E+01 0.  1.
         -5    1    1    2    0  502 -0.91900514503E+01  0.33440943903E+02  0.60773004280E+02  0.70096963016E+02  0.41800000000E+01 0.  1.
        -11    1    1    2    0    0 -0.33252937792E+02  0.14703630826E+02  0.12076554856E+03  0.12612007116E+03  0.00000000000E+00 0. -1.
         11    1    1    2    0    0  0.31899496093E+02  0.58440639734E+02  0.59542513311E+02  0.89320754111E+02  0.00000000000E+00 0.  1.
</event>
<event>
 6    1  0.4988969E-006  0.1570958E+03  0.7561462E-02  0.1192015E+00
         -2   -1    0    0    0  501 -0.00000000000E+00  0.00000000000E+00  0.28714565736E+02  0.28714565736E+02  0.00000000000E+00 0.  1.
          2   -1    0    0  501    0  0.00000000000E+00 -0.00000000000E+00 -0.11446509305E+04  0.11446509305E+04  0.00000000000E+00 0. -1.
          5    1    1    2  502    0  0.30519128251E+02  0.58795300793E+02 -0.28767637248E+03  0.29523460547E+03  0.41800000000E+01 0. -1.
         -5    1    1    2    0  502  0.97593020446E+02 -0.64006369703E+01 -0.13475038273E+03  0.16655480732E+03  0.41800000000E+01 0. -1.
        -11    1    1    2    0    0 -0.93290280794E+02 -0.81873039259E+01 -0.54035181952E+03  0.54840696321E+03  0.00000000000E+00 0. -1.
         11    1    1    2    0    0 -0.34821867903E+02 -0.44207359897E+02 -0.15315779004E+03  0.16316912025E+03  0.00000000000E+00 0.  1.
</event>
<event>
 6    1  0.4988969E-006  0.1571032E+03  0.7561462E-02  0.1192007E+00
          1   -1    0    0  501    0  0.00000000000E+00  0.00000000000E+00  0.13695888433E+03  0.13695888433E+03  0.00000000000E+00 0. -1.
         -1   -1    0    0    0  501 -0.00000000000E+00 -0.00000000000E+00 -0.36738849078E+03  0.36738849078E+03  0.00000000000E+00 0.  1.
          5    1    1    2  502    0  0.33679270472E+02 -0.92885530276E+02 -0.82234428009E+02  0.12861566213E+03  0.41800000000E+01 0. -1.
         -5    1    1    2    0  502 -0.37383059768E+02 -0.39005523363E+02 -0.19921554276E+03  0.20645393890E+03  0.41800000000E+01 0. -1.
        -11    1    1    2    0    0  0.40783824274E+02  0.11168491374E+03  0.33226686133E+02  0.12345384948E+03  0.00000000000E+00 0.  1.
         11    1    1    2    0    0 -0.37080034978E+02  0.20206139896E+02  0.17793678180E+02  0.45823924610E+02  0.00000000000E+00 0. -1.
</event>
<event>
 6    1  0.4988969E-006  0.1320723E+03  0.7561462E-02  0.1224413E+00
          2   -1    0    0  501    0  0.00000000000E+00  0.00000000000E+00  0.39437405561E+02  0.39437405561E+02  0.00000000000E+00 0.  1.
         -2   -1    0    0    0  501 -0.00000000000E+00 -0.00000000000E+00 -0.60536958518E+03  0.60536958518E+03  0.00000000000E+00 0. -1.
          5    1    1    2  502    0  0.62198483344E+02  0.53436049938E+02 -0.27635272386E+03  0.28829214895E+03  0.41800000000E+01 0. -1.
         -5    1    1    2    0  502  0.14722491522E+02 -0.62900730344E+02 -0.19007064818E+03  0.20079237369E+03  0.41800000000E+01 0. -1.
        -11    1    1    2    0    0 -0.72762125008E+02 -0.29208564813E+02 -0.80702901682E+02  0.11251855595E+03  0.00000000000E+00 0. -1.
         11    1    1    2    0    0 -0.41588498577E+01  0.38673245219E+02 -0.18805905904E+02  0.43203912147E+02  0.00000000000E+00 0.  1.
</event>
<event>
 6    1  0.4988969E-006  0.1362836E+03  0.7561462E-02  0.1218419E+00
         -2   -1    0    0    0  501 -0.00000000000E+00  0.00000000000E+00  0.27374276140E+02  0.27374276140E+02  0.00000000000E+00 0. -1.
          2   -1    0    0  501    0  0.00000000000E+00 -0.00000000000E+00 -0.94677184082E+03  0.94677184082E+03  0.00000000000E+00 0.  1.
          5    1    1    2  502    0 -0.72622919949E+02  0.53098658341E+02 -0.13742993075E+03  0.16431072480E+03  0.41800000000E+01 0. -1.
         -5    1    1    2    0  502 -0.28344041188E+00  0.40846348142E+02 -0.35750509424E+03  0.35985534497E+03  0.41800000000E+01 0. -1.
        -11    1    1    2    0    0  0.50302378646E+01 -0.68919300031E+02 -0.13554801627E+03  0.15214610716E+03  0.00000000000E+00 0.  1.
         11    1    1    2    0    0  0.67876122496E+02 -0.25025706451E+02 -0.28891452342E+03  0.29783394003E+03  0.00000000000E+00 0. -1.
</event>
<event>
 6    1  0.4988969E-006  0.1000073E+03  0.7561462E-02  0.1280281E+00
          1   -1    0    0  501    0  0.00000000000E+00  0.00000000000E+00  0.52971799128E+03  0.52971799128E+03  0.00000000000E+00 0. -1.
         -1   -1    0    0    0  501 -0.00000000000E+00 -0.00000000000E+00 -0.25069449745E+02  0.25069449745E+02  0.00000000000E+00 0.  1.
          5    1    1    2  502    0 -0.92036798089E+01  0.41826496448E+02  0.36370845741E+02  0.56342473739E+02  0.41800000000E+01 0.  1.
         -5    1    1    2    0  502 -0.24869203290E+02 -0.66382019602E+02  0.23360060356E+03  0.24415520511E+03  0.41800000000E+01 0.  1.
        -11    1    1    2    0    0  0.19121599881E+02  0.51623150882E+02  0.20172098753E+03  0.20909792466E+03  0.00000000000E+00 0. -1.
         11    1    1    2    0    0  0.14951283218E+02 -0.27067627728E+02  0.32956104717E+02  0.45191837524E+02  0.00000000000E+00 0.  1.
</event>
<event>
 6    1  0.4988969E-006  0.1434679E+03  0.7561462E-02  0.1208737E+00
          3   -1    0    0  501    0  0.00000000000E+00  0.00000000000E+00  0.27195360352E+02  0.27195360352E+02  0.00000000000E+00 0. -1.
         -3   -1    0    0    0  501 -0.00000000000E+00 -0.00000000000E+00 -0.82436415817E+03  0.82436415817E+03  0.00000000000E+00 0.  1.
          5    1    1    2  502    0  0.60185928367E+01 -0.10400698033E+03 -0.26376383446E+03  0.28362388507E+03  0.41800000000E+01 0.  1.
         -5    1    1    2    0  502 -0.55175735832E+02  0.14499392218E+02 -0.14859745129E+03  0.15922709923E+03  0.41800000000E+01 0.  1.
        -11    1    1    2    0    0 -0.16364068818E+02  0.25060281879E+01 -0.12351902883E+02  0.20655082435E+02  0.00000000000E+00 0.  1.
         11    1    1    2    0    0  0.65521211813E+02  0.87001559922E+02 -0.37245560919E+03  0.38805345178E+03  0.00000000000E+00 0. -1.
</event>
<event>
 6    1  0.4988969E-006  0.8253316E+02  0.7561462E-02  0.1322013E+00
         -2   -1    0    0    0  501 -0.00000000000E+00  0.00000000000E+00  0.69777564785E+02  0.69777564785E+02  0.00000000000E+00 0.  1.
          2   -1    0    0  501    0  0.00000000000E+00 -0.00000000000E+00 -0.19847382787E+03  0.19847382787E+03  0.00000000000E+00 0. -1.
          5    1    1    2  502    0  0.81665815102E+01  0.42405771253E+02  0.36341230470E+02  0.56595935553E+02  0.41800000000E+01 0.  1.
         -5    1    1    2    0  502 -0.13681523369E+02 -0.33278116283E+02 -0.61448733059E+02  0.71330472448E+02  0.41800000000E+01 0.  1.
        -11    1    1    2    0    0  0.45035541670E+02 -0.90511118142E+01 -0.85071362999E+02  0.96681225898E+02  0.00000000000E+00 0. -1.
         11    1    1    2    0    0 -0.39520599812E+02 -0.76543154938E-01 -0.18517397499E+02  0.43643758757E+02  0.00000000000E+00 0.  1.
</event>
<event>
 6    1  0.4988969E-006  0.1056836E+03  0.7561462E-02  0.1268779E+00
         -2   -1    0    0    0  501 -0.00000000000E+00  0.00000000000E+00  0.31231535997E+02  0.31231535997E+02  0.00000000000E+00 0.  1.
          2   -1    0    0  501    0  0.00000000000E+00 -0.00000000000E+00 -0.45110967655E+03  0.45110967655E+03  0.00000000000E+00 0. -1.
          5    1    1    2  502    0  0.43723370148E+02  0.30457345014E+02 -0.18503601397E+03  0.19260109509E+03  0.41800000000E+01 0. -1.
         -5    1    1    2    0  502 -0.44793951114E+02  0.25712205816E+02 -0.36843189151E+02  0.63580724840E+02  0.41800000000E+01 0.  1.
        -11    1    1    2    0    0  0.21690596317E+02  0.18578701373E+02 -0.80175553616E+02  0.85110337274E+02  0.00000000000E+00 0.  1.
         11    1    1    2    0    0 -0.20620015351E+02 -0.74748252203E+02 -0.11782338382E+03  0.14104905535E+03  0.00000000000E+00 0. -1.
</event>
<event>
 6    1  0.4988969E-006  0.1476167E+03  0.7561462E-02  0.1203433E+00
          2   -1    0    0  501    0  0.00000000000E+00  0.00000000000E+00  0.57761324061E+03  0.57761324061E+03  0.00000000000E+00 0. -1.
         -2   -1    0    0    0  501 -0.00000000000E+00 -0.00000000000E+00 -0.51635401073E+02  0.51635401073E+02  0.00000000000E+00 0.  1.
          5    1    1    2  502    0 -0.31186162933E+02  0.20426700299E+02  0.19414309317E+03  0.19773426580E+03  0.41800000000E+01 0.  1.
         -5    1    1    2    0  502 -0.52459510277E+02  0.84486162415E+02  0.61806181156E+02  0.11716393766E+03  0.41800000000E+01 0.  1.
        -11    1    1    2    0    0 -0.17306867102E+02 -0.12842128331E+02  0.19883416073E+02  0.29322314774E+02  0.00000000000E+00 0. -1.
         11    1    1    2    0    0  0.10095254031E+03 -0.92070734383E+02  0.25014514913E+03  0.28502812346E+03  0.00000000000E+00 0.  1.
</event>
<event>
 6    1  0.4988969E-006  0.1086103E+03  0.7561462E-02  0.1263165E+00
          1   -1    0    0  501    0  0.00000000000E+00  0.00000000000E+00  0.25234294263E+03  0.25234294263E+03  0.00000000000E+00 0. -1.
         -1   -1    0    0    0  501 -0.00000000000E+00 -0.00000000000E+00 -0.67156498213E+02  0.67156498213E+02  0.00000000000E+00 0.  1.
          5    1    1    2  502    0 -0.34470356371E+01  0.78864389327E+02 -0.59481611248E+00  0.79052515234E+02  0.41800000000E+01 0. -1.
         -5    1    1    2    0  502 -0.17602029202E+02 -0.42432489177E+02  0.33369812675E+02  0.56932981370E+02  0.41800000000E+01 0. -1.
        -11    1    1    2    0    0 -0.15104987921E+02 -0.50904958309E+02  0.12523161416E+03  0.13602364730E+03  0.00000000000E+00 0. -1.
         11    1    1    2    0    0  0.36154052761E+02  0.14473058158E+02  0.27179833696E+02  0.47490296938E+02  0.00000000000E+00 0.  1.
</event>
<event>
 6    1  0.4988969E-006  0.1368004E+03  0.7561462E-02  0.1217700E+00
          1   -1    0    0  501    0  0.00000000000E+00  0.00000000000E+00  0.38046131294E+03  0.38046131294E+03  0.00000000000E+00 0. -1.
         -1   -1    0    0    0  501 -0.00000000000E+00 -0.00000000000E+00 -0.53431965751E+02  0.53431965751E+02  0.00000000000E+00 0.  1.
          5    1    1    2  502    0  0.57396020425E+02  0.32556899213E+02  0.47473578082E+02  0.81396976989E+02  0.41800000000E+01 0. -1.
         -5    1    1    2    0  502 -0.10180775526E+03 -0.28012426532E+02  0.11737898527E+03  0.15793927205E+03  0.41800000000E+01 0.  1.
        -11    1    1    2    0    0  0.18386899147E+02  0.43467307520E+02  0.44688375030E+02  0.64996428718E+02  0.00000000000E+00 0.  1.
         11    1    1    2    0    0  0.26024835692E+02 -0.48011780202E+02  0.11748840881E+03  0.12956060094E+03  0.00000000000E+00 0. -1.
</event>
<event>
 6    1  0.4988969E-006  0.1169546E+03  0.7561462E-02  0.1248207E+00
         -1   -1    0    0    0  501 -0.00000000000E+00  0.00000000000E+00  0.25424849878E+02  0.25424849878E+02  0.00000000000E+00 0.  1.
          1   -1    0    0  501    0  0.00000000000E+00 -0.00000000000E+00 -0.65262379325E+03  0.65262379325E+03  0.00000000000E+00 0. -1.
          5    1    1    2  502    0  0.33733066905E+02  0.67782853971E+02 -0.21711803207E+03  0.22997858019E+03  0.41800000000E+01 0.  1.
         -5    1    1    2    0  502 -0.47866424736E+02 -0.83526976471E+01 -0.42865638023E+02  0.64929943001E+02  0.41800000000E+01 0.  1.
        -11    1    1    2    0    0 -0.46534326404E+01 -0.80756727634E+02 -0.27105033638E+03  0.28286319723E+03  0.00000000000E+00 0. -1.
         11    1    1    2    0    0  0.18786790471E+02  0.21326571310E+02 -0.96164936898E+02  0.10027692271E+03  0.00000000000E+00 0.  1.
</event>
<event>
 6    1  0.4988969E-006  0.1205021E+03  0.7561462E-02  0.1242271E+00
         -2   -1    0    0    0  501 -0.00000000000E+00  0.00000000000E+00  0.28934505246E+02  0.28934505246E+02  0.00000000000E+00 0.  1.
          2   -1    0    0  501    0  0.00000000000E+00 -0.00000000000E+00 -0.69497958157E+03  0.69497958157E+03  0.00000000000E+00 0. -1.
          5    1    1    2  502    0 -0.30954533200E+02 -0.75327970147E+02 -0.18029166819E+03  0.19787633570E+03  0.41800000000E+01 0.  1.
         -5    1    1    2    0  502 -0.27106457588E+02  0.38636533796E+02 -0.29365820178E+02  0.55743749259E+02  0.41800000000E+01 0.  1.
        -11    1    1    2    0    0 -0.18722503504E+02 -0.10972419251E+02 -0.62127708982E+02  0.65808649470E+02  0.00000000000E+00 0.  1.
         11    1    1    2    0    0  0.76783494291E+02  0.47663855602E+02 -0.39425987897E+03  0.40448535239E+03  0.00000000000E+00 0. -1.
</event>
<event>
 6    1  0.4988969E-006  0.1109079E+03  0.7561462E-02  0.1258898E+00
         -1   -1    0    0    0  501 -0.00000000000E+00  0.00000000000E+00  0.51906609829E+02  0.51906609829E+02  0.00000000000E+00 0.  1.
          1   -1    0    0  501    0  0.00000000000E+00 -0.00000000000E+00 -0.32363367517E+03  0.32363367517E+03  0.00000000000E+00 0. -1.
          5    1    1    2  502    0 -0.39808764002E+02  0.56316798928E+02 -0.28975262595E+02  0.74922344966E+02  0.41800000000E+01 0. -1.
         -5    1    1    2    0  502  0.33397592595E+02  0.21521799646E+02 -0.12738480197E+03  0.13350261130E+03  0.41800000000E+01 0.  1.
        -11    1    1    2    0    0  0.10656360265E+02 -0.94744422958E+02 -0.11539248446E+03  0.14968463236E+03  0.00000000000E+00 0.  1.
         11    1    1    2    0    0 -0.42451888583E+01  0.16905824384E+02  0.25483682861E-01  0.17430696371E+02  0.00000000000E+00 0. -1.
</event>
<event>
 6    1  0.4988969E-006  0.9985302E+02  0.7561462E-02  0.1280605E+00
          2   -1    0    0  501    0  0.00000000000E+00  0.00000000000E+00  0.63257666388E+03  0.63257666388E+03  0.00000000000E+00 0. -1.
         -2   -1    0    0    0  501 -0.00000000000E+00 -0.00000000000E+00 -0.23147536046E+02  0.23147536046E+02  0.00000000000E+00 0.  1.
          5    1    1    2  502    0 -0.11979063323E+00 -0.66089438079E+02  0.21436091285E+03  0.22435663915E+03  0.41800000000E+01 0. -1.
         -5    1    1    2    0  502  0.37146875257E+02  0.37419640740E+02  0.55009478810E+02  0.76312744764E+02  0.41800000000E+01 0. -1.
        -11    1    1    2    0    0 -0.51177047688E+02  0.37913162435E+02  0.32840743512E+03  0.33452644371E+03  0.00000000000E+00 0. -1.
         11    1    1    2    0    0  0.14149963064E+02 -0.92433650956E+01  0.11651301051E+02  0.20528372297E+02  0.00000000000E+00 0.  1.
</event>
<event>
 6    1  0.4988969E-006  0.2249496E+03  0.7561462E-02  0.1130246E+00
          1   -1    0    0  501    0  0.00000000000E+00  0.00000000000E+00  0.75424022568E+03  0.75424022568E+03  0.00000000000E+00 0. -1.
         -1   -1    0    0    0  501 -0.00000000000E+00 -0.00000000000E+00 -0.17859580010E+03  0.17859580010E+03  0.00000000000E+00 0.  1.
          5    1    1    2  502    0  0.85111797972E+02  0.15055675223E+03 -0.90509494378E+00  0.17300186529E+03  0.41800000000E+01 0. -1.
         -5    1    1    2    0  502  0.53697627806E+02  0.12212445694E+02 -0.61268643367E+02  0.82485744962E+02  0.41800000000E+01 0. -1.
        -11    1    1    2    0    0 -0.17156037359E+02  0.15446530813E+01  0.19067943753E+02  0.25696343125E+02  0.00000000000E+00 0.  1.
         11    1    1    2    0    0 -0.12165338842E+03 -0.16431385101E+03  0.61875022014E+03  0.65165207241E+03  0.00000000000E+00 0. -1.
</event>
<event>
 6    1  0.4988969E-006  0.7932166E+02  0.7561462E-02  0.1330988E+00
          2   -1    0    0  501    0  0.00000000000E+00  0.00000000000E+00  0.51008902883E+03  0.51008902883E+03  0.00000000000E+00 0. -1.
         -2   -1    0    0    0  501 -0.00000000000E+00 -0.00000000000E+00 -0.33852161998E+02  0.33852161998E+02  0.00000000000E+00 0.  1.
          5    1    1    2  502    0 -0.50814108570E+02  0.74633756043E+01  0.20889084996E+03  0.21515258586E+03  0.41800000000E+01 0.  1.
         -5    1    1    2    0  502 -0.75898610503E+01  0.24245340086E+02 -0.11173048041E+02  0.28066918412E+02  0.41800000000E+01 0.  1.
        -11    1    1    2    0    0  0.11247926420E+02 -0.32305129422E+02  0.23796462962E+02  0.41670239803E+02  0.00000000000E+00 0.  1.
         11    1    1    2    0    0  0.47156043201E+02  0.59641373214E+00  0.25472260195E+03  0.25905144675E+03  0.00000000000E+00 0. -1.
</event>
<event>
 6    1  0.4988969E-006  0.1104730E+03  0.7561462E-02  0.1259696E+00
         -4   -1    0    0    0  501 -0.00000000000E+00  0.00000000000E+00  0.12861505020E+03  0.12861505020E+03  0.00000000000E+00 0.  1.
          4   -1    0    0  501    0  0.00000000000E+00 -0.00000000000E+00 -0.14109262963E+03  0.14109262963E+03  0.00000000000E+00 0. -1.
          5    1    1    2  502    0 -0.61200585259E+01  0.26215058457E+02 -0.44700487146E+02  0.52347782735E+02  0.41800000000E+01 0. -1.
         -5    1    1    2    0  502  0.43986106568E+02  0.52138287895E+02  0.57610046324E+02  0.89384386070E+02  0.41800000000E+01 0.  1.
        -11    1    1    2    0    0  0.27714540897E+02 -0.72808685296E+01 -0.40040026166E+01  0.28933352046E+02  0.00000000000E+00 0.  1.
         11    1    1    2    0    0 -0.65580588940E+02 -0.71072477822E+02 -0.21383135991E+02  0.99042158974E+02  0.00000000000E+00 0. -1.
</event>
<event>
 6    1  0.4988969E-006  0.1012848E+03  0.7561462E-02  0.1277617E+00
         -2   -1    0    0    0  501 -0.00000000000E+00  0.00000000000E+00  0.29360071607E+02  0.29360071607E+02  0.00000000000E+00 0.  1.
          2   -1    0    0  501    0  0.00000000000E+00 -0.00000000000E+00 -0.43027826603E+03  0.43027826603E+03  0.00000000000E+00 0. -1.
          5    1    1    2  502    0  0.44249513270E+02 -0.53657479205E+01 -0.25759612572E+02  0.51651144375E+02  0.41800000000E+01 0. -1.
         -5    1    1    2    0  502 -0.55174499876E+02  0.31538959249E+02 -0.17869903465E+03  0.18970964333E+03  0.41800000000E+01 0. -1.
        -11    1    1    2    0    0 -0.10866379222E+02  0.31040408237E+02 -0.84455251210E+02  0.90632635391E+02  0.00000000000E+00 0. -1.
         11    1    1    2    0    0  0.21791365828E+02 -0.57213619565E+02 -0.11200429599E+03  0.12764491455E+03  0.00000000000E+00 0.  1.
</event>
<event>
 6    1  0.4988969E-006  0.8109691E+02  0.7561462E-02  0.1325967E+00
         -2   -1    0    0    0  501 -0.00000000000E+00  0.00000000000E+00  0.46190440762E+03  0.46190440762E+03  0.00000000000E+00 0.  1.
          2   -1    0    0  501    0  0.00000000000E+00 -0.00000000000E+00 -0.33491726510E+02  0.33491726510E+02  0.00000000000E+00 0. -1.
          5    1    1    2  502    0  0.29553468426E+02  0.17101809752E+02  0.28404534867E+03  0.28612079948E+03  0.41800000000E+01 0. -1.
         -5    1    1    2    0  502  0.10505450113E+02 -0.37232130132E+02  0.16071281738E+02  0.42099340766E+02  0.41800000000E+01 0. -1.
        -11    1    1    2    0    0 -0.36730022271E+02 -0.24485328180E+02  0.11056398018E+03  0.11905049158E+03  0.00000000000E+00 0.  1.
         11    1    1    2    0    0 -0.33288962676E+01  0.44615648561E+02  0.17732070514E+02  0.48125502300E+02  0.00000000000E+00 0. -1.
</event>
<event>
 6    1  0.4988969E-006  0.1591938E+03  0.7561462E-02  0.1189610E+00
         -1   -1    0    0    0  501 -0.00000000000E+00  0.00000000000E+00  0.63328934063E+02  0.63328934063E+02  0.00000000000E+00 0.  1.
          1   -1    0    0  501    0  0.00000000000E+00 -0.00000000000E+00 -0.51495969548E+03  0.51495969548E+03  0.00000000000E+00 0. -1.
          5    1    1    2  502    0 -0.43740563167E+01 -0.70473062702E+02 -0.16888045529E+03  0.18309469002E+03  0.41800000000E+01 0.  1.
         -5    1    1    2    0  502 -0.69807127403E+02 -0.50614822183E+02 -0.29895642585E+02  0.91357085694E+02  0.41800000000E+01 0.  1.
        -11    1    1    2    0    0  0.36699467890E+02  0.23047565445E+01 -0.25993649331E+02  0.45031462909E+02  0.00000000000E+00 0. -1.
         11    1    1    2    0    0  0.37481715830E+02  0.11878312834E+03 -0.22686101421E+03  0.25880539092E+03  0.00000000000E+00 0.  1.
</event>
<event>
 6    1  0.4988969E-006  0.7597568E+02  0.7561462E-02  0.1340876E+00
         -2   -1    0    0    0  501 -0.00000000000E+00  0.00000000000E+00  0.25528483870E+02  0.25528483870E+02  0.00000000000E+00 0.  1.
          2   -1    0    0  501    0  0.00000000000E+00 -0.00000000000E+00 -0.46960365921E+03  0.46960365921E+03  0.00000000000E+00 0. -1.
          5    1    1    2  502    0  0.30043353069E+02 -0.15317833111E+02 -0.22981905908E+03  0.23231769496E+03  0.41800000000E+01 0.  1.
         -5    1    1    2    0  502 -0.25795011150E+02  0.32445391941E+02 -0.17083796132E+02  0.45026820326E+02  0.41800000000E+01 0.  1.
        -11    1    1    2    0    0 -0.37757570288E+02  0.18453342429E+01 -0.36437881525E+02  0.52504843420E+02  0.00000000000E+00 0.  1.
         11    1    1    2    0    0  0.33509228368E+02 -0.18972893073E+02 -0.16073443860E+03  0.16528278437E+03  0.00000000000E+00 0. -1.
</event>
<event>
 6    1  0.4988969E-006  0.1083741E+03  0.7561462E-02  0.1263611E+00
         -2   -1    0    0    0  501 -0.00000000000E+00  0.00000000000E+00  0.71828853146E+02  0.71828853146E+02  0.00000000000E+00 0.  1.
          2   -1    0    0  501    0  0.00000000000E+00 -0.00000000000E+00 -0.21553139361E+03  0.21553139361E+03  0.00000000000E+00 0. -1.
          5    1    1    2  502    0 -0.35383748377E+02 -0.70935397691E+02 -0.51689911309E+02  0.94726762986E+02  0.41800000000E+01 0. -1.
         -5    1    1    2    0  502  0.10026611491E+02  0.34790291731E+02  0.20123583836E+02  0.41633260299E+02  0.41800000000E+01 0. -1.
        -11    1    1    2    0    0  0.58197226248E+02  0.10236044693E+02 -0.70361716873E+02  0.91882887173E+02  0.00000000000E+00 0.  1.
         11    1    1    2    0    0 -0.32840089361E+02  0.25909061266E+02 -0.41774496119E+02  0.59117336298E+02  0.00000000000E+00 0. -1.
</event>
<event>
 6    1  0.4988969E-006  0.1338697E+03  0.7561462E-02  0.1221824E+00
         -4   -1    0    0    0  501 -0.00000000000E+00  0.00000000000E+00  0.56668684868E+02  0.56668684868E+02  0.00000000000E+00 0. -1.
          4   -1    0    0  501    0  0.00000000000E+00 -0.00000000000E+00 -0.47966102855E+03  0.47966102855E+03  0.00000000000E+00 0.  1.
          5    1    1    2  502    0 -0.24447755489E+02 -0.46822948284E+02 -0.36368878505E+02  0.64267012987E+02  0.41800000000E+01 0. -1.
         -5    1    1    2    0  502  0.10528324332E+03 -0.80855217274E+01 -0.64409237795E+02  0.12375766360E+03  0.41800000000E+01 0. -1.
        -11    1    1    2    0    0 -0.59934817546E+02  0.62731206270E+02 -0.31185945709E+03  0.32370311641E+03  0.00000000000E+00 0.  1.
         11    1    1    2    0    0 -0.20900670286E+02 -0.78227362582E+01 -0.10354770293E+02  0.24601920429E+02  0.00000000000E+00 0. -1.
</event>
<event>
 6    1  0.4988969E-006  0.1461338E+03  0.7561462E-02  0.1205306E+00
          1   -1    0    0  501    0  0.00000000000E+00  0.00000000000E+00  0.32771999348E+02  0.32771999348E+02  0.00000000000E+00 0. -1.
         -1   -1    0    0    0  501 -0.00000000000E+00 -0.00000000000E+00 -0.77378468111E+03  0.77378468111E+03  0.00000000000E+00 0.  1.
          5    1    1    2  502    0  0.62551880703E+02 -0.11816032705E+02 -0.74356081370E+02  0.97972729089E+02  0.41800000000E+01 0. -1.
         -5    1    1    2    0  502  0.26254847929E+02  0.85424753031E+02 -0.30384533482E+03  0.31674305890E+03  0.41800000000E+01 0. -1.
        -11    1    1    2    0    0 -0.10104641279E+03 -0.50745300076E+02 -0.33610335827E+03  0.35461377647E+03  0.00000000000E+00 0.  1.
         11    1    1    2    0    0  0.12239684153E+02 -0.22863420249E+02 -0.26707907300E+02  0.37227116004E+02  0.00000000000E+00 0. -1.
</event>
<event>
 6    1  0.4988969E-006  0.1186006E+03  0.7561462E-02  0.1245424E+00
         -2   -1    0    0    0  501 -0.00000000000E+00  0.00000000000E+00  0.35099860283E+02  0.35099860283E+02  0.00000000000E+00 0.  1.
          2   -1    0    0  501    0  0.00000000000E+00 -0.00000000000E+00 -0.46493146393E+03  0.46493146393E+03  0.00000000000E+00 0. -1.
          5    1    1    2  502    0  0.13458713960E+02  0.92154800498E+02 -0.88066601404E+02  0.12824524521E+03  0.41800000000E+01 0.  1.
         -5    1    1    2    0  502 -0.14813243299E+02 -0.35056788954E+02 -0.81762108536E+02  0.90282475714E+02  0.41800000000E+01 0.  1.
        -11    1    1    2    0    0  0.40358640514E+02 -0.52785388856E+02 -0.13465830679E+03  0.15015983726E+03  0.00000000000E+00 0. -1.
         11    1    1    2    0    0 -0.39004111175E+02 -0.43126226888E+01 -0.12534458692E+03  0.13134376602E+03  0.00000000000E+00 0.  1.
</event>
<event>
 6    1  0.4988969E-006  0.9880410E+02  0.7561462E-02  0.1282831E+00
         -2   -1    0    0    0  501 -0.00000000000E+00  0.00000000000E+00  0.59103066764E+02  0.59103066764E+02  0.00000000000E+00 0.  1.
          2   -1    0    0  501    0  0.00000000000E+00 -0.00000000000E+00 -0.30933656988E+03  0.30933656988E+03  0.00000000000E+00 0. -1.
          5    1    1    2  502    0 -0.69069979900E+02 -0.38370973469E+02 -0.28162122722E+02  0.83985542116E+02  0.41800000000E+01 0. -1.
         -5    1    1    2    0  502  0.52331261181E+02  0.74332162322E+00 -0.15007869757E+02  0.54606061737E+02  0.41800000000E+01 0. -1.
        -11    1    1    2    0    0  0.14853536463E+02 -0.10262927751E+02 -0.78118453691E+00  0.18071122842E+02  0.00000000000E+00 0.  1.
         11    1    1    2    0    0  0.18851822557E+01  0.47890579596E+02 -0.20628232610E+03  0.21177690995E+03  0.00000000000E+00 0. -1.
</event>
<event>
 6    1  0.4988969E-006  0.8475192E+02  0.7561462E-02  0.1316083E+00
         -2   -1    0    0    0  501 -0.00000000000E+00  0.00000000000E+00  0.22536296474E+03  0.22536296474E+03  0.00000000000E+00 0.  1.
          2   -1    0    0  501    0  0.00000000000E+00 -0.00000000000E+00 -0.81705615517E+02  0.81705615517E+02  0.00000000000E+00 0. -1.
          5    1    1    2  502    0  0.36032201334E+02  0.34951784362E+02  0.85150595508E+02  0.98934539360E+02  0.41800000000E+01 0. -1.
         -5    1    1    2    0  502 -0.53172325638E+02 -0.41576779248E+02  0.88296390228E+02  0.11121892696E+03  0.41800000000E+01 0.  1.
        -11    1    1    2    0    0  0.32441220242E+02 -0.42692873510E+01  0.23582970835E+02  0.40333808383E+02  0.00000000000E+00 0.  1.
         11    1    1    2    0    0 -0.15301095938E+02  0.10894282236E+02 -0.53372607352E+02  0.56581305552E+02  0.00000000000E+00 0. -1.
</event>
<event>
 6    1  0.4988969E-006  0.1253764E+03  0.7561462E-02  0.1234482E+00
          2   -1    0    0  501    0  0.00000000000E+00  0.00000000000E+00  0.63994687537E+03  0.63994687537E+03  0.00000000000E+00 0. -1.
         -2   -1    0    0    0  501 -0.00000000000E+00 -0.00000000000E+00 -0.36060927982E+02  0.36060927982E+02  0.00000000000E+00 0.  1.
          5    1    1    2  502    0  0.52730203916E+02 -0.77237930890E+02  0.22986831355E+03  0.24819969047E+03  0.41800000000E+01 0. -1.
         -5    1    1    2    0  502  0.12971312974E+02  0.42299359620E+02  0.10413522508E+02  0.45644327528E+02  0.41800000000E+01 0.  1.
        -11    1    1    2    0    0 -0.48439217073E+02  0.63171848990E+02  0.20027474731E+03  0.21551569471E+03  0.00000000000E+00 0. -1.
         11    1    1    2    0    0 -0.17262299817E+02 -0.28233277719E+02  0.16332936402E+03  0.16664809065E+03  0.00000000000E+00 0.  1.
</event>
<event>
 6    1  0.4988969E-006  0.1790374E+03  0.7561462E-02  0.1168738E+00
          1   -1    0    0  501    0  0.00000000000E+00  0.00000000000E+00  0.17461847074E+03  0.17461847074E+03  0.00000000000E+00 0. -1.
         -1   -1    0    0    0  501 -0.00000000000E+00 -0.00000000000E+00 -0.22045249845E+03  0.22045249845E+03  0.00000000000E+00 0.  1.
          5    1    1    2  502    0 -0.15639606805E+03  0.75596990471E+02 -0.51946744013E+01  0.17383639467E+03  0.41800000000E+01 0. -1.
         -5    1    1    2    0  502  0.16065727642E+02  0.73633172538E+01 -0.29375635727E+02  0.34535871496E+02  0.41800000000E+01 0. -1.
        -11    1    1    2    0    0  0.17026702622E+02 -0.24140754541E+02  0.31851666981E+02  0.43442068567E+02  0.00000000000E+00 0. -1.
         11    1    1    2    0    0  0.12330363779E+03 -0.58819553184E+02 -0.43115384559E+02  0.14325663445E+03  0.00000000000E+00 0.  1.
</event>
<event>
 6    1  0.4988969E-006  0.1260783E+03  0.7561462E-02  0.1233394E+00
          2   -1    0    0  501    0  0.00000000000E+00  0.00000000000E+00  0.89618259276E+03  0.89618259276E+03  0.00000000000E+00 0. -1.
         -2   -1    0    0    0  501 -0.00000000000E+00 -0.00000000000E+00 -0.78745207773E+02  0.78745207773E+02  0.00000000000E+00 0.  1.
          5    1    1    2  502    0 -0.98841764214E+02  0.28469585988E+02  0.65261971554E+03  0.66068916836E+03  0.41800000000E+01 0. -1.
         -5    1    1    2    0  502  0.46110172473E+02 -0.17654203681E+02 -0.49516984199E+02  0.70051574124E+02  0.41800000000E+01 0.  1.
        -11    1    1    2    0    0 -0.12747578037E+02  0.22751231839E+02  0.11656754737E+02  0.28565700185E+02  0.00000000000E+00 0.  1.
         11    1    1    2    0    0  0.65479169778E+02 -0.33566614146E+02  0.20267789891E+03  0.21562135786E+03  0.00000000000E+00 0. -1.
</event>
<event>
 6    1  0.4988969E-006  0.1121143E+03  0.7561462E-02  0.1256704E+00
         -1   -1    0    0    0  501 -0.00000000000E+00  0.00000000000E+00  0.83637259381E+02  0.83637259381E+02  0.00000000000E+00 0.  1.
          1   -1    0    0  501    0  0.00000000000E+00 -0.00000000000E+00 -0.18645698920E+03  0.18645698920E+03  0.00000000000E+00 0. -1.
          5    1    1    2  502    0  0.82032163739E+02  0.33104673746E+02 -0.16617043601E+02  0.90104349782E+02  0.41800000000E+01 0. -1.
         -5    1    1    2    0  502 -0.30320305064E+02 -0.35283539887E+02 -0.48540662174E+01  0.46960445536E+02  0.41800000000E+01 0. -1.
        -11    1    1    2    0    0 -0.69995749826E+02 -0.26643910364E+01 -0.88449046651E+02  0.11282613982E+03  0.00000000000E+00 0. -1.
         11    1    1    2    0    0  0.18283891150E+02  0.48432571766E+01  0.71004266457E+01  0.20203313447E+02  0.00000000000E+00 0.  1.
</event>
<event>
 6    1  0.4988969E-006  0.1585640E+03  0.7561462E-02  0.1190328E+00
          4   -1    0    0  501    0  0.00000000000E+00  0.00000000000E+00  0.26346647238E+03  0.26346647238E+03  0.00000000000E+00 0. -1.
         -4   -1    0    0    0  501 -0.00000000000E+00 -0.00000000000E+00 -0.13705247635E+03  0.13705247635E+03  0.00000000000E+00 0.  1.
          5    1    1    2  502    0  0.86671670253E+01  0.12956995235E+03 -0.38949783563E+02  0.13563941307E+03  0.41800000000E+01 0.  1.
         -5    1    1    2    0  502 -0.33317252251E+01  0.20785903403E+02  0.56935281365E+02  0.60846140694E+02  0.41800000000E+01 0.  1.
        -11    1    1    2    0    0 -0.37214599436E+02 -0.69723083034E+02  0.80814542608E+02  0.11303638802E+03  0.00000000000E+00 0. -1.
         11    1    1    2    0    0  0.31879157636E+02 -0.80632772723E+02  0.27613955629E+02  0.90997006951E+02  0.00000000000E+00 0.  1.
</event>
<event>
 6    1  0.4988969E-006  0.1118460E+03  0.7561462E-02  0.1257189E+00
          3   -1    0    0  501    0  0.00000000000E+00  0.00000000000E+00  0.28392668837E+03  0.28392668837E+03  0.00000000000E+00 0. -1.
         -3   -1    0    0    0  501 -0.00000000000E+00 -0.00000000000E+00 -0.62141113177E+02  0.62141113177E+02  0.00000000000E+00 0.  1.
          5    1    1    2  502    0  0.50491825619E+02  0.76544683878E+02  0.48712593937E+02  0.10391776697E+03  0.41800000000E+01 0.  1.
         -5    1    1    2    0  502  0.66578912457E+01 -0.47998953104E+02  0.23380716276E+02  0.53966260835E+02  0.41800000000E+01 0.  1.
        -11    1    1    2    0    0 -0.14660063864E+02 -0.37123634172E+02  0.89323757125E+01  0.40900721540E+02  0.00000000000E+00 0.  1.
         11    1    1    2    0    0 -0.42489653001E+02  0.85779033987E+01  0.14075988927E+03  0.14728305220E+03  0.00000000000E+00 0. -1.
</event>
<event>
 6    1  0.4988969E-006  0.5019304E+02  0.7561462E-02  0.1444303E+00
          2   -1    0    0  501    0  0.00000000000E+00  0.00000000000E+00  0.14057351150E+03  0.14057351150E+03  0.00000000000E+00 0.  1.
         -2   -1    0    0    0  501 -0.00000000000E+00 -0.00000000000E+00 -0.83681441644E+02  0.83681441644E+02  0.00000000000E+00 0. -1.
          5    1    1    2  502    0  0.20367306823E+02 -0.11999282786E+02  0.73115357417E+02  0.76955427781E+02  0.41800000000E+01 0.  1.
         -5    1    1    2    0  502 -0.21855877358E+02 -0.45723931295E+01 -0.46734033365E+02  0.51962760017E+02  0.41800000000E+01 0.  1.
        -11    1    1    2    0    0 -0.16816938458E+02  0.27579974822E+02  0.54414016475E+02  0.63279930620E+02  0.00000000000E+00 0.  1.
         11    1    1    2    0    0  0.18305508992E+02 -0.11008298906E+02 -0.23903270669E+02  0.32056834730E+02  0.00000000000E+00 0. -1.
</event>
<event>
 6    1  0.4988969E-006  0.3221525E+03  0.7561462E-02  0.1074663E+00
         -2   -1    0    0    0  501 -0.00000000000E+00  0.00000000000E+00  0.14460170927E+04  0.14460170927E+04  0.00000000000E+00 0.  1.
          2   -1    0    0  501    0  0.00000000000E+00 -0.00000000000E+00 -0.86245312513E+02  0.86245312513E+02  0.00000000000E+00 0. -1.
          5    1    1    2  502    0  0.18948946182E+03 -0.14050835112E+03  0.83107478225E+03  0.86391644212E+03  0.41800000000E+01 0. -1.
         -5    1    1    2    0  502  0.62001833422E+02 -0.50151030208E+02  0.10570099164E+03  0.13247462102E+03  0.41800000000E+01 0. -1.
        -11    1    1    2    0    0 -0.17304556532E+03  0.74627590306E+02  0.22833733927E+03  0.29606077994E+03  0.00000000000E+00 0. -1.
         11    1    1    2    0    0 -0.78445729916E+02  0.11603179102E+03  0.19465866705E+03  0.23981056217E+03  0.00000000000E+00 0.  1.
</event>
<event>
 6    1  0.4988969E-006  0.9331880E+02  0.7561462E-02  0.1295008E+00
         -4   -1    0    0    0  501 -0.00000000000E+00  0.00000000000E+00  0.23596076328E+03  0.23596076328E+03  0.00000000000E+00 0.  1.
          4   -1    0    0  501    0  0.00000000000E+00 -0.00000000000E+00 -0.64538575776E+02  0.64538575776E+02  0.00000000000E+00 0. -1.
          5    1    1    2  502    0  0.56970806628E+02  0.59963738464E+02  0.21217293335E+02  0.85492506542E+02  0.41800000000E+01 0. -1.
         -5    1    1    2    0  502 -0.68481005512E+01 -0.28990181573E+02  0.81154448404E+02  0.86549662071E+02  0.41800000000E+01 0. -1.
        -11    1    1    2    0    0 -0.43510775431E+02 -0.15030190986E+01  0.84108526258E+02  0.94708451758E+02  0.00000000000E+00 0.  1.
         11    1    1    2    0    0 -0.66119306453E+01 -0.29470537792E+02 -0.15058080494E+02  0.33748718683E+02  0.00000000000E+00 0. -1.
</event>
<event>
 6    1  0.4988969E-006  0.6825804E+02  0.7561462E-02  0.1366119E+00
         -4   -1    0    0    0  501 -0.00000000000E+00  0.00000000000E+00  0.25497044974E+03  0.25497044974E+03  0.00000000000E+00 0.  1.
          4   -1    0    0  501    0  0.00000000000E+00 -0.00000000000E+00 -0.48976030753E+02  0.48976030753E+02  0.00000000000E+00 0. -1.
          5    1    1    2  502    0 -0.11866061340E+02  0.39524083348E+02 -0.54538204978E+00  0.41481639526E+02  0.41800000000E+01 0.  1.
         -5    1    1    2    0  502  0.31706345538E+02 -0.37750325870E+02  0.13247332654E+03  0.14141086979E+03  0.41800000000E+01 0.  1.
        -11    1    1    2    0    0  0.12827756231E+02  0.26697990866E+00 -0.18702175773E+02  0.22680255440E+02  0.00000000000E+00 0. -1.
         11    1    1    2    0    0 -0.32668040430E+02 -0.20407373867E+01  0.92768650267E+02  0.98373715732E+02  0.00000000000E+00 0.  1.
</event>
<event>
 6    1  0.4988969E-006  0.1565799E+03  0.7561462E-02  0.1192613E+00
          1   -1    0    0  501    0  0.00000000000E+00  0.00000000000E+00  0.52365021322E+03  0.52365021322E+03  0.00000000000E+00 0. -1.
         -1   -1    0    0    0  501 -0.00000000000E+00 -0.00000000000E+00 -0.54271742405E+02  0.54271742405E+02  0.00000000000E+00 0.  1.
          5    1    1    2  502    0 -0.27728839129E+01 -0.64019434043E+02  0.58650339144E+02  0.86968451189E+02  0.41800000000E+01 0.  1.
         -5    1    1    2    0  502 -0.11016297060E+03  0.33219067652E+01  0.18626479298E+03  0.21646930651E+03  0.41800000000E+01 0.  1.
        -11    1    1    2    0    0  0.77905530137E+02  0.67366030459E+02  0.94707878630E+02  0.13991796154E+03  0.00000000000E+00 0.  1.
         11    1    1    2    0    0  0.35030324378E+02 -0.66685031811E+01  0.12975546007E+03  0.13456623640E+03  0.00000000000E+00 0. -1.
</event>
<event>
 6    1  0.4988969E-006  0.1639815E+03  0.7561462E-02  0.1184274E+00
         -1   -1    0    0    0  501 -0.00000000000E+00  0.00000000000E+00  0.40627114160E+03  0.40627114160E+03  0.00000000000E+00 0.  1.
          1   -1    0    0  501    0  0.00000000000E+00 -0.00000000000E+00 -0.76494465611E+02  0.76494465611E+02  0.00000000000E+00 0. -1.
          5    1    1    2  502    0  0.10015452946E+03 -0.56101924511E+02  0.19101101681E+03  0.22289243291E+03  0.41800000000E+01 0. -1.
         -5    1    1    2    0  502  0.31522063605E+02  0.50274668980E+02  0.43100762996E+02  0.73459723699E+02  0.41800000000E+01 0. -1.
        -11    1    1    2    0    0 -0.64319705496E+02  0.42322484210E+02  0.74023714407E+02  0.10680696363E+03  0.00000000000E+00 0.  1.
         11    1    1    2    0    0 -0.67356887574E+02 -0.36495228679E+02  0.21641181775E+02  0.79606486975E+02  0.00000000000E+00 0. -1.
</event>
<event>
 6    1  0.4988969E-006  0.9567154E+02  0.7561462E-02  0.1289671E+00
         -1   -1    0    0    0  501 -0.00000000000E+00  0.00000000000E+00  0.37944023479E+03  0.37944023479E+03  0.00000000000E+00 0.  1.
          1   -1    0    0  501    0  0.00000000000E+00 -0.00000000000E+00 -0.39103652522E+02  0.39103652522E+02  0.00000000000E+00 0. -1.
          5    1    1    2  502    0  0.94403014586E+02  0.60836728188E+01  0.15054210021E+03  0.17784638477E+03  0.41800000000E+01 0. -1.
         -5    1    1    2    0  502 -0.40699888878E+02 -0.58062669824E+01  0.73017999667E+02  0.83900502777E+02  0.41800000000E+01 0. -1.
        -11    1    1    2    0    0 -0.43128179016E+02  0.51622717166E+01  0.13114187034E+03  0.13814803303E+03  0.00000000000E+00 0.  1.
         11    1    1    2    0    0 -0.10574946692E+02 -0.54396775529E+01 -0.14365387950E+02  0.18648966738E+02  0.00000000000E+00 0. -1.
</event>
<event>
 6    1  0.4988969E-006  0.1196432E+03  0.7561462E-02  0.1243687E+00
          2   -1    0    0  501    0  0.00000000000E+00  0.00000000000E+00  0.54636948514E+03  0.54636948514E+03  0.00000000000E+00 0. -1.
         -2   -1    0    0    0  501 -0.00000000000E+00 -0.00000000000E+00 -0.45087692155E+02  0.45087692155E+02  0.00000000000E+00 0.  1.
          5    1    1    2  502    0 -0.32400543033E+02  0.21681757752E+02 -0.10163705712E+01  0.39222432576E+02  0.41800000000E+01 0.  1.
         -5    1    1    2    0  502  0.22650345451E+02  0.85240746410E+02  0.20385263340E+03  0.22215398160E+03  0.41800000000E+01 0.  1.
        -11    1    1    2    0    0  0.21150596918E+02 -0.66767472308E+02  0.74397456867E+02  0.10217741774E+03  0.00000000000E+00 0.  1.
         11    1    1    2    0    0 -0.11400399337E+02 -0.40155031854E+02  0.22404807329E+03  0.22790334538E+03  0.00000000000E+00 0. -1.
</event>
<event>
 6    1  0.4988969E-006  0.1583229E+03  0.7561462E-02  0.1190603E+00
         -1   -1    0    0    0  501 -0.00000000000E+00  0.00000000000E+00  0.23620971945E+03  0.23620971945E+03  0.00000000000E+00 0.  1.
          1   -1    0    0  501    0  0.00000000000E+00 -0.00000000000E+00 -0.12942578032E+03  0.12942578032E+03  0.00000000000E+00 0. -1.
          5    1    1    2  502    0  0.49809255398E+02 -0.16481216711E+02  0.55493592800E+01  0.52923153874E+02  0.41800000000E+01 0. -1.
         -5    1    1    2    0  502 -0.67843998318E+02  0.11344349608E+03  0.11521747881E+03  0.17539890174E+03  0.41800000000E+01 0.  1.
        -11    1    1    2    0    0 -0.13205347473E+02 -0.99546942169E+02 -0.26019396765E+02  0.10373516234E+03  0.00000000000E+00 0. -1.
         11    1    1    2    0    0  0.31240090392E+02  0.25846628021E+01  0.12036497809E+02  0.33578281806E+02  0.00000000000E+00 0.  1.
</event>
<event>
 6    1  0.4988969E-006  0.1379004E+03  0.7561462E-02  0.1216182E+00
          2   -1    0    0  501    0  0.00000000000E+00  0.00000000000E+00  0.30510662341E+03  0.30510662341E+03  0.00000000000E+00 0. -1.
         -2   -1    0    0    0  501 -0.00000000000E+00 -0.00000000000E+00 -0.89812468399E+02  0.89812468399E+02  0.00000000000E+00 0.  1.
          5    1    1    2  502    0 -0.10757153280E+02  0.86117182981E+02  0.57118702972E+02  0.10398030669E+03  0.41800000000E+01 0. -1.
         -5    1    1    2    0  502  0.51813010643E+02 -0.78374803300E+02 -0.11905848381E+02  0.94796727210E+02  0.41800000000E+01 0.  1.
        -11    1    1    2    0    0  0.24859674319E+02  0.96971584876E+01  0.71161371354E+02  0.75999862256E+02  0.00000000000E+00 0.  1.
         11    1    1    2    0    0 -0.65915531681E+02 -0.17439538168E+02  0.98919929070E+02  0.12014219565E+03  0.00000000000E+00 0. -1.
</event>
<event>
 6    1  0.4988969E-006  0.1442042E+03  0.7561462E-02  0.1207781E+00
          1   -1    0    0  501    0  0.00000000000E+00  0.00000000000E+00  0.22348993216E+03  0.22348993216E+03  0.00000000000E+00 0. -1.
         -1   -1    0    0    0  501 -0.00000000000E+00 -0.00000000000E+00 -0.13701973784E+03  0.13701973784E+03  0.00000000000E+00 0.  1.
          5    1    1    2  502    0 -0.51988993473E+02 -0.48399002231E+02 -0.39282637567E+02  0.81276791728E+02  0.41800000000E+01 0.  1.
         -5    1    1    2    0  502 -0.70641153642E+02 -0.13551153047E+02  0.82275338170E+02  0.10936411664E+03  0.41800000000E+01 0.  1.
        -11    1    1    2    0    0  0.53814319425E+01  0.19945661203E+02 -0.21139959908E+02  0.29558198786E+02  0.00000000000E+00 0.  1.
         11    1    1    2    0    0  0.11724871517E+03  0.42004494075E+02  0.64617453630E+02  0.14031056285E+03  0.00000000000E+00 0. -1.
</event>
<event>
 6    1  0.4988969E-006  0.1153090E+03  0.7561462E-02  0.1251043E+00
          2   -1    0    0  501    0  0.00000000000E+00  0.00000000000E+00  0.42418325705E+03  0.42418325705E+03  0.00000000000E+00 0. -1.
         -2   -1    0    0    0  501 -0.00000000000E+00 -0.00000000000E+00 -0.40158559901E+02  0.40158559901E+02  0.00000000000E+00 0.  1.
          5    1    1    2  502    0  0.15045213519E+02 -0.18145357592E+02  0.10430326873E+03  0.10701521723E+03  0.41800000000E+01 0.  1.
         -5    1    1    2    0  502 -0.66028087008E+02  0.72537529316E+02  0.72551752584E+02  0.12207633119E+03  0.41800000000E+01 0.  1.
        -11    1    1    2    0    0 -0.20078410646E+02 -0.23790053039E+02  0.86251428700E+02  0.91697427174E+02  0.00000000000E+00 0. -1.
         11    1    1    2    0    0  0.71061284135E+02 -0.30602118685E+02  0.12091824713E+03  0.14355284135E+03  0.00000000000E+00 0.  1.
</event>
<event>
 6    1  0.4988969E-006  0.8880087E+02  0.7561462E-02  0.1305782E+00
         -2   -1    0    0    0  501 -0.00000000000E+00  0.00000000000E+00  0.27160102230E+02  0.27160102230E+02  0.00000000000E+00 0.  1.
          2   -1    0    0  501    0  0.00000000000E+00 -0.00000000000E+00 -0.51008888630E+03  0.51008888630E+03  0.00000000000E+00 0. -1.
          5    1    1    2  502    0 -0.11087551008E+02  0.51841114826E+02 -0.20775646476E+03  0.21445432153E+03  0.41800000000E+01 0. -1.
         -5    1    1    2    0  502 -0.21192688659E+02 -0.30842116718E+02 -0.89424090923E+01  0.38701489592E+02  0.41800000000E+01 0. -1.
        -11    1    1    2    0    0  0.15337150135E+02 -0.50484419178E+02 -0.87661042625E+02  0.10231501917E+03  0.00000000000E+00 0.  1.
         11    1    1    2    0    0  0.16943089532E+02  0.29485421070E+02 -0.17856886758E+03  0.18177815823E+03  0.00000000000E+00 0. -1.
</event>
<event>
 6    1  0.4988969E-006  0.7758896E+02  0.7561462E-02  0.1336036E+00
         -1   -1    0    0    0  501 -0.00000000000E+00  0.00000000000E+00  0.40835730793E+03  0.40835730793E+03  0.00000000000E+00 0.  1.
          1   -1    0    0  501    0  0.00000000000E+00 -0.00000000000E+00 -0.30901468448E+02  0.30901468448E+02  0.00000000000E+00 0. -1.
          5    1    1    2  502    0  0.12823867654E+02  0.27053181352E+02  0.61424552232E+01  0.30846853308E+02  0.41800000000E+01 0.  1.
         -5    1    1    2    0  502 -0.22328007248E+02 -0.29912481531E+02  0.26838934008E+03  0.27100480942E+03  0.41800000000E+01 0.  1.
        -11    1    1    2    0    0 -0.23212238077E+02 -0.32031843905E+02  0.66143040161E+02  0.77069765681E+02  0.00000000000E+00 0.  1.
         11    1    1    2    0    0  0.32716377671E+02  0.34891144084E+02  0.36781004016E+02  0.60337347968E+02  0.00000000000E+00 0. -1.
</event>
<event>
 6    1  0.4988969E-006  0.2610558E+03  0.7561462E-02  0.1106511E+00
         -2   -1    0    0    0  501 -0.00000000000E+00  0.00000000000E+00  0.11975973765E+04  0.11975973765E+04  0.00000000000E+00 0.  1.
          2   -1    0    0  501    0  0.00000000000E+00 -0.00000000000E+00 -0.89826162606E+02  0.89826162606E+02  0.00000000000E+00 0. -1.
          5    1    1    2  502    0  0.91756330655E+02 -0.14096106498E+03  0.48305700683E+03  0.51151812314E+03  0.41800000000E+01 0.  1.
         -5    1    1    2    0  502  0.98912498947E+02 -0.10996140892E+02  0.45324949402E+03  0.46406591535E+03  0.41800000000E+01 0.  1.
        -11    1    1    2    0    0 -0.75733467972E+02  0.10644576062E+03  0.54149961563E+02  0.14141596962E+03  0.00000000000E+00 0.  1.
         11    1    1    2    0    0 -0.11493536163E+03  0.45511445254E+02  0.11731475149E+03  0.17042353100E+03  0.00000000000E+00 0. -1.
</event>
<event>
 6    1  0.4988969E-006  0.2405924E+03  0.7561462E-02  0.1119399E+00
         -3   -1    0    0    0  501 -0.00000000000E+00  0.00000000000E+00  0.10560741960E+03  0.10560741960E+03  0.00000000000E+00 0.  1.
          3   -1    0    0  501    0  0.00000000000E+00 -0.00000000000E+00 -0.59876116853E+03  0.59876116853E+03  0.00000000000E+00 0. -1.
          5    1    1    2  502    0 -0.50075176233E+00 -0.13310950749E+03 -0.96708224896E+02  0.16458537268E+03  0.41800000000E+01 0.  1.
         -5    1    1    2    0  502  0.98059467392E+02 -0.70779850038E+02 -0.14887189762E+03  0.19184827499E+03  0.41800000000E+01 0.  1.
        -11    1    1    2    0    0 -0.26592153815E+02  0.79015964691E+02 -0.15804517962E+03  0.17868672061E+03  0.00000000000E+00 0. -1.
         11    1    1    2    0    0 -0.70966561815E+02  0.12487339284E+03 -0.89528446790E+02  0.16924821984E+03  0.00000000000E+00 0.  1.
</event>
<event>
 6    1  0.4988969E-006  0.7872093E+02  0.7561462E-02  0.1332721E+00
         -1   -1    0    0    0  501 -0.00000000000E+00  0.00000000000E+00  0.49332279150E+03  0.49332279150E+03  0.00000000000E+00 0.  1.
          1   -1    0    0  501    0  0.00000000000E+00 -0.00000000000E+00 -0.26282101981E+02  0.26282101981E+02  0.00000000000E+00 0. -1.
          5    1    1    2  502    0  0.54310875006E+02  0.13014022449E+02  0.48942826404E+02  0.74376801361E+02  0.41800000000E+01 0.  1.
         -5    1    1    2    0  502 -0.24528724246E+02  0.14285155697E+01  0.25167463682E+03  0.25290570216E+03  0.41800000000E+01 0.  1.
        -11    1    1    2    0    0  0.19047610669E+02  0.10428091794E+02  0.11547307722E+03  0.11749718351E+03  0.00000000000E+00 0. -1.
         11    1    1    2    0    0 -0.48829761429E+02 -0.24870629813E+02  0.50950149078E+02  0.74825206445E+02  0.00000000000E+00 0.  1.
</event>
<event>
 6    1  0.4988969E-006  0.2179568E+03  0.7561462E-02  0.1135416E+00
         -2   -1    0    0    0  501 -0.00000000000E+00  0.00000000000E+00  0.36103349869E+02  0.36103349869E+02  0.00000000000E+00 0.  1.
          2   -1    0    0  501    0  0.00000000000E+00 -0.00000000000E+00 -0.15590688010E+04  0.15590688010E+04  0.00000000000E+00 0. -1.
          5    1    1    2  502    0  0.58320165096E+02  0.86824145417E+02 -0.62118967662E+03  0.62994742688E+03  0.41800000000E+01 0. -1.
         -5    1    1    2    0  502 -0.29066785323E+02  0.11556006987E+03 -0.32655326165E+03  0.34763991838E+03  0.41800000000E+01 0. -1.
        -11    1    1    2    0    0  0.14502408746E+00 -0.16227470458E+03 -0.33455972052E+03  0.37183774335E+03  0.00000000000E+00 0. -1.
         11    1    1    2    0    0 -0.29398403861E+02 -0.40109510707E+02 -0.24066279229E+03  0.24574706223E+03  0.00000000000E+00 0.  1.
</event>
<event>
 6    1  0.4988969E-006  0.1100046E+03  0.7561462E-02  0.1260561E+00
          2   -1    0    0  501    0  0.00000000000E+00  0.00000000000E+00  0.12897954637E+03  0.12897954637E+03  0.00000000000E+00 0. -1.
         -2   -1    0    0    0  501 -0.00000000000E+00 -0.00000000000E+00 -0.13538758183E+03  0.13538758183E+03  0.00000000000E+00 0.  1.
          5    1    1    2  502    0  0.19070101499E+02  0.24809902979E+02  0.17252131674E+02  0.35976499333E+02  0.41800000000E+01 0. -1.
         -5    1    1    2    0  502 -0.78027483398E+02 -0.48773823617E+02 -0.63160732681E+02  0.11168672521E+03  0.41800000000E+01 0. -1.
        -11    1    1    2    0    0  0.20258970484E+02  0.47077466441E+02 -0.72506094440E+01  0.51761810912E+02  0.00000000000E+00 0.  1.
         11    1    1    2    0    0  0.38698411416E+02 -0.23113545804E+02  0.46751174996E+02  0.64942092738E+02  0.00000000000E+00 0. -1.
</event>
<event>
 6    1  0.4988969E-006  0.1033854E+03  0.7561462E-02  0.1273334E+00
          1   -1    0    0  501    0  0.00000000000E+00  0.00000000000E+00  0.57274167330E+02  0.57274167330E+02  0.00000000000E+00 0. -1.
         -1   -1    0    0    0  501 -0.00000000000E+00 -0.00000000000E+00 -0.27978598897E+03  0.27978598897E+03  0.00000000000E+00 0.  1.
          5    1    1    2  502    0  0.78433239661E+01 -0.53618683168E+02 -0.13633508696E+03  0.14676923810E+03  0.41800000000E+01 0. -1.
         -5    1    1    2    0  502  0.39598703839E+02  0.51266494829E+02 -0.46741156807E+02  0.79990743074E+02  0.41800000000E+01 0. -1.
        -11    1    1    2    0    0  0.15466103267E+02  0.16930804882E+02  0.13666589455E+02  0.26695096396E+02  0.00000000000E+00 0. -1.
         11    1    1    2    0    0 -0.62908131073E+02 -0.14578616543E+02 -0.53102167333E+02  0.83605078738E+02  0.00000000000E+00 0.  1.
</event>
<event>
 6    1  0.4988969E-006  0.1043964E+03  0.7561462E-02  0.1271313E+00
         -1   -1    0    0    0  501 -0.00000000000E+00  0.00000000000E+00  0.22328994398E+02  0.22328994398E+02  0.00000000000E+00 0.  1.
          1   -1    0    0  501    0  0.00000000000E+00 -0.00000000000E+00 -0.56539179052E+03  0.56539179052E+03  0.00000000000E+00 0. -1.
          5    1    1    2  502    0 -0.51781205429E+02 -0.80743650939E+01 -0.64856689862E+02  0.83488629329E+02  0.41800000000E+01 0.  1.
         -5    1    1    2    0  502  0.67817133048E+02 -0.12907732536E+02 -0.17798439575E+03  0.19094944520E+03  0.41800000000E+01 0.  1.
        -11    1    1    2    0    0 -0.45026781032E+02 -0.83753622949E+01 -0.12111473032E+03  0.12948488562E+03  0.00000000000E+00 0.  1.
         11    1    1    2    0    0  0.28990853413E+02  0.29357459925E+02 -0.17910698019E+03  0.18379782477E+03  0.00000000000E+00 0. -1.
</event>
<event>
 6    1  0.4988969E-006  0.3429347E+03  0.7561462E-02  0.1065553E+00
          2   -1    0    0  501    0  0.00000000000E+00  0.00000000000E+00  0.28523540061E+03  0.28523540061E+03  0.00000000000E+00 0.  1.
         -2   -1    0    0    0  501 -0.00000000000E+00 -0.00000000000E+00 -0.44917988174E+03  0.44917988174E+03  0.00000000000E+00 0. -1.
          5    1    1    2  502    0 -0.35623522666E+02  0.17528215831E+03 -0.88230152975E+02  0.19948659775E+03  0.41800000000E+01 0.  1.
         -5    1    1    2    0  502 -0.39225736252E+02  0.15529244895E+03  0.39637195202E+02  0.16505448412E+03  0.41800000000E+01 0.  1.
        -11    1    1    2    0    0 -0.13918272309E+02 -0.72293353771E+02 -0.56559883802E+00  0.73623143139E+02  0.00000000000E+00 0.  1.
         11    1    1    2    0    0  0.88767531227E+02 -0.25828125349E+03 -0.11478592452E+03  0.29625105733E+03  0.00000000000E+00 0. -1.
</event>
<event>
 6    1  0.4988969E-006  0.5957611E+02  0.7561462E-02  0.1399619E+00
          1   -1    0    0  501    0  0.00000000000E+00  0.00000000000E+00  0.13586843352E+03  0.13586843352E+03  0.00000000000E+00 0. -1.
         -1   -1    0    0    0  501 -0.00000000000E+00 -0.00000000000E+00 -0.11917369798E+03  0.11917369798E+03  0.00000000000E+00 0.  1.
          5    1    1    2  502    0  0.32385159314E+02  0.53676226080E+01  0.33704566644E+02  0.47234310929E+02  0.41800000000E+01 0. -1.
         -5    1    1    2    0  502 -0.21195673876E+02 -0.27760725750E+02 -0.81904740560E+02  0.89139067818E+02  0.41800000000E+01 0. -1.
        -11    1    1    2    0    0  0.16163351456E+02  0.16105350584E+02 -0.19321262811E+02  0.29898953900E+02  0.00000000000E+00 0.  1.
         11    1    1    2    0    0 -0.27352836894E+02  0.62877525580E+01  0.84216172265E+02  0.88769798858E+02  0.00000000000E+00 0. -1.
</event>
<event>
 6    1  0.4988969E-006  0.1062521E+03  0.7561462E-02  0.1267672E+00
          3   -1    0    0  501    0  0.00000000000E+00  0.00000000000E+00  0.16232949792E+02  0.16232949792E+02  0.00000000000E+00 0. -1.
         -3   -1    0    0    0  501 -0.00000000000E+00 -0.00000000000E+00 -0.86156415954E+03  0.86156415954E+03  0.00000000000E+00 0.  1.
          5    1    1    2  502    0 -0.62925574594E+02  0.49104077134E+01 -0.35790852939E+03  0.36345526251E+03  0.41800000000E+01 0. -1.
         -5    1    1    2    0  502  0.31856021776E+02 -0.40350275974E+02 -0.87422925770E+02  0.10150463657E+03  0.41800000000E+01 0. -1.
        -11    1    1    2    0    0 -0.22117105657E+02  0.38494112278E+02 -0.24361550796E+03  0.24762770193E+03  0.00000000000E+00 0.  1.
         11    1    1    2    0    0  0.53186658474E+02 -0.30542440173E+01 -0.15638424663E+03  0.16520950832E+03  0.00000000000E+00 0. -1.
</event>
<event>
 6    1  0.4988969E-006  0.9064808E+02  0.7561462E-02  0.1301290E+00
          1   -1    0    0  501    0  0.00000000000E+00  0.00000000000E+00  0.50227410813E+03  0.50227410813E+03  0.00000000000E+00 0. -1.
         -1   -1    0    0    0  501 -0.00000000000E+00 -0.00000000000E+00 -0.33170863920E+02  0.33170863920E+02  0.00000000000E+00 0.  1.
          5    1    1    2  502    0 -0.32230024273E+02 -0.23551699774E+02 -0.33878866486E+01  0.40279116212E+02  0.41800000000E+01 0. -1.
         -5    1    1    2    0  502  0.16521739675E+02 -0.29924311022E+02  0.17969804811E+03  0.18296801132E+03  0.41800000000E+01 0. -1.
        -11    1    1    2    0    0 -0.34728311387E+02  0.21988414364E+01  0.12230503823E+03  0.12715900634E+03  0.00000000000E+00 0. -1.
         11    1    1    2    0    0  0.50436595985E+02  0.51277169360E+02  0.17048804451E+03  0.18503883817E+03  0.00000000000E+00 0.  1.
</event>
<event>
 6    1  0.4988969E-006  0.1346155E+03  0.7561462E-02  0.1220763E+00
         -2   -1    0    0    0  501 -0.00000000000E+00  0.00000000000E+00  0.65084660677E+02  0.65084660677E+02  0.00000000000E+00 0. -1.
          2   -1    0    0  501    0  0.00000000000E+00 -0.00000000000E+00 -0.41655996231E+03  0.41655996231E+03  0.00000000000E+00 0.  1.
          5    1    1    2  502    0 -0.56551757342E+02 -0.38915736399E+02 -0.15264569058E+03  0.16742375892E+03  0.41800000000E+01 0. -1.
         -5    1    1    2    0  502 -0.31337001264E+02 -0.37334172250E+02  0.15859914310E+02  0.51428176593E+02  0.41800000000E+01 0. -1.
        -11    1    1    2    0    0 -0.78337630601E+01 -0.16489068163E+02 -0.24533856322E+02  0.30580505532E+02  0.00000000000E+00 0.  1.
         11    1    1    2    0    0  0.95722521667E+02  0.92738976811E+02 -0.19015566904E+03  0.23221218194E+03  0.00000000000E+00 0. -1.
</event>
<event>
 6    1  0.4988969E-006  0.2801913E+03  0.7561462E-02  0.1095584E+00
          2   -1    0    0  501    0  0.00000000000E+00  0.00000000000E+00  0.32996915395E+02  0.32996915395E+02  0.00000000000E+00 0. -1.
         -2   -1    0    0    0  501 -0.00000000000E+00 -0.00000000000E+00 -0.26651619941E+04  0.26651619941E+04  0.00000000000E+00 0.  1.
          5    1    1    2  502    0  0.17635759166E+03 -0.12503390534E+03 -0.91877721270E+03  0.94387738431E+03  0.41800000000E+01 0. -1.
         -5    1    1    2    0  502  0.18180513037E+02 -0.65724152544E+02 -0.62651722121E+03  0.63023130369E+03  0.41800000000E+01 0. -1.
        -11    1    1    2    0    0 -0.94928044692E+02  0.12297882424E+03 -0.75917285206E+03  0.77490550662E+03  0.00000000000E+00 0.  1.
         11    1    1    2    0    0 -0.99610060008E+02  0.67779233642E+02 -0.32769779276E+03  0.34914471490E+03  0.00000000000E+00 0. -1.
</event>
<event>
 6    1  0.4988969E-006  0.9550962E+02  0.7561462E-02  0.1290032E+00
         -2   -1    0    0    0  501 -0.00000000000E+00  0.00000000000E+00  0.42072482893E+02  0.42072482893E+02  0.00000000000E+00 0.  1.
          2   -1    0    0  501    0  0.00000000000E+00 -0.00000000000E+00 -0.29481839417E+03  0.29481839417E+03  0.00000000000E+00 0. -1.
          5    1    1    2  502    0 -0.10815422890E+02  0.52313634822E+02 -0.97751180749E+01  0.54467560015E+02  0.41800000000E+01 0.  1.
         -5    1    1    2    0  502 -0.78725182058E+01 -0.41781186254E+02 -0.11857472465E+03  0.12603603371E+03  0.41800000000E+01 0.  1.
        -11    1    1    2    0    0 -0.35722757973E+02  0.91115664910E+01 -0.51194028316E+02  0.63086960747E+02  0.00000000000E+00 0.  1.
         11    1    1    2    0    0  0.54410699069E+02 -0.19644015060E+02 -0.73202040237E+02  0.93300322592E+02  0.00000000000E+00 0. -1.
</event>
<event>
 6    1  0.4988969E-006  0.4093930E+03  0.7561462E-02  0.1040575E+00
         -1   -1    0    0    0  501 -0.00000000000E+00  0.00000000000E+00  0.20207049051E+04  0.20207049051E+04  0.00000000000E+00 0.  1.
          1   -1    0    0  501    0  0.00000000000E+00 -0.00000000000E+00 -0.89542394314E+02  0.89542394314E+02  0.00000000000E+00 0. -1.
          5    1    1    2  502    0  0.22634342456E+03  0.15495688474E+03  0.67754815351E+03  0.73098013290E+03  0.41800000000E+01 0. -1.
         -5    1    1    2    0  502  0.64302139656E+02  0.12064600612E+03  0.53131396831E+03  0.54863670063E+03  0.41800000000E+01 0. -1.
        -11    1    1    2    0    0 -0.10191258088E+03 -0.49942070614E+02  0.24398332802E+03  0.26908780892E+03  0.00000000000E+00 0.  1.
         11    1    1    2    0    0 -0.18873298334E+03 -0.22566082025E+03  0.47831706093E+03  0.56154265694E+03  0.00000000000E+00 0. -1.
</event>
<event>
 6    1  0.4988969E-006  0.1431965E+03  0.7561462E-02  0.1209091E+00
         -2   -1    0    0    0  501 -0.00000000000E+00  0.00000000000E+00  0.90675264452E+02  0.90675264452E+02  0.00000000000E+00 0.  1.
          2   -1    0    0  501    0  0.00000000000E+00 -0.00000000000E+00 -0.32506262517E+03  0.32506262517E+03  0.00000000000E+00 0. -1.
          5    1    1    2  502    0 -0.11266013066E+02 -0.11509909639E+02 -0.80281841435E+02  0.81988093858E+02  0.41800000000E+01 0. -1.
         -5    1    1    2    0  502 -0.58750312800E+02  0.11827027189E+03 -0.35792242500E+02  0.13688686383E+03  0.41800000000E+01 0.  1.
        -11    1    1    2    0    0  0.36870225590E+02 -0.14541822439E+02 -0.84266993068E+02  0.93122522816E+02  0.00000000000E+00 0.  1.
         11    1    1    2    0    0  0.33146100275E+02 -0.92218539812E+02 -0.34046283716E+02  0.10374040912E+03  0.00000000000E+00 0. -1.
</event>
<event>
 6    1  0.4988969E-006  0.7605551E+02  0.7561462E-02  0.1340633E+00
          2   -1    0    0  501    0  0.00000000000E+00  0.00000000000E+00  0.74274539923E+03  0.74274539923E+03  0.00000000000E+00 0. -1.
         -2   -1    0    0    0  501 -0.00000000000E+00 -0.00000000000E+00 -0.10408995562E+02  0.10408995562E+02  0.00000000000E+00 0.  1.
          5    1    1    2  502    0 -0.45550943835E+02 -0.21536722541E+02  0.37945399063E+03  0.38280742196E+03  0.41800000000E+01 0. -1.
         -5    1    1    2    0  502  0.29465362563E+02  0.25068167557E+02  0.65251569252E+02  0.75972760286E+02  0.41800000000E+01 0.  1.
        -11    1    1    2    0    0  0.35815041897E+02  0.11741571377E+02  0.17510912876E+03  0.17911948163E+03  0.00000000000E+00 0. -1.
         11    1    1    2    0    0 -0.19729460624E+02 -0.15273016393E+02  0.11252171502E+03  0.11525473091E+03  0.00000000000E+00 0.  1.
</event>
<event>
 6    1  0.4988969E-006  0.8354885E+02  0.7561462E-02  0.1319272E+00
          2   -1    0    0  501    0  0.00000000000E+00  0.00000000000E+00  0.14650199471E+03  0.14650199471E+03  0.00000000000E+00 0. -1.
         -2   -1    0    0    0  501 -0.00000000000E+00 -0.00000000000E+00 -0.10668433106E+03  0.10668433106E+03  0.00000000000E+00 0.  1.
          5    1    1    2  502    0 -0.99971469024E+01  0.22658792511E+02  0.47769889064E+02  0.53970348576E+02  0.41800000000E+01 0. -1.
         -5    1    1    2    0  502 -0.47136945455E+02 -0.11114827563E+02 -0.70897859028E+02  0.85961676538E+02  0.41800000000E+01 0. -1.
        -11    1    1    2    0    0  0.27805644827E+02 -0.42461985435E+02  0.41415126102E+02  0.65508676993E+02  0.00000000000E+00 0.  1.
         11    1    1    2    0    0  0.29328447530E+02  0.30918020487E+02  0.21530507511E+02  0.47745623664E+02  0.00000000000E+00 0. -1.
</event>
<event>
 6    1  0.4988969E-006  0.1273179E+03  0.7561462E-02  0.1231491E+00
          1   -1    0    0  501    0  0.00000000000E+00  0.00000000000E+00  0.11857760199E+03  0.11857760199E+03  0.00000000000E+00 0. -1.
         -1   -1    0    0    0  501 -0.00000000000E+00 -0.00000000000E+00 -0.19094892371E+03  0.19094892371E+03  0.00000000000E+00 0.  1.
          5    1    1    2  502    0  0.11992746936E+02 -0.60692354547E+02 -0.35653753696E+02  0.71526571511E+02  0.41800000000E+01 0. -1.
         -5    1    1    2    0  502 -0.82537142815E+02  0.23103818115E+02 -0.68840971872E+02  0.11001235460E+03  0.41800000000E+01 0. -1.
        -11    1    1    2    0    0  0.85236398526E+02  0.30773485161E+02 -0.15359949401E+01  0.90634487382E+02  0.00000000000E+00 0.  1.
         11    1    1    2    0    0 -0.14692002647E+02  0.68150512710E+01  0.33659398781E+02  0.37353112212E+02  0.00000000000E+00 0. -1.
</event>
<event>
 6    1  0.4988969E-006  0.1211505E+03  0.7561462E-02  0.1241211E+00
         -1   -1    0    0    0  501 -0.00000000000E+00  0.00000000000E+00  0.46684005679E+03  0.46684005679E+03  0.00000000000E+00 0.  1.
          1   -1    0    0  501    0  0.00000000000E+00 -0.00000000000E+00 -0.38370306041E+02  0.38370306041E+02  0.00000000000E+00 0. -1.
          5    1    1    2  502    0 -0.56703611613E+01  0.30371474840E+02  0.13074639981E+03  0.13441232437E+03  0.41800000000E+01 0.  1.
         -5    1    1    2    0  502  0.81677970807E+02 -0.42587945129E+02  0.77680276724E+02  0.12056832825E+03  0.41800000000E+01 0.  1.
        -11    1    1    2    0    0 -0.76137174623E+01 -0.34991329179E+02  0.73605951721E+02  0.81854736821E+02  0.00000000000E+00 0.  1.
         11    1    1    2    0    0 -0.68393892183E+02  0.47207799469E+02  0.14643712250E+03  0.16837497339E+03  0.00000000000E+00 0. -1.
</event>
<event>
 6    1  0.4988969E-006  0.9930084E+02  0.7561462E-02  0.1281773E+00
         -1   -1    0    0    0  501 -0.00000000000E+00  0.00000000000E+00  0.24765776314E+03  0.24765776314E+03  0.00000000000E+00 0.  1.
          1   -1    0    0  501    0  0.00000000000E+00 -0.00000000000E+00 -0.71834871399E+02  0.71834871399E+02  0.00000000000E+00 0. -1.
          5    1    1    2  502    0  0.61207601257E+02  0.77040505522E+02  0.12380024584E+03  0.15819476354E+03  0.41800000000E+01 0.  1.
         -5    1    1    2    0  502 -0.21831167000E+02 -0.15977977713E+02 -0.64129877992E+01  0.28115732907E+02  0.41800000000E+01 0.  1.
        -11    1    1    2    0    0 -0.15730879348E+02 -0.21264906759E+02  0.78419790264E+02  0.82760620645E+02  0.00000000000E+00 0.  1.
         11    1    1    2    0    0 -0.23645554910E+02 -0.39797621049E+02 -0.19984156559E+02  0.50421517446E+02  0.00000000000E+00 0. -1.
</event>
<event>
 6    1  0.4988969E-006  0.7555351E+02  0.7561462E-02  0.1342166E+00
          1   -1    0    0  501    0  0.00000000000E+00  0.00000000000E+00  0.58263897654E+02  0.58263897654E+02  0.00000000000E+00 0. -1.
         -1   -1    0    0    0  501 -0.00000000000E+00 -0.00000000000E+00 -0.33129067624E+03  0.33129067624E+03  0.00000000000E+00 0.  1.
          5    1    1    2  502    0 -0.22282343899E+02  0.44190149401E+02 -0.17380368743E+03  0.18076079862E+03  0.41800000000E+01 0.  1.
         -5    1    1    2    0  502  0.46234944511E+02 -0.48512188223E+02 -0.90885113702E+02  0.11299857872E+03  0.41800000000E+01 0.  1.
        -11    1    1    2    0    0 -0.16117318827E+02 -0.92795478273E+01 -0.48891778926E+02  0.52309502201E+02  0.00000000000E+00 0.  1.
         11    1    1    2    0    0 -0.78352817848E+01  0.13601586650E+02  0.40553801468E+02  0.43485694355E+02  0.00000000000E+00 0. -1.
</event>
<event>
 6    1  0.4988969E-006  0.1929315E+03  0.7561462E-02  0.1155844E+00
          2   -1    0    0  501    0  0.00000000000E+00  0.00000000000E+00  0.10401389456E+03  0.10401389456E+03  0.00000000000E+00 0. -1.
         -2   -1    0    0    0  501 -0.00000000000E+00 -0.00000000000E+00 -0.39495508943E+03  0.39495508943E+03  0.00000000000E+00 0.  1.
          5    1    1    2  502    0 -0.35586212446E+02 -0.13402662503E+02  0.20763262946E+01  0.38311792040E+02  0.41800000000E+01 0. -1.
         -5    1    1    2    0  502  0.12580791883E+02 -0.15475148790E+03 -0.17840865172E+03  0.23654474997E+03  0.41800000000E+01 0. -1.
        -11    1    1    2    0    0  0.58013761098E+02  0.97968083815E+02 -0.61667458923E+02  0.12948442923E+03  0.00000000000E+00 0.  1.
         11    1    1    2    0    0 -0.35008340535E+02  0.70186066583E+02 -0.52941410516E+02  0.94628012750E+02  0.00000000000E+00 0. -1.
</event>
<event>
 6    1  0.4988969E-006  0.8637860E+02  0.7561462E-02  0.1311866E+00
         -1   -1    0    0    0  501 -0.00000000000E+00  0.00000000000E+00  0.38896420746E+03  0.38896420746E+03  0.00000000000E+00 0.  1.
          1   -1    0    0  501    0  0.00000000000E+00 -0.00000000000E+00 -0.36559009837E+02  0.36559009837E+02  0.00000000000E+00 0. -1.
          5    1    1    2  502    0 -0.23434309958E+02 -0.12751694590E+02 -0.33182476031E+01  0.27207641670E+02  0.41800000000E+01 0.  1.
         -5    1    1    2    0  502  0.32937301536E+02 -0.29462953164E+02  0.23909666084E+03  0.24318227128E+03  0.41800000000E+01 0.  1.
        -11    1    1    2    0    0 -0.46825661067E+02  0.43646978758E+02  0.83464219885E+02  0.10518544239E+03  0.00000000000E+00 0.  1.
         11    1    1    2    0    0  0.37322669488E+02 -0.14323310035E+01  0.33162564502E+02  0.49947861959E+02  0.00000000000E+00 0. -1.
</event>
<event>
 6    1  0.4988969E-006  0.1322384E+03  0.7561462E-02  0.1224172E+00
         -1   -1    0    0    0  501 -0.00000000000E+00  0.00000000000E+00  0.26968321940E+02  0.26968321940E+02  0.00000000000E+00 0.  1.
          1   -1    0    0  501    0  0.00000000000E+00 -0.00000000000E+00 -0.78380037899E+03  0.78380037899E+03  0.00000000000E+00 0. -1.
          5    1    1    2  502    0 -0.30077523345E+02 -0.76952426695E+02 -0.12572303282E+03  0.15049945769E+03  0.41800000000E+01 0.  1.
         -5    1    1    2    0  502  0.61260982044E+02 -0.13216624658E+02 -0.23073420701E+03  0.23913036982E+03  0.41800000000E+01 0.  1.
        -11    1    1    2    0    0  0.14736174390E+02  0.64848480928E+02 -0.13333283613E+03  0.14899706542E+03  0.00000000000E+00 0.  1.
         11    1    1    2    0    0 -0.45919633089E+02  0.25320570424E+02 -0.26704198110E+03  0.27214180800E+03  0.00000000000E+00 0. -1.
</event>
<event>
 6    1  0.4988969E-006  0.1175167E+03  0.7561462E-02  0.1247251E+00
          3   -1    0    0  501    0  0.00000000000E+00  0.00000000000E+00  0.12922036118E+03  0.12922036118E+03  0.00000000000E+00 0. -1.
         -3   -1    0    0    0  501 -0.00000000000E+00 -0.00000000000E+00 -0.20111865422E+03  0.20111865422E+03  0.00000000000E+00 0.  1.
          5    1    1    2  502    0 -0.27959007490E+02  0.45145033185E+02  0.18522421360E+02  0.56394437795E+02  0.41800000000E+01 0.  1.
         -5    1    1    2    0  502 -0.46727232833E+02  0.19106245526E+02 -0.12574388599E+03  0.13556356506E+03  0.41800000000E+01 0.  1.
        -11    1    1    2    0    0  0.78191995543E+02 -0.12431506052E+02  0.76828696986E+01  0.79545942678E+02  0.00000000000E+00 0.  1.
         11    1    1    2    0    0 -0.35057552197E+01 -0.51819772659E+02  0.27640301898E+02  0.58835069874E+02  0.00000000000E+00 0. -1.
</event>
<event>
 6    1  0.4988969E-006  0.1212812E+03  0.7561462E-02  0.1240998E+00
         -1   -1    0    0    0  501 -0.00000000000E+00  0.00000000000E+00  0.74291530866E+02  0.74291530866E+02  0.00000000000E+00 0.  1.
          1   -1    0    0  501    0  0.00000000000E+00 -0.00000000000E+00 -0.35601765655E+03  0.35601765655E+03  0.00000000000E+00 0. -1.
          5    1    1    2  502    0  0.56340421283E+02  0.52928164914E+02 -0.88200174848E+02  0.11735577086E+03  0.41800000000E+01 0.  1.
         -5    1    1    2    0  502 -0.12513230422E+02  0.32075274650E+02  0.34588395883E+02  0.48981973309E+02  0.41800000000E+01 0.  1.
        -11    1    1    2    0    0 -0.62491214114E+02 -0.91412303273E+02 -0.17272068254E+03  0.20516772458E+03  0.00000000000E+00 0. -1.
         11    1    1    2    0    0  0.18664023254E+02  0.64088637098E+01 -0.55393664172E+02  0.58803718662E+02  0.00000000000E+00 0.  1.
</event>
<event>
 6    1  0.4988969E-006  0.1747883E+03  0.7561462E-02  0.1172944E+00
          3   -1    0    0  501    0  0.00000000000E+00  0.00000000000E+00  0.32487026951E+03  0.32487026951E+03  0.00000000000E+00 0. -1.
         -3   -1    0    0    0  501 -0.00000000000E+00 -0.00000000000E+00 -0.94747076858E+02  0.94747076858E+02  0.00000000000E+00 0.  1.
          5    1    1    2  502    0  0.46050578953E+02 -0.94790483948E+02  0.62271792640E+02  0.12247914201E+03  0.41800000000E+01 0.  1.
         -5    1    1    2    0  502 -0.69054394591E+02 -0.40325710738E+02  0.44393284052E+02  0.91558224250E+02  0.41800000000E+01 0.  1.
        -11    1    1    2    0    0  0.40018113635E+02  0.14057875487E+03  0.11398340544E+03  0.18535385741E+03  0.00000000000E+00 0. -1.
         11    1    1    2    0    0 -0.17014297997E+02 -0.54625601867E+01  0.94747105270E+01  0.20226122706E+02  0.00000000000E+00 0.  1.
</event>
<event>
 6    1  0.4988969E-006  0.1191273E+03  0.7561462E-02  0.1244544E+00
          1   -1    0    0  501    0  0.00000000000E+00  0.00000000000E+00  0.33771990753E+03  0.33771990753E+03  0.00000000000E+00 0. -1.
         -1   -1    0    0    0  501 -0.00000000000E+00 -0.00000000000E+00 -0.52420105129E+02  0.52420105129E+02  0.00000000000E+00 0.  1.
          5    1    1    2  502    0 -0.71631354681E+02 -0.19369549406E+02  0.19772097723E+02  0.76906688045E+02  0.41800000000E+01 0. -1.
         -5    1    1    2    0  502  0.12647080124E+02  0.51630748954E+02  0.82037851725E+02  0.97843571014E+02  0.41800000000E+01 0. -1.
        -11    1    1    2    0    0 -0.22752284157E+02 -0.36765498987E-01  0.22574252290E+02  0.32050969604E+02  0.00000000000E+00 0.  1.
         11    1    1    2    0    0  0.81736558714E+02 -0.32224434048E+02  0.16091560066E+03  0.18333878399E+03  0.00000000000E+00 0. -1.
</event>
<event>
 6    1  0.4988969E-006  0.1094012E+03  0.7561462E-02  0.1261683E+00
         -2   -1    0    0    0  501 -0.00000000000E+00  0.00000000000E+00  0.33178519264E+02  0.33178519264E+02  0.00000000000E+00 0. -1.
          2   -1    0    0  501    0  0.00000000000E+00 -0.00000000000E+00 -0.47723505725E+03  0.47723505725E+03  0.00000000000E+00 0.  1.
          5    1    1    2  502    0  0.57845740784E+02  0.24135410634E+02 -0.82788838837E+02  0.10392358736E+03  0.41800000000E+01 0.  1.
         -5    1    1    2    0  502 -0.19458550884E+02 -0.71942607446E+02 -0.14501309579E+03  0.16309703958E+03  0.41800000000E+01 0.  1.
        -11    1    1    2    0    0 -0.51999431413E+02  0.40350314336E+02 -0.21805127751E+03  0.22776840948E+03  0.00000000000E+00 0.  1.
         11    1    1    2    0    0  0.13612241514E+02  0.74568824761E+01  0.17966741475E+01  0.15624540098E+02  0.00000000000E+00 0. -1.
</event>
<event>
 6    1  0.4988969E-006  0.7031923E+02  0.7561462E-02  0.1359011E+00
         -1   -1    0    0    0  501 -0.00000000000E+00  0.00000000000E+00  0.18768160329E+02  0.18768160329E+02  0.00000000000E+00 0.  1.
          1   -1    0    0  501    0  0.00000000000E+00 -0.00000000000E+00 -0.68297106316E+03  0.68297106316E+03  0.00000000000E+00 0. -1.
          5    1    1    2  502    0  0.24907202046E+02 -0.25630512820E+02 -0.16582385909E+02  0.39619942246E+02  0.41800000000E+01 0.  1.
         -5    1    1    2    0  502 -0.32489124832E+01  0.10477615084E+02 -0.32331677562E+03  0.32352982188E+03  0.41800000000E+01 0.  1.
        -11    1    1    2    0    0  0.22467750091E+02 -0.24747912154E+02 -0.16915702772E+03  0.17242783701E+03  0.00000000000E+00 0. -1.
         11    1    1    2    0    0 -0.44126039654E+02  0.39900809890E+02 -0.15514671358E+03  0.16616162235E+03  0.00000000000E+00 0.  1.
</event>
<event>
 6    1  0.4988969E-006  0.1125880E+03  0.7561462E-02  0.1255851E+00
          3   -1    0    0  501    0  0.00000000000E+00  0.00000000000E+00  0.54931549091E+02  0.54931549091E+02  0.00000000000E+00 0. -1.
         -3   -1    0    0    0  501 -0.00000000000E+00 -0.00000000000E+00 -0.29837956129E+03  0.29837956129E+03  0.00000000000E+00 0.  1.
          5    1    1    2  502    0 -0.39254812952E+02  0.21038065483E+02 -0.65189157097E+02  0.79060983692E+02  0.41800000000E+01 0.  1.
         -5    1    1    2    0  502  0.64788478568E+02 -0.60846767101E+02 -0.13506096711E+03  0.16173686426E+03  0.41800000000E+01 0.  1.
        -11    1    1    2    0    0  0.21646446040E+02  0.38615365936E+02  0.56058903872E+01  0.44622204334E+02  0.00000000000E+00 0.  1.
         11    1    1    2    0    0 -0.47180111656E+02  0.11933356813E+01 -0.48803778372E+02  0.67891058095E+02  0.00000000000E+00 0. -1.
</event>
<event>
 6    1  0.4988969E-006  0.1960815E+03  0.7561462E-02  0.1153088E+00
         -1   -1    0    0    0  501 -0.00000000000E+00  0.00000000000E+00  0.11505151423E+03  0.11505151423E+03  0.00000000000E+00 0.  1.
          1   -1    0    0  501    0  0.00000000000E+00 -0.00000000000E+00 -0.56430125772E+03  0.56430125772E+03  0.00000000000E+00 0. -1.
          5    1    1    2  502    0 -0.10743595612E+03 -0.96223213351E+01 -0.52270336121E+01  0.10807343807E+03  0.41800000000E+01 0. -1.
         -5    1    1    2    0  502 -0.18217856879E+02 -0.97041778513E+02 -0.12135972280E+02  0.99567822661E+02  0.41800000000E+01 0. -1.
        -11    1    1    2    0    0  0.11796043757E+03  0.49855368294E+02 -0.24826249655E+03  0.27934654065E+03  0.00000000000E+00 0.  1.
         11    1    1    2    0    0  0.76933754326E+01  0.56808731554E+02 -0.18362424104E+03  0.19236497058E+03  0.00000000000E+00 0. -1.
</event>
<event>
 6    1  0.4988969E-006  0.2052391E+03  0.7561462E-02  0.1145393E+00
          2   -1    0    0  501    0  0.00000000000E+00  0.00000000000E+00  0.15229538141E+04  0.15229538141E+04  0.00000000000E+00 0. -1.
         -2   -1    0    0    0  501 -0.00000000000E+00 -0.00000000000E+00 -0.30178664179E+02  0.30178664179E+02  0.00000000000E+00 0.  1.
          5    1    1    2  502    0 -0.83164960301E+02 -0.12262533422E+03  0.35155140039E+03  0.38152227030E+03  0.41800000000E+01 0. -1.
         -5    1    1    2    0  502 -0.61869008636E+02  0.22785129971E+02  0.25614699288E+03  0.26452918693E+03  0.41800000000E+01 0.  1.
        -11    1    1    2    0    0  0.66564441052E+02 -0.32356472359E+01  0.37064675708E+03  0.37659037794E+03  0.00000000000E+00 0. -1.
         11    1    1    2    0    0  0.78469527885E+02  0.10307585149E+03  0.51442999955E+03  0.53049064309E+03  0.00000000000E+00 0.  1.
</event>
<event>
 6    1  0.4988969E-006  0.8826755E+02  0.7561462E-02  0.1307102E+00
          2   -1    0    0  501    0  0.00000000000E+00  0.00000000000E+00  0.31924816148E+03  0.31924816148E+03  0.00000000000E+00 0. -1.
         -2   -1    0    0    0  501 -0.00000000000E+00 -0.00000000000E+00 -0.41744546281E+02  0.41744546281E+02  0.00000000000E+00 0.  1.
          5    1    1    2  502    0 -0.23694783121E+02  0.12942149654E+02  0.10701026132E+03  0.11044279249E+03  0.41800000000E+01 0.  1.
         -5    1    1    2    0  502  0.62298387337E+02 -0.22856061627E+02  0.13667843061E+02  0.67880563874E+02  0.41800000000E+01 0.  1.
        -11    1    1    2    0    0 -0.55571076228E+02  0.24134421793E+02  0.67769307013E+02  0.90902661134E+02  0.00000000000E+00 0.  1.
         11    1    1    2    0    0  0.16967472011E+02 -0.14220509820E+02  0.89056203804E+02  0.91766690263E+02  0.00000000000E+00 0. -1.
</event>
<event>
 6    1  0.4988969E-006  0.1443161E+03  0.7561462E-02  0.1207637E+00
         -2   -1    0    0    0  501 -0.00000000000E+00  0.00000000000E+00  0.84315702090E+02  0.84315702090E+02  0.00000000000E+00 0.  1.
          2   -1    0    0  501    0  0.00000000000E+00 -0.00000000000E+00 -0.44396285803E+03  0.44396285803E+03  0.00000000000E+00 0. -1.
          5    1    1    2  502    0  0.11355566364E+02  0.22979969356E+02 -0.27858389109E+02  0.38086613433E+02  0.41800000000E+01 0. -1.
         -5    1    1    2    0  502  0.10615606303E+02 -0.13063388317E+03 -0.25578321696E+01  0.13115608043E+03  0.41800000000E+01 0. -1.
        -11    1    1    2    0    0  0.26470067516E+02  0.46600313953E+02 -0.20894120113E+03  0.21570507473E+03  0.00000000000E+00 0. -1.
         11    1    1    2    0    0 -0.48441240183E+02  0.61053599858E+02 -0.12028973353E+03  0.14333079153E+03  0.00000000000E+00 0.  1.
</event>
<event>
 6    1  0.4988969E-006  0.9794758E+02  0.7561462E-02  0.1284672E+00
          1   -1    0    0  501    0  0.00000000000E+00  0.00000000000E+00  0.77786952579E+02  0.77786952579E+02  0.00000000000E+00 0. -1.
         -1   -1    0    0    0  501 -0.00000000000E+00 -0.00000000000E+00 -0.18924092690E+03  0.18924092690E+03  0.00000000000E+00 0.  1.
          5    1    1    2  502    0 -0.22748335618E+01 -0.43457096764E+02 -0.63418540146E+02  0.77026474417E+02  0.41800000000E+01 0. -1.
         -5    1    1    2    0  502  0.53241073481E+02  0.58924985014E+02 -0.18293203246E+02  0.81601957386E+02  0.41800000000E+01 0. -1.
        -11    1    1    2    0    0 -0.31993623599E+02 -0.33609790682E+02 -0.55007584662E+02  0.71965577543E+02  0.00000000000E+00 0.  1.
         11    1    1    2    0    0 -0.18972616321E+02  0.18141902433E+02  0.25265353730E+02  0.36433870135E+02  0.00000000000E+00 0. -1.
</event>
<event>
 6    1  0.4988969E-006  0.1169627E+03  0.7561462E-02  0.1248193E+00
         -1   -1    0    0    0  501 -0.00000000000E+00  0.00000000000E+00  0.14677071576E+03  0.14677071576E+03  0.00000000000E+00 0.  1.
          1   -1    0    0  501    0  0.00000000000E+00 -0.00000000000E+00 -0.13180653459E+03  0.13180653459E+03  0.00000000000E+00 0. -1.
          5    1    1    2  502    0  0.74958848573E+01  0.47011433381E+02  0.25967575426E+02  0.54387963116E+02  0.41800000000E+01 0.  1.
         -5    1    1    2    0  502 -0.89415314684E+02 -0.21613866886E+02 -0.31709416706E+02  0.97392080015E+02  0.41800000000E+01 0.  1.
        -11    1    1    2    0    0  0.36472109736E+02 -0.31505554466E+02  0.52292873359E+02  0.71115113408E+02  0.00000000000E+00 0.  1.
         11    1    1    2    0    0  0.45447320091E+02  0.61079879715E+01 -0.31586850911E+02  0.55682093809E+02  0.00000000000E+00 0. -1.
</event>
<event>
 6    1  0.4988969E-006  0.1463993E+03  0.7561462E-02  0.1204969E+00
         -1   -1    0    0    0  501 -0.00000000000E+00  0.00000000000E+00  0.53635876045E+02  0.53635876045E+02  0.00000000000E+00 0.  1.
          1   -1    0    0  501    0  0.00000000000E+00 -0.00000000000E+00 -0.56129684096E+03  0.56129684096E+03  0.00000000000E+00 0. -1.
          5    1    1    2  502    0  0.61165763877E+02  0.31628972664E+02 -0.26381196448E+02  0.73858530371E+02  0.41800000000E+01 0.  1.
         -5    1    1    2    0  502 -0.46876356107E+02  0.76648194897E+02 -0.10234611556E+03  0.13625174609E+03  0.41800000000E+01 0.  1.
        -11    1    1    2    0    0 -0.45259973535E+02 -0.80079539649E+02 -0.31684577760E+03  0.32992793858E+03  0.00000000000E+00 0. -1.
         11    1    1    2    0    0  0.30970565765E+02 -0.28197627911E+02 -0.62087875310E+02  0.74894501961E+02  0.00000000000E+00 0.  1.
</event>
<event>
 6    1  0.4988969E-006  0.2159924E+03  0.7561462E-02  0.1136907E+00
          2   -1    0    0  501    0  0.00000000000E+00  0.00000000000E+00  0.82343271221E+03  0.82343271221E+03  0.00000000000E+00 0. -1.
         -2   -1    0    0    0  501 -0.00000000000E+00 -0.00000000000E+00 -0.60523778541E+02  0.60523778541E+02  0.00000000000E+00 0.  1.
          5    1    1    2  502    0 -0.19894744525E+03  0.40376871871E+01  0.29477296149E+03  0.35567535776E+03  0.41800000000E+01 0.  1.
         -5    1    1    2    0  502  0.92931752242E+01 -0.26228337324E+02  0.28703304389E+02  0.40195035357E+02  0.41800000000E+01 0.  1.
        -11    1    1    2    0    0  0.70625780653E+01  0.21066829528E+02  0.17317539368E+02  0.28170702602E+02  0.00000000000E+00 0.  1.
         11    1    1    2    0    0  0.18259169196E+03  0.11238206086E+01  0.42211512842E+03  0.45991539503E+03  0.00000000000E+00 0. -1.
</event>
<event>
 6    1  0.4988969E-006  0.6763949E+02  0.7561462E-02  0.1368309E+00
          1   -1    0    0  501    0  0.00000000000E+00  0.00000000000E+00  0.29013972625E+02  0.29013972625E+02  0.00000000000E+00 0. -1.
         -1   -1    0    0    0  501 -0.00000000000E+00 -0.00000000000E+00 -0.45026079546E+03  0.45026079546E+03  0.00000000000E+00 0.  1.
          5    1    1    2  502    0 -0.18391539059E+02 -0.15136085612E+02 -0.31860778643E+03  0.31952424598E+03  0.41800000000E+01 0. -1.
         -5    1    1    2    0  502  0.19981065353E+02  0.17684831301E+01  0.25541956813E+01  0.20648651792E+02  0.41800000000E+01 0. -1.
        -11    1    1    2    0    0  0.16918091917E+02  0.48243216169E+02 -0.65826703865E+02  0.83347373577E+02  0.00000000000E+00 0.  1.
         11    1    1    2    0    0 -0.18507618212E+02 -0.34875613687E+02 -0.39366528220E+02  0.55754496733E+02  0.00000000000E+00 0. -1.
</event>
<event>
 6    1  0.4988969E-006  0.1026492E+03  0.7561462E-02  0.1274822E+00
         -2   -1    0    0    0  501 -0.00000000000E+00  0.00000000000E+00  0.60331454619E+02  0.60331454619E+02  0.00000000000E+00 0.  1.
          2   -1    0    0  501    0  0.00000000000E+00 -0.00000000000E+00 -0.21482007452E+03  0.21482007452E+03  0.00000000000E+00 0. -1.
          5    1    1    2  502    0 -0.66810315172E+01  0.69556802272E+02 -0.99717300213E+01  0.70708505316E+02  0.41800000000E+01 0. -1.
         -5    1    1    2    0  502  0.16971212805E+01 -0.38014191451E+02 -0.73959519674E+02  0.83279300686E+02  0.41800000000E+01 0. -1.
        -11    1    1    2    0    0 -0.31523802209E+02 -0.47632692746E+02 -0.31036746325E+02  0.65006946909E+02  0.00000000000E+00 0.  1.
         11    1    1    2    0    0  0.36507712446E+02  0.16090081926E+02 -0.39520623881E+02  0.56156776228E+02  0.00000000000E+00 0. -1.
</event>
<event>
 6    1  0.7134031E-006  0.1067968E+03  0.7561462E-02  0.1266619E+00
         -1   -1    0    0    0  501 -0.00000000000E+00  0.00000000000E+00  0.14294154848E+03  0.14294154848E+03  0.00000000000E+00 0.  1.
          1   -1    0    0  501    0  0.00000000000E+00 -0.00000000000E+00 -0.12022123913E+03  0.12022123913E+03  0.00000000000E+00 0. -1.
          5    1    1    2  502    0  0.48519513929E+02  0.85633616643E+02  0.51368648274E+02  0.11110116992E+03  0.41800000000E+01 0.  1.
         -5    1    1    2    0  502 -0.24916934927E+02 -0.24509645144E+02 -0.89921210515E+01  0.36330524249E+02  0.41800000000E+01 0.  1.
        -11    1    1    2    0    0 -0.32697678516E+02 -0.21281085937E+02  0.31579669486E+02  0.50192612243E+02  0.00000000000E+00 0.  1.
         11    1    1    2    0    0  0.90950995131E+01 -0.39842885562E+02 -0.51235887352E+02  0.65538481198E+02  0.00000000000E+00 0. -1.
</event>
<event>
 6    1  0.4988969E-006  0.1022762E+03  0.7561462E-02  0.1275581E+00
          1   -1    0    0  501    0  0.00000000000E+00  0.00000000000E+00  0.14684979186E+03  0.14684979186E+03  0.00000000000E+00 0. -1.
         -1   -1    0    0    0  501 -0.00000000000E+00 -0.00000000000E+00 -0.12387774882E+03  0.12387774882E+03  0.00000000000E+00 0.  1.
          5    1    1    2  502    0  0.17465410651E+02  0.18506195099E+02  0.62380209300E+02  0.67500242508E+02  0.41800000000E+01 0. -1.
         -5    1    1    2    0  502 -0.24180288094E+02  0.60907386507E+02 -0.48259847317E+02  0.81491602797E+02  0.41800000000E+01 0. -1.
        -11    1    1    2    0    0  0.34193332878E+02 -0.60043287522E+01  0.23597570755E+02  0.41977152388E+02  0.00000000000E+00 0. -1.
         11    1    1    2    0    0 -0.27478455436E+02 -0.73409252854E+02 -0.14745889697E+02  0.79758542995E+02  0.00000000000E+00 0.  1.
</event>
<event>
 6    1  0.4988969E-006  0.8673155E+02  0.7561462E-02  0.1310965E+00
          1   -1    0    0  501    0  0.00000000000E+00  0.00000000000E+00  0.18316720339E+02  0.18316720339E+02  0.00000000000E+00 0. -1.
         -1   -1    0    0    0  501 -0.00000000000E+00 -0.00000000000E+00 -0.10736102307E+04  0.10736102307E+04  0.00000000000E+00 0.  1.
          5    1    1    2  502    0  0.35970070884E+02  0.38420977547E+02 -0.81389616176E+03  0.81560679990E+03  0.41800000000E+01 0. -1.
         -5    1    1    2    0  502  0.71193371243E+01  0.86913879423E+01 -0.18362696488E+01  0.12127220278E+02  0.41800000000E+01 0. -1.
        -11    1    1    2    0    0  0.66670958478E+01 -0.57470378686E+02 -0.15608189042E+03  0.16645975823E+03  0.00000000000E+00 0.  1.
         11    1    1    2    0    0 -0.49756503856E+02  0.10358013197E+02 -0.83479188503E+02  0.97733172600E+02  0.00000000000E+00 0. -1.
</event>
<event>
 6    1  0.4988969E-006  0.1060592E+03  0.7561462E-02  0.1268047E+00
         -1   -1    0    0    0  501 -0.00000000000E+00  0.00000000000E+00  0.30031866163E+02  0.30031866163E+02  0.00000000000E+00 0.  1.
          1   -1    0    0  501    0  0.00000000000E+00 -0.00000000000E+00 -0.40008116083E+03  0.40008116083E+03  0.00000000000E+00 0. -1.
          5    1    1    2  502    0 -0.22335916743E+02  0.56361545819E+02 -0.10493371211E+03  0.12126035362E+03  0.41800000000E+01 0.  1.
         -5    1    1    2    0  502  0.23156101306E+02 -0.58034064406E+02 -0.71886688555E+02  0.95337957030E+02  0.41800000000E+01 0.  1.
        -11    1    1    2    0    0  0.59994511626E+01 -0.43060143007E+02 -0.71899194812E+02  0.84021803984E+02  0.00000000000E+00 0.  1.
         11    1    1    2    0    0 -0.68196357256E+01  0.44732661595E+02 -0.12132969919E+03  0.12949291236E+03  0.00000000000E+00 0. -1.
</event>
<event>
 6    1  0.5223618E-006  0.1194318E+03  0.7561462E-02  0.1244037E+00
          3   -1    0    0  501    0  0.00000000000E+00  0.00000000000E+00  0.12034981025E+03  0.12034981025E+03  0.00000000000E+00 0. -1.
         -3   -1    0    0    0  501 -0.00000000000E+00 -0.00000000000E+00 -0.15994308302E+03  0.15994308302E+03  0.00000000000E+00 0.  1.
          5    1    1    2  502    0 -0.43174149414E+02 -0.64672235100E+02  0.26392347735E+02  0.82222464019E+02  0.41800000000E+01 0.  1.
         -5    1    1    2    0  502  0.41085698917E+02 -0.20206965697E+02 -0.54929320299E+02  0.71631408940E+02  0.41800000000E+01 0.  1.
        -11    1    1    2    0    0 -0.37621327353E+02  0.36386255237E+02  0.20568757492E+02  0.56235199179E+02  0.00000000000E+00 0.  1.
         11    1    1    2    0    0  0.39709777850E+02  0.48492945560E+02 -0.31625057699E+02  0.70203821124E+02  0.00000000000E+00 0. -1.
</event>
<event>
 6    1  0.4988969E-006  0.1375055E+03  0.7561462E-02  0.1216725E+00
          1   -1    0    0  501    0  0.00000000000E+00  0.00000000000E+00  0.19994728064E+03  0.19994728064E+03  0.00000000000E+00 0. -1.
         -1   -1    0    0    0  501 -0.00000000000E+00 -0.00000000000E+00 -0.10870004431E+03  0.10870004431E+03  0.00000000000E+00 0.  1.
          5    1    1    2  502    0  0.50898354471E+02 -0.31964895293E+02  0.49786359852E+02  0.78157220052E+02  0.41800000000E+01 0. -1.
         -5    1    1    2    0  502 -0.66744199396E+02 -0.60009528263E+02 -0.92449811100E+01  0.90326483996E+02  0.41800000000E+01 0.  1.
        -11    1    1    2    0    0 -0.32726717602E+02  0.20924144842E+02 -0.25925552127E+01  0.38930440852E+02  0.00000000000E+00 0.  1.
         11    1    1    2    0    0  0.48572562527E+02  0.71050278713E+02  0.53298412803E+02  0.10123318005E+03  0.00000000000E+00 0. -1.
</event>
<event>
 6    1  0.4988969E-006  0.8429654E+02  0.7561462E-02  0.1317282E+00
         -1   -1    0    0    0  501 -0.00000000000E+00  0.00000000000E+00  0.29225215316E+02  0.29225215316E+02  0.00000000000E+00 0.  1.
          1   -1    0    0  501    0  0.00000000000E+00 -0.00000000000E+00 -0.66378365527E+03  0.66378365527E+03  0.00000000000E+00 0. -1.
          5    1    1    2  502    0 -0.29668794424E+02 -0.32429020884E+02 -0.11068045725E+01  0.44165327741E+02  0.41800000000E+01 0. -1.
         -5    1    1    2    0  502 -0.12150512700E+02 -0.27902129330E+02 -0.20836677738E+03  0.21061896898E+03  0.41800000000E+01 0. -1.
        -11    1    1    2    0    0  0.52525213694E+02  0.27702607753E+02 -0.35768430223E+03  0.36258018784E+03  0.00000000000E+00 0.  1.
         11    1    1    2    0    0 -0.10705906570E+02  0.32628542461E+02 -0.67400555766E+02  0.75644386019E+02  0.00000000000E+00 0. -1.
</event>
<event>
 6    1  0.4988969E-006  0.1276492E+03  0.7561462E-02  0.1230986E+00
          1   -1    0    0  501    0  0.00000000000E+00  0.00000000000E+00  0.87516668643E+02  0.87516668643E+02  0.00000000000E+00 0. -1.
         -1   -1    0    0    0  501 -0.00000000000E+00 -0.00000000000E+00 -0.50352468618E+03  0.50352468618E+03  0.00000000000E+00 0.  1.
          5    1    1    2  502    0  0.18833661437E+02 -0.39150343099E+02 -0.65140740469E+02  0.78410743121E+02  0.41800000000E+01 0. -1.
         -5    1    1    2    0  502 -0.10837189900E+03 -0.68938526511E+01 -0.35991758613E+03  0.37596560335E+03  0.41800000000E+01 0. -1.
        -11    1    1    2    0    0  0.65485003315E+02  0.22286706374E+02 -0.37848341391E+02  0.78850998004E+02  0.00000000000E+00 0.  1.
         11    1    1    2    0    0  0.24053234248E+02  0.23757489376E+02  0.46898650448E+02  0.57814010353E+02  0.00000000000E+00 0. -1.
</event>
<event>
 6    1  0.4988969E-006  0.1008691E+03  0.7561462E-02  0.1278479E+00
         -1   -1    0    0    0  501 -0.00000000000E+00  0.00000000000E+00  0.43899213225E+02  0.43899213225E+02  0.00000000000E+00 0.  1.
          1   -1    0    0  501    0  0.00000000000E+00 -0.00000000000E+00 -0.33181131341E+03  0.33181131341E+03  0.00000000000E+00 0. -1.
          5    1    1    2  502    0 -0.84497512556E+01  0.70103047320E+02 -0.18482937724E+02  0.73109007152E+02  0.41800000000E+01 0. -1.
         -5    1    1    2    0  502 -0.42269908550E+01 -0.32723550118E+02 -0.93900392160E+02  0.99616535935E+02  0.41800000000E+01 0. -1.
        -11    1    1    2    0    0 -0.25160272691E+02 -0.51533347244E+02 -0.73328925960E+02  0.93090582674E+02  0.00000000000E+00 0.  1.
         11    1    1    2    0    0  0.37837014802E+02  0.14153850043E+02 -0.10219984434E+03  0.10989440088E+03  0.00000000000E+00 0. -1.
</event>
<event>
 6    1  0.4988969E-006  0.1810856E+03  0.7561462E-02  0.1166757E+00
         -1   -1    0    0    0  501 -0.00000000000E+00  0.00000000000E+00  0.36675624375E+02  0.36675624375E+02  0.00000000000E+00 0.  1.
          1   -1    0    0  501    0  0.00000000000E+00 -0.00000000000E+00 -0.10687261421E+04  0.10687261421E+04  0.00000000000E+00 0. -1.
          5    1    1    2  502    0 -0.26738207314E+02  0.20247176220E+02 -0.30130959030E+03  0.30319930983E+03  0.41800000000E+01 0. -1.
         -5    1    1    2    0  502 -0.12697107648E+03 -0.72869718672E+02 -0.34331568132E+03  0.37324895124E+03  0.41800000000E+01 0. -1.
        -11    1    1    2    0    0  0.61100999096E+02  0.64152662375E+02 -0.22191474257E+03  0.23894570335E+03  0.00000000000E+00 0.  1.
         11    1    1    2    0    0  0.92608284696E+02 -0.11530119922E+02 -0.16551050353E+03  0.19000780204E+03  0.00000000000E+00 0. -1.
</event>
<event>
 6    1  0.4988969E-006  0.2010899E+03  0.7561462E-02  0.1148823E+00
         -1   -1    0    0    0  501 -0.00000000000E+00  0.00000000000E+00  0.99124019668E+02  0.99124019668E+02  0.00000000000E+00 0.  1.
          1   -1    0    0  501    0  0.00000000000E+00 -0.00000000000E+00 -0.46413540701E+03  0.46413540701E+03  0.00000000000E+00 0. -1.
          5    1    1    2  502    0  0.12976588716E+03 -0.63429452585E+01 -0.10106666188E+03  0.16465527920E+03  0.41800000000E+01 0. -1.
         -5    1    1    2    0  502  0.30829888104E+02 -0.80469264900E+02 -0.12333376327E+03  0.15051403309E+03  0.41800000000E+01 0. -1.
        -11    1    1    2    0    0 -0.77586143827E+02  0.22124093380E+02 -0.11378703397E+03  0.13948682490E+03  0.00000000000E+00 0. -1.
         11    1    1    2    0    0 -0.83009631433E+02  0.64688116778E+02 -0.26823928225E+02  0.10860328949E+03  0.00000000000E+00 0.  1.
</event>
<event>
 6    1  0.4988969E-006  0.2430498E+03  0.7561462E-02  0.1117778E+00
         -1   -1    0    0    0  501 -0.00000000000E+00  0.00000000000E+00  0.17320158549E+03  0.17320158549E+03  0.00000000000E+00 0.  1.
          1   -1    0    0  501    0  0.00000000000E+00 -0.00000000000E+00 -0.38552860632E+03  0.38552860632E+03  0.00000000000E+00 0. -1.
          5    1    1    2  502    0  0.33538928340E+02  0.13999387202E+02 -0.30966609311E+02  0.47929592617E+02  0.41800000000E+01 0.  1.
         -5    1    1    2    0  502 -0.74681735551E+02  0.20898389181E+03 -0.14299215617E+03  0.26403760677E+03  0.41800000000E+01 0.  1.
        -11    1    1    2    0    0  0.20309805975E+02 -0.15822929896E+03  0.15101623766E+02  0.16024062627E+03  0.00000000000E+00 0.  1.
         11    1    1    2    0    0  0.20833001236E+02 -0.64753980053E+02 -0.53469879111E+02  0.86522366157E+02  0.00000000000E+00 0. -1.
</event>
<event>
 6    1  0.4988969E-006  0.1019021E+03  0.7561462E-02  0.1276346E+00
         -2   -1    0    0    0  501 -0.00000000000E+00  0.00000000000E+00  0.31541896396E+02  0.31541896396E+02  0.00000000000E+00 0. -1.
          2   -1    0    0  501    0  0.00000000000E+00 -0.00000000000E+00 -0.52837574110E+03  0.52837574110E+03  0.00000000000E+00 0.  1.
          5    1    1    2  502    0  0.53070844370E+02  0.44923715384E+02 -0.34633400313E+02  0.77792027504E+02  0.41800000000E+01 0. -1.
         -5    1    1    2    0  502 -0.38635097312E+02 -0.98013185609E+01 -0.11046362579E+03  0.11750924054E+03  0.41800000000E+01 0. -1.
        -11    1    1    2    0    0 -0.27751690842E+01 -0.63411032286E+02 -0.26945400143E+03  0.27682868252E+03  0.00000000000E+00 0.  1.
         11    1    1    2    0    0 -0.11660577974E+02  0.28288635463E+02 -0.82282817173E+02  0.87787686933E+02  0.00000000000E+00 0. -1.
</event>
<event>
 6    1  0.4988969E-006  0.1344311E+03  0.7561462E-02  0.1221025E+00
          1   -1    0    0  501    0  0.00000000000E+00  0.00000000000E+00  0.33277382808E+03  0.33277382808E+03  0.00000000000E+00 0. -1.
         -1   -1    0    0    0  501 -0.00000000000E+00 -0.00000000000E+00 -0.60506374169E+02  0.60506374169E+02  0.00000000000E+00 0.  1.
          5    1    1    2  502    0  0.43286967510E+02  0.11697135677E+03  0.10583632108E+03  0.16363025124E+03  0.41800000000E+01 0.  1.
         -5    1    1    2    0  502 -0.11080374263E+02 -0.28921245841E+02  0.33012600403E+02  0.45458963255E+02  0.41800000000E+01 0.  1.
        -11    1    1    2    0    0  0.17729512815E+02 -0.38899083302E+02  0.95247247563E+02  0.10440073024E+03  0.00000000000E+00 0. -1.
         11    1    1    2    0    0 -0.49936106063E+02 -0.49151027631E+02  0.38171284867E+02  0.79790257514E+02  0.00000000000E+00 0.  1.
</event>
<event>
 6    1  0.4988969E-006  0.1772238E+03  0.7561462E-02  0.1170517E+00
          2   -1    0    0  501    0  0.00000000000E+00  0.00000000000E+00  0.23541765699E+03  0.23541765699E+03  0.00000000000E+00 0. -1.
         -2   -1    0    0    0  501 -0.00000000000E+00 -0.00000000000E+00 -0.21579489426E+03  0.21579489426E+03  0.00000000000E+00 0.  1.
          5    1    1    2  502    0 -0.13189100567E+03  0.12388188412E+02 -0.11451036959E+03  0.17515365178E+03  0.41800000000E+01 0. -1.
         -5    1    1    2    0  502  0.22657460450E+01  0.51708737503E+02 -0.96235570411E+01  0.52811101005E+02  0.41800000000E+01 0. -1.
        -11    1    1    2    0    0  0.88674911860E+02 -0.86012732011E+02  0.94418365354E+02  0.15548716274E+03  0.00000000000E+00 0.  1.
         11    1    1    2    0    0  0.40950347764E+02  0.21915806096E+02  0.49338323998E+02  0.67760635724E+02  0.00000000000E+00 0. -1.
</event>
<event>
 6    1  0.4988969E-006  0.1744287E+03  0.7561462E-02  0.1173307E+00
          2   -1    0    0  501    0  0.00000000000E+00  0.00000000000E+00  0.30400306303E+03  0.30400306303E+03  0.00000000000E+00 0. -1.
         -2   -1    0    0    0  501 -0.00000000000E+00 -0.00000000000E+00 -0.10995680993E+03  0.10995680993E+03  0.00000000000E+00 0.  1.
          5    1    1    2  502    0 -0.65247552942E+01  0.31326754329E+02  0.14834880081E+02  0.35517376528E+02  0.41800000000E+01 0.  1.
         -5    1    1    2    0  502  0.14738605123E+03 -0.54950483903E+02  0.49786932053E+02  0.16504064585E+03  0.41800000000E+01 0.  1.
        -11    1    1    2    0    0 -0.19684014961E+02  0.32215234309E+02  0.26918746020E+01  0.37848751042E+02  0.00000000000E+00 0.  1.
         11    1    1    2    0    0 -0.12117728098E+03 -0.85915047356E+01  0.12673256636E+03  0.17555309953E+03  0.00000000000E+00 0. -1.
</event>
<event>
 6    1  0.4988969E-006  0.1131457E+03  0.7561462E-02  0.1254853E+00
         -1   -1    0    0    0  501 -0.00000000000E+00  0.00000000000E+00  0.83414521585E+02  0.83414521585E+02  0.00000000000E+00 0.  1.
          1   -1    0    0  501    0  0.00000000000E+00 -0.00000000000E+00 -0.22811525918E+03  0.22811525918E+03  0.00000000000E+00 0. -1.
          5    1    1    2  502    0 -0.39377825199E+02  0.56246866537E+02 -0.79076733490E+02  0.10480899433E+03  0.41800000000E+01 0.  1.
         -5    1    1    2    0  502  0.38119366409E+02  0.34909378230E+02  0.27046280487E+02  0.58486959846E+02  0.41800000000E+01 0.  1.
        -11    1    1    2    0    0 -0.11207697938E+02  0.22330751559E+01  0.50469167531E+01  0.12492817394E+02  0.00000000000E+00 0.  1.
         11    1    1    2    0    0  0.12466156729E+02 -0.93389319923E+02 -0.97717201347E+02  0.13574100920E+03  0.00000000000E+00 0. -1.
</event>
<event>
 6    1  0.4988969E-006  0.1627086E+03  0.7561462E-02  0.1185672E+00
         -1   -1    0    0    0  501 -0.00000000000E+00  0.00000000000E+00  0.23530934419E+03  0.23530934419E+03  0.00000000000E+00 0.  1.
          1   -1    0    0  501    0  0.00000000000E+00 -0.00000000000E+00 -0.15038157785E+03  0.15038157785E+03  0.00000000000E+00 0. -1.
          5    1    1    2  502    0  0.37817874947E+02 -0.13874427817E+02  0.35945764754E+02  0.54150363032E+02  0.41800000000E+01 0. -1.
         -5    1    1    2    0  502  0.22807485695E+02  0.14107885207E+03  0.77555259032E+02  0.16265212728E+03  0.41800000000E+01 0. -1.
        -11    1    1    2    0    0 -0.22067668087E+02 -0.66174044683E+02  0.29990975365E+02  0.75930525928E+02  0.00000000000E+00 0.  1.
         11    1    1    2    0    0 -0.38557692556E+02 -0.61030379568E+02 -0.58564232809E+02  0.92957905796E+02  0.00000000000E+00 0. -1.
</event>
<event>
 6    1  0.4988969E-006  0.9734648E+02  0.7561462E-02  0.1285977E+00
          2   -1    0    0  501    0  0.00000000000E+00  0.00000000000E+00  0.65580727591E+03  0.65580727591E+03  0.00000000000E+00 0. -1.
         -2   -1    0    0    0  501 -0.00000000000E+00 -0.00000000000E+00 -0.19202797904E+02  0.19202797904E+02  0.00000000000E+00 0.  1.
          5    1    1    2  502    0  0.47188863078E+02  0.20985338693E+02  0.25978464755E+03  0.26490131888E+03  0.41800000000E+01 0.  1.
         -5    1    1    2    0  502 -0.22585861471E+02 -0.46604002119E+02  0.54875138552E+02  0.75569884101E+02  0.41800000000E+01 0.  1.
        -11    1    1    2    0    0 -0.35711877549E+02  0.51550119100E+02  0.22035984099E+03  0.22910960805E+03  0.00000000000E+00 0. -1.
         11    1    1    2    0    0  0.11108875942E+02 -0.25931455674E+02  0.10158485091E+03  0.10542926279E+03  0.00000000000E+00 0.  1.
</event>
<event>
 6    1  0.4988969E-006  0.1232912E+03  0.7561462E-02  0.1237764E+00
         -2   -1    0    0    0  501 -0.00000000000E+00  0.00000000000E+00  0.14526209993E+03  0.14526209993E+03  0.00000000000E+00 0.  1.
          2   -1    0    0  501    0  0.00000000000E+00 -0.00000000000E+00 -0.14921891288E+03  0.14921891288E+03  0.00000000000E+00 0. -1.
          5    1    1    2  502    0  0.65183660067E+02  0.10862621735E+01 -0.28260590884E+02  0.71177404437E+02  0.41800000000E+01 0.  1.
         -5    1    1    2    0  502  0.70799514499E+01 -0.56070907302E+02  0.67778006571E+02  0.88348191452E+02  0.41800000000E+01 0.  1.
        -11    1    1    2    0    0  0.11587262529E+02  0.37074517974E+02 -0.48030571246E-01  0.38843105474E+02  0.00000000000E+00 0. -1.
         11    1    1    2    0    0 -0.83850874046E+02  0.17910127154E+02 -0.43426198062E+02  0.96112311444E+02  0.00000000000E+00 0.  1.
</event>
<event>
 6    1  0.4988969E-006  0.1752250E+03  0.7561462E-02  0.1172506E+00
         -1   -1    0    0    0  501 -0.00000000000E+00  0.00000000000E+00  0.15733504961E+03  0.15733504961E+03  0.00000000000E+00 0.  1.
          1   -1    0    0  501    0  0.00000000000E+00 -0.00000000000E+00 -0.22634599184E+03  0.22634599184E+03  0.00000000000E+00 0. -1.
          5    1    1    2  502    0  0.11415923222E+03  0.12109348126E+03  0.85468127540E+01  0.16669277703E+03  0.41800000000E+01 0.  1.
         -5    1    1    2    0  502 -0.15006992908E+02 -0.16417473162E+02  0.11079841980E+02  0.25198780912E+02  0.41800000000E+01 0.  1.
        -11    1    1    2    0    0  0.39747996183E+01 -0.38733156621E+02  0.27452656762E+01  0.39033228632E+02  0.00000000000E+00 0. -1.
         11    1    1    2    0    0 -0.10312703893E+03 -0.65942851480E+02 -0.91382862642E+02  0.15275625488E+03  0.00000000000E+00 0.  1.
</event>
<event>
 6    1  0.4988969E-006  0.1143636E+03  0.7561462E-02  0.1252696E+00
          2   -1    0    0  501    0  0.00000000000E+00  0.00000000000E+00  0.27053716264E+03  0.27053716264E+03  0.00000000000E+00 0. -1.
         -2   -1    0    0    0  501 -0.00000000000E+00 -0.00000000000E+00 -0.58664427455E+02  0.58664427455E+02  0.00000000000E+00 0.  1.
          5    1    1    2  502    0 -0.56313765935E+01 -0.42521722607E+02 -0.45179862854E+01  0.43332365454E+02  0.41800000000E+01 0.  1.
         -5    1    1    2    0  502  0.64521234735E+02  0.35768881839E+02  0.10207994903E+03  0.12601662999E+03  0.41800000000E+01 0.  1.
        -11    1    1    2    0    0  0.10717712500E+02 -0.30826193506E+02  0.33575611981E+02  0.46823554833E+02  0.00000000000E+00 0.  1.
         11    1    1    2    0    0 -0.69607570642E+02  0.37579034274E+02  0.80735160455E+02  0.11302903981E+03  0.00000000000E+00 0. -1.
</event>
<event>
 6    1  0.4988969E-006  0.1916270E+03  0.7561462E-02  0.1157002E+00
         -1   -1    0    0    0  501 -0.00000000000E+00  0.00000000000E+00  0.40091546241E+03  0.40091546241E+03  0.00000000000E+00 0.  1.
          1   -1    0    0  501    0  0.00000000000E+00 -0.00000000000E+00 -0.12054201924E+03  0.12054201924E+03  0.00000000000E+00 0. -1.
          5    1    1    2  502    0  0.63915089021E+02  0.31065603826E+01  0.11372439453E+03  0.13055841464E+03  0.41800000000E+01 0.  1.
         -5    1    1    2    0  502  0.33613419201E+02  0.13798092953E+03  0.12903789879E+03  0.19192928538E+03  0.41800000000E+01 0.  1.
        -11    1    1    2    0    0 -0.37291148411E+01 -0.35984695620E+02  0.45198074703E+02  0.57893614270E+02  0.00000000000E+00 0.  1.
         11    1    1    2    0    0 -0.93799393380E+02 -0.10510279429E+03 -0.75869248595E+01  0.14107616736E+03  0.00000000000E+00 0. -1.
</event>
<event>
 6    1  0.4988969E-006  0.7683626E+02  0.7561462E-02  0.1338277E+00
          1   -1    0    0  501    0  0.00000000000E+00  0.00000000000E+00  0.66983737157E+02  0.66983737157E+02  0.00000000000E+00 0. -1.
         -1   -1    0    0    0  501 -0.00000000000E+00 -0.00000000000E+00 -0.21558977644E+03  0.21558977644E+03  0.00000000000E+00 0.  1.
          5    1    1    2  502    0 -0.30485767274E+02 -0.46607153125E+02 -0.51163136170E+01  0.56082597959E+02  0.41800000000E+01 0. -1.
         -5    1    1    2    0  502  0.17445388672E+02  0.16048197094E+02 -0.12555828735E+03  0.12784460153E+03  0.41800000000E+01 0. -1.
        -11    1    1    2    0    0  0.87640470145E+01  0.51571375134E+02  0.19237117070E+02  0.55735822650E+02  0.00000000000E+00 0. -1.
         11    1    1    2    0    0  0.42763315880E+01 -0.21012419103E+02 -0.37168555376E+02  0.42910491458E+02  0.00000000000E+00 0.  1.
</event>
<event>
 6    1  0.4988969E-006  0.1019365E+03  0.7561462E-02  0.1276276E+00
         -1   -1    0    0    0  501 -0.00000000000E+00  0.00000000000E+00  0.85360778739E+02  0.85360778739E+02  0.00000000000E+00 0.  1.
          1   -1    0    0  501    0  0.00000000000E+00 -0.00000000000E+00 -0.19280154658E+03  0.19280154658E+03  0.00000000000E+00 0. -1.
          5    1    1    2  502    0 -0.46055835302E+02  0.45270174344E+02 -0.30075623014E+02  0.71362063803E+02  0.41800000000E+01 0. -1.
         -5    1    1    2    0  502  0.13476424341E+02 -0.81886204711E+02 -0.98186411531E+01  0.83671038293E+02  0.41800000000E+01 0.  1.
        -11    1    1    2    0    0  0.36150615295E+02  0.25104294898E+02 -0.88566079946E+02  0.98899156344E+02  0.00000000000E+00 0. -1.
         11    1    1    2    0    0 -0.35712043345E+01  0.11511735469E+02  0.21019576277E+02  0.24230066875E+02  0.00000000000E+00 0.  1.
</event>
<event>
 6    1  0.4988969E-006  0.1360086E+03  0.7561462E-02  0.1218803E+00
          1   -1    0    0  501    0  0.00000000000E+00  0.00000000000E+00  0.17032960530E+03  0.17032960530E+03  0.00000000000E+00 0. -1.
         -1   -1    0    0    0  501 -0.00000000000E+00 -0.00000000000E+00 -0.11351629472E+03  0.11351629472E+03  0.00000000000E+00 0.  1.
          5    1    1    2  502    0 -0.93302757930E+02 -0.67886506019E+02 -0.85312130303E+00  0.11546507070E+03  0.41800000000E+01 0. -1.
         -5    1    1    2    0  502  0.26416423933E+02  0.20808595423E+02  0.28541247237E+01  0.34006521798E+02  0.41800000000E+01 0. -1.
        -11    1    1    2    0    0 -0.78332572382E+00  0.54578985852E+02  0.23243319853E+02  0.59327322656E+02  0.00000000000E+00 0.  1.
         11    1    1    2    0    0  0.67669659720E+02 -0.75010752553E+01  0.31568987312E+02  0.75046984860E+02  0.00000000000E+00 0. -1.
</event>
<event>
 6    1  0.4988969E-006  0.5142262E+02  0.7561462E-02  0.1437816E+00
         -2   -1    0    0    0  501 -0.00000000000E+00  0.00000000000E+00  0.82525475227E+02  0.82525475227E+02  0.00000000000E+00 0.  1.
          2   -1    0    0  501    0  0.00000000000E+00 -0.00000000000E+00 -0.24395035449E+03  0.24395035449E+03  0.00000000000E+00 0. -1.
          5    1    1    2  502    0  0.13369344951E+02 -0.14945451628E+02 -0.56527823426E+02  0.60124646611E+02  0.41800000000E+01 0.  1.
         -5    1    1    2    0  502  0.20388245771E+02  0.82747962792E+01  0.66292775433E+02  0.69973975832E+02  0.41800000000E+01 0.  1.
        -11    1    1    2    0    0 -0.16372945285E+02 -0.21400994930E+02 -0.15886364291E+03  0.16113265641E+03  0.00000000000E+00 0.  1.
         11    1    1    2    0    0 -0.17384645437E+02  0.28071650279E+02 -0.12326188354E+02  0.35244550865E+02  0.00000000000E+00 0. -1.
</event>
<event>
 6    1  0.4988969E-006  0.8474680E+02  0.7561462E-02  0.1316096E+00
          1   -1    0    0  501    0  0.00000000000E+00  0.00000000000E+00  0.48818548776E+03  0.48818548776E+03  0.00000000000E+00 0. -1.
         -1   -1    0    0    0  501 -0.00000000000E+00 -0.00000000000E+00 -0.28094464838E+02  0.28094464838E+02  0.00000000000E+00 0.  1.
          5    1    1    2  502    0  0.39359133074E+02  0.31732848166E+01  0.23566197186E+03  0.23898378287E+03  0.41800000000E+01 0. -1.
         -5    1    1    2    0  502 -0.32218551414E+02 -0.45741111945E+02  0.47264888009E+02  0.73360250925E+02  0.41800000000E+01 0. -1.
        -11    1    1    2    0    0  0.23170855514E+02  0.35766584015E+02  0.26680135200E+02  0.50278889124E+02  0.00000000000E+00 0.  1.
         11    1    1    2    0    0 -0.30311437173E+02  0.68012431136E+01  0.15048402785E+03  0.15365702967E+03  0.00000000000E+00 0. -1.
</event>
<event>
 6    1  0.4988969E-006  0.1159271E+03  0.7561462E-02  0.1249971E+00
         -1   -1    0    0    0  501 -0.00000000000E+00  0.00000000000E+00  0.21384082754E+03  0.21384082754E+03  0.00000000000E+00 0.  1.
          1   -1    0    0  501    0  0.00000000000E+00 -0.00000000000E+00 -0.18323361201E+03  0.18323361201E+03  0.00000000000E+00 0. -1.
          5    1    1    2  502    0 -0.62082863015E+02 -0.43720064684E+01  0.57421275109E+02  0.84782495575E+02  0.41800000000E+01 0.  1.
         -5    1    1    2    0  502  0.40494083975E+02  0.63616579243E+02  0.11142704626E+03  0.13461166008E+03  0.41800000000E+01 0.  1.
        -11    1    1    2    0    0  0.47152225958E+02 -0.35042975179E+02 -0.12828500428E+03  0.14109707596E+03  0.00000000000E+00 0. -1.
         11    1    1    2    0    0 -0.25563446917E+02 -0.24201597595E+02 -0.99561015633E+01  0.36583207935E+02  0.00000000000E+00 0.  1.
</event>
<event>
 6    1  0.4988969E-006  0.7373009E+02  0.7561462E-02  0.1347849E+00
         -2   -1    0    0    0  501 -0.00000000000E+00  0.00000000000E+00  0.18412883049E+02  0.18412883049E+02  0.00000000000E+00 0. -1.
          2   -1    0    0  501    0  0.00000000000E+00 -0.00000000000E+00 -0.71432582236E+03  0.71432582236E+03  0.00000000000E+00 0.  1.
          5    1    1    2  502    0 -0.25635393455E+02  0.20264380460E+02 -0.41777773660E+03  0.41907460924E+03  0.41800000000E+01 0.  1.
         -5    1    1    2    0  502  0.61718606654E+01  0.16004977044E+02  0.13236829818E+01  0.17705244729E+02  0.41800000000E+01 0.  1.
        -11    1    1    2    0    0  0.14863296187E+02  0.28386024041E+02 -0.10816637765E+03  0.11281245139E+03  0.00000000000E+00 0.  1.
         11    1    1    2    0    0  0.46002366023E+01 -0.64655381546E+02 -0.17129250804E+03  0.18314640005E+03  0.00000000000E+00 0. -1.
</event>
<event>
 6    1  0.4988969E-006  0.1170601E+03  0.7561462E-02  0.1248027E+00
         -4   -1    0    0    0  501 -0.00000000000E+00  0.00000000000E+00  0.55888709183E+03  0.55888709183E+03  0.00000000000E+00 0.  1.
          4   -1    0    0  501    0  0.00000000000E+00 -0.00000000000E+00 -0.29052290445E+02  0.29052290445E+02  0.00000000000E+00 0. -1.
          5    1    1    2  502    0 -0.50392817282E+02 -0.55623220553E+02  0.15175508654E+03  0.16935305545E+03  0.41800000000E+01 0. -1.
         -5    1    1    2    0  502 -0.64121285636E+01  0.53341615773E+02  0.23458364955E+03  0.24069359029E+03  0.41800000000E+01 0. -1.
        -11    1    1    2    0    0 -0.63539272836E+01 -0.32391994856E+02  0.41878411904E+02  0.53323682414E+02  0.00000000000E+00 0.  1.
         11    1    1    2    0    0  0.63158873129E+02  0.34673599636E+02  0.10161765338E+03  0.12456905413E+03  0.00000000000E+00 0. -1.
</event>
<event>
 6    1  0.4988969E-006  0.6143162E+02  0.7561462E-02  0.1391920E+00
         -2   -1    0    0    0  501 -0.00000000000E+00  0.00000000000E+00  0.64516185959E+02  0.64516185959E+02  0.00000000000E+00 0.  1.
          2   -1    0    0  501    0  0.00000000000E+00 -0.00000000000E+00 -0.21010945448E+03  0.21010945448E+03  0.00000000000E+00 0. -1.
          5    1    1    2  502    0 -0.17618546058E+02 -0.20201716000E+02 -0.58224330741E+02  0.64234473492E+02  0.41800000000E+01 0. -1.
         -5    1    1    2    0  502  0.10994680908E+02  0.83635634892E+01  0.46116313394E+02  0.48322033935E+02  0.41800000000E+01 0.  1.
        -11    1    1    2    0    0  0.80700308725E+01 -0.34251281141E+02 -0.22195016324E+02  0.41604019129E+02  0.00000000000E+00 0.  1.
         11    1    1    2    0    0 -0.14461657226E+01  0.46089433652E+02 -0.11129023485E+03  0.12046511388E+03  0.00000000000E+00 0. -1.
</event>
<event>
 6    1  0.4988969E-006  0.2889275E+03  0.7561462E-02  0.1090910E+00
          1   -1    0    0  501    0  0.00000000000E+00  0.00000000000E+00  0.40970408236E+03  0.40970408236E+03  0.00000000000E+00 0. -1.
         -1   -1    0    0    0  501 -0.00000000000E+00 -0.00000000000E+00 -0.22445584679E+03  0.22445584679E+03  0.00000000000E+00 0.  1.
          5    1    1    2  502    0 -0.18428312909E+03 -0.13407098895E+03  0.33894568859E+02  0.23043787871E+03  0.41800000000E+01 0. -1.
         -5    1    1    2    0  502  0.13283135826E+03  0.19159944655E+03  0.31160507100E+02  0.23525086028E+03  0.41800000000E+01 0.  1.
        -11    1    1    2    0    0  0.49441772414E+02  0.89426739291E+01  0.64287710673E+02  0.81592708130E+02  0.00000000000E+00 0. -1.
         11    1    1    2    0    0  0.20099984101E+01 -0.66471131531E+02  0.55905448938E+02  0.86878482040E+02  0.00000000000E+00 0.  1.
</event>
<event>
 6    1  0.4988969E-006  0.9172388E+02  0.7561462E-02  0.1298730E+00
          4   -1    0    0  501    0  0.00000000000E+00  0.00000000000E+00  0.22815707170E+02  0.22815707170E+02  0.00000000000E+00 0. -1.
         -4   -1    0    0    0  501 -0.00000000000E+00 -0.00000000000E+00 -0.58834707511E+03  0.58834707511E+03  0.00000000000E+00 0.  1.
          5    1    1    2  502    0 -0.70813214078E+01  0.60566795985E+02 -0.11040130680E+03  0.12619192855E+03  0.41800000000E+01 0. -1.
         -5    1    1    2    0  502  0.29011136219E+02 -0.43770205579E+02 -0.28093757373E+03  0.28583363982E+03  0.41800000000E+01 0. -1.
        -11    1    1    2    0    0  0.21504702154E+02 -0.14917819969E+02 -0.14362841469E+03  0.14599354463E+03  0.00000000000E+00 0.  1.
         11    1    1    2    0    0 -0.43434516965E+02 -0.18787704374E+01 -0.30564072714E+02  0.53143669267E+02  0.00000000000E+00 0. -1.
</event>
<event>
 6    1  0.4988969E-006  0.9945088E+02  0.7561462E-02  0.1281455E+00
          1   -1    0    0  501    0  0.00000000000E+00  0.00000000000E+00  0.90632714482E+03  0.90632714482E+03  0.00000000000E+00 0. -1.
         -1   -1    0    0    0  501 -0.00000000000E+00 -0.00000000000E+00 -0.19954305498E+02  0.19954305498E+02  0.00000000000E+00 0.  1.
          5    1    1    2  502    0  0.58634573578E+02 -0.54352070631E+02  0.13285617790E+03  0.15511414251E+03  0.41800000000E+01 0.  1.
         -5    1    1    2    0  502  0.71842044673E+01  0.84500537209E+01  0.34761813444E+03  0.34782014892E+03  0.41800000000E+01 0.  1.
        -11    1    1    2    0    0 -0.67661497355E+02  0.69771068292E+01  0.34042834822E+03  0.34715733971E+03  0.00000000000E+00 0.  1.
         11    1    1    2    0    0  0.18427193090E+01  0.38924910081E+02  0.65470178758E+02  0.76189819175E+02  0.00000000000E+00 0. -1.
</event>
<event>
 6    1  0.4988969E-006  0.1532630E+03  0.7561462E-02  0.1196520E+00
          2   -1    0    0  501    0  0.00000000000E+00  0.00000000000E+00  0.45945402952E+02  0.45945402952E+02  0.00000000000E+00 0. -1.
         -2   -1    0    0    0  501 -0.00000000000E+00 -0.00000000000E+00 -0.70115372630E+03  0.70115372630E+03  0.00000000000E+00 0.  1.
          5    1    1    2  502    0  0.13713614302E+02  0.56095077644E+02 -0.32224990649E+03  0.32740982817E+03  0.41800000000E+01 0. -1.
         -5    1    1    2    0  502 -0.42433144230E+02  0.78002408356E+02 -0.99764502337E+02  0.13362400894E+03  0.41800000000E+01 0. -1.
        -11    1    1    2    0    0 -0.84465429822E+01  0.87306975180E+01 -0.46619472021E+02  0.48176180203E+02  0.00000000000E+00 0.  1.
         11    1    1    2    0    0  0.37166072911E+02 -0.14282818352E+03 -0.18657444250E+03  0.23788911193E+03  0.00000000000E+00 0. -1.
</event>
<event>
 6    1  0.4988969E-006  0.1134376E+03  0.7561462E-02  0.1254333E+00
          2   -1    0    0  501    0  0.00000000000E+00  0.00000000000E+00  0.10090523393E+03  0.10090523393E+03  0.00000000000E+00 0. -1.
         -2   -1    0    0    0  501 -0.00000000000E+00 -0.00000000000E+00 -0.16388682240E+03  0.16388682240E+03  0.00000000000E+00 0.  1.
          5    1    1    2  502    0  0.37661282473E+02  0.28419504766E+02 -0.54500530164E+02  0.72206790794E+02  0.41800000000E+01 0.  1.
         -5    1    1    2    0  502  0.11326786665E+02 -0.77014473414E+02  0.71808790459E+01  0.78285136745E+02  0.41800000000E+01 0.  1.
        -11    1    1    2    0    0 -0.61322202871E+02  0.11406646772E+02 -0.34001894517E+02  0.71039798608E+02  0.00000000000E+00 0.  1.
         11    1    1    2    0    0  0.12334133733E+02  0.37188321876E+02  0.18339957158E+02  0.43260330182E+02  0.00000000000E+00 0. -1.
</event>
<event>
 6    1  0.4988969E-006  0.1281408E+03  0.7561462E-02  0.1230241E+00
         -1   -1    0    0    0  501 -0.00000000000E+00  0.00000000000E+00  0.51989099330E+02  0.51989099330E+02  0.00000000000E+00 0.  1.
          1   -1    0    0  501    0  0.00000000000E+00 -0.00000000000E+00 -0.47795821833E+03  0.47795821833E+03  0.00000000000E+00 0. -1.
          5    1    1    2  502    0  0.52347707950E+02 -0.19892961532E+02 -0.17806409194E+03  0.18670914730E+03  0.41800000000E+01 0.  1.
         -5    1    1    2    0  502  0.55111457820E+02  0.54951825830E+02 -0.36209785714E+02  0.85939495731E+02  0.41800000000E+01 0.  1.
        -11    1    1    2    0    0 -0.70473784369E+02 -0.45340369044E+02 -0.20050646110E+03  0.21731347011E+03  0.00000000000E+00 0. -1.
         11    1    1    2    0    0 -0.36985381401E+02  0.10281504746E+02 -0.11188780244E+02  0.39985204521E+02  0.00000000000E+00 0.  1.
</event>
<event>
 6    1  0.1267412E-005  0.2537155E+03  0.7561462E-02  0.1110979E+00
         -1   -1    0    0    0  501 -0.00000000000E+00  0.00000000000E+00  0.36395718440E+03  0.36395718440E+03  0.00000000000E+00 0.  1.
          1   -1    0    0  501    0  0.00000000000E+00 -0.00000000000E+00 -0.39067000917E+03  0.39067000917E+03  0.00000000000E+00 0. -1.
          5    1    1    2  502    0 -0.36400437084E+02 -0.14705317773E+02  0.11990616132E+02  0.41261185949E+02  0.41800000000E+01 0. -1.
         -5    1    1    2    0  502  0.68147882106E+02  0.49479252707E+02 -0.33572144459E+01  0.84386453728E+02  0.41800000000E+01 0.  1.
        -11    1    1    2    0    0 -0.15758393976E+03  0.10972373100E+03  0.23130592284E+03  0.30062339422E+03  0.00000000000E+00 0.  1.
         11    1    1    2    0    0  0.12583649474E+03 -0.14449766593E+03 -0.26665214929E+03  0.32835615967E+03  0.00000000000E+00 0. -1.
</event>
<event>
 6    1  0.4988969E-006  0.1366016E+03  0.7561462E-02  0.1217976E+00
         -2   -1    0    0    0  501 -0.00000000000E+00  0.00000000000E+00  0.38279859655E+03  0.38279859655E+03  0.00000000000E+00 0.  1.
          2   -1    0    0  501    0  0.00000000000E+00 -0.00000000000E+00 -0.79796150850E+02  0.79796150850E+02  0.00000000000E+00 0. -1.
          5    1    1    2  502    0  0.20436899804E+02 -0.51670018635E+02  0.31580914851E+02  0.64049077137E+02  0.41800000000E+01 0. -1.
         -5    1    1    2    0  502  0.64196548126E+02  0.56109274679E+02  0.24784759441E+03  0.26213612866E+03  0.41800000000E+01 0.  1.
        -11    1    1    2    0    0 -0.15938135990E+02  0.44831297681E+02 -0.33231165068E+01  0.47696043168E+02  0.00000000000E+00 0.  1.
         11    1    1    2    0    0 -0.68695311940E+02 -0.49270553725E+02  0.26897052951E+02  0.88713498434E+02  0.00000000000E+00 0. -1.
</event>
<event>
 6    1  0.4988969E-006  0.1210303E+03  0.7561462E-02  0.1241407E+00
          1   -1    0    0  501    0  0.00000000000E+00  0.00000000000E+00  0.13386082939E+03  0.13386082939E+03  0.00000000000E+00 0.  1.
         -1   -1    0    0    0  501 -0.00000000000E+00 -0.00000000000E+00 -0.20333277396E+03  0.20333277396E+03  0.00000000000E+00 0. -1.
          5    1    1    2  502    0 -0.64421146920E+01  0.66158688256E+01  0.21926870176E+02  0.24156377993E+02  0.41800000000E+01 0.  1.
         -5    1    1    2    0  502  0.10174240414E+03  0.18263797425E+02 -0.13991284629E+03  0.17400620694E+03  0.41800000000E+01 0.  1.
        -11    1    1    2    0    0 -0.56775210041E+02 -0.55396912104E+02  0.41062633240E+02  0.89321790143E+02  0.00000000000E+00 0. -1.
         11    1    1    2    0    0 -0.38525079411E+02  0.30517245853E+02  0.74513983113E+01  0.49709228267E+02  0.00000000000E+00 0.  1.
</event>
<event>
 6    1  0.4988969E-006  0.2324605E+03  0.7561462E-02  0.1124920E+00
         -1   -1    0    0    0  501 -0.00000000000E+00  0.00000000000E+00  0.24341913099E+03  0.24341913099E+03  0.00000000000E+00 0.  1.
          1   -1    0    0  501    0  0.00000000000E+00 -0.00000000000E+00 -0.29037338230E+03  0.29037338230E+03  0.00000000000E+00 0. -1.
          5    1    1    2  502    0 -0.12839999291E+03  0.28341310334E+01  0.88152195151E+02  0.15582962615E+03  0.41800000000E+01 0.  1.
         -5    1    1    2    0  502 -0.72784195540E+02 -0.79761806792E+02 -0.97378461298E+00  0.10806435860E+03  0.41800000000E+01 0.  1.
        -11    1    1    2    0    0  0.12420553417E+03  0.70631165199E+01 -0.42925738376E+02  0.13160365249E+03  0.00000000000E+00 0.  1.
         11    1    1    2    0    0  0.76978654277E+02  0.69864559239E+02 -0.91206923466E+02  0.13829487604E+03  0.00000000000E+00 0. -1.
</event>
<event>
 6    1  0.4988969E-006  0.1005761E+03  0.7561462E-02  0.1279089E+00
         -1   -1    0    0    0  501 -0.00000000000E+00  0.00000000000E+00  0.27217822509E+02  0.27217822509E+02  0.00000000000E+00 0.  1.
          1   -1    0    0  501    0  0.00000000000E+00 -0.00000000000E+00 -0.55000962254E+03  0.55000962254E+03  0.00000000000E+00 0. -1.
          5    1    1    2  502    0 -0.14494082047E+02 -0.86334802186E+01 -0.19059393596E+03  0.19138478576E+03  0.41800000000E+01 0. -1.
         -5    1    1    2    0  502  0.85522394654E+02  0.18830808712E+02 -0.99765110380E+02  0.13281275915E+03  0.41800000000E+01 0. -1.
        -11    1    1    2    0    0 -0.35085075866E+02  0.27077828514E+02 -0.14274941378E+03  0.14947095531E+03  0.00000000000E+00 0.  1.
         11    1    1    2    0    0 -0.35943236742E+02 -0.37275157007E+02 -0.89683339909E+02  0.10355894483E+03  0.00000000000E+00 0. -1.
</event>
<event>
 6    1  0.4988969E-006  0.1760983E+03  0.7561462E-02  0.1171633E+00
          1   -1    0    0  501    0  0.00000000000E+00  0.00000000000E+00  0.11309800268E+04  0.11309800268E+04  0.00000000000E+00 0. -1.
         -1   -1    0    0    0  501 -0.00000000000E+00 -0.00000000000E+00 -0.29510640635E+02  0.29510640635E+02  0.00000000000E+00 0.  1.
          5    1    1    2  502    0  0.26409265127E+01 -0.54864573503E+02  0.85432333227E+02  0.10165260390E+03  0.41800000000E+01 0.  1.
         -5    1    1    2    0  502 -0.54756348430E+02  0.47285735319E+02  0.24721251716E+03  0.25761541005E+03  0.41800000000E+01 0.  1.
        -11    1    1    2    0    0  0.11690960737E+03  0.68672447001E+02  0.42852365732E+03  0.44946221883E+03  0.00000000000E+00 0.  1.
         11    1    1    2    0    0 -0.64794185455E+02 -0.61093608817E+02  0.34030087848E+03  0.35176043468E+03  0.00000000000E+00 0. -1.
</event>
<event>
 6    1  0.4988969E-006  0.1402190E+03  0.7561462E-02  0.1213035E+00
          2   -1    0    0  501    0  0.00000000000E+00  0.00000000000E+00  0.60919029222E+03  0.60919029222E+03  0.00000000000E+00 0. -1.
         -2   -1    0    0    0  501 -0.00000000000E+00 -0.00000000000E+00 -0.41926905495E+02  0.41926905495E+02  0.00000000000E+00 0.  1.
          5    1    1    2  502    0 -0.23280064602E+02  0.69914359106E+02  0.55528821773E+02  0.92362879257E+02  0.41800000000E+01 0. -1.
         -5    1    1    2    0  502  0.73679226914E+02  0.30740769249E+02  0.18149441133E+03  0.19832124726E+03  0.41800000000E+01 0. -1.
        -11    1    1    2    0    0 -0.46726292837E+02 -0.29119960638E+02  0.23442218833E+03  0.24080091555E+03  0.00000000000E+00 0.  1.
         11    1    1    2    0    0 -0.36728694750E+01 -0.71535167718E+02  0.95817965297E+02  0.11963215565E+03  0.00000000000E+00 0. -1.
</event>
<event>
 6    1  0.4988969E-006  0.1163210E+03  0.7561462E-02  0.1249293E+00
         -1   -1    0    0    0  501 -0.00000000000E+00  0.00000000000E+00  0.33733360234E+03  0.33733360234E+03  0.00000000000E+00 0.  1.
          1   -1    0    0  501    0  0.00000000000E+00 -0.00000000000E+00 -0.65166920276E+02  0.65166920276E+02  0.00000000000E+00 0. -1.
          5    1    1    2  502    0  0.41609731499E+02  0.84238937126E+02  0.15679832922E+03  0.18284079613E+03  0.41800000000E+01 0. -1.
         -5    1    1    2    0  502 -0.27335265069E+02 -0.30484522091E+02  0.10100933950E+03  0.10907282828E+03  0.41800000000E+01 0. -1.
        -11    1    1    2    0    0  0.88175995516E+01 -0.69132038272E+02 -0.13812502677E+02  0.71047688264E+02  0.00000000000E+00 0. -1.
         11    1    1    2    0    0 -0.23092065981E+02  0.15377623238E+02  0.28171516027E+02  0.39539209944E+02  0.00000000000E+00 0.  1.
</event>
<event>
 6    1  0.4988969E-006  0.1323512E+03  0.7561462E-02  0.1224008E+00
         -1   -1    0    0    0  501 -0.00000000000E+00  0.00000000000E+00  0.70345186401E+03  0.70345186401E+03  0.00000000000E+00 0.  1.
          1   -1    0    0  501    0  0.00000000000E+00 -0.00000000000E+00 -0.38941199066E+02  0.38941199066E+02  0.00000000000E+00 0. -1.
          5    1    1    2  502    0  0.74902333135E+02  0.29731118671E+02  0.17303840756E+03  0.19092946818E+03  0.41800000000E+01 0. -1.
         -5    1    1    2    0  502  0.14895958895E+02 -0.52355752138E+02  0.36878778967E+03  0.37280681403E+03  0.41800000000E+01 0. -1.
        -11    1    1    2    0    0 -0.92293130443E+02 -0.13436179144E+02  0.94965217095E+02  0.13310501604E+03  0.00000000000E+00 0. -1.
         11    1    1    2    0    0  0.24948384136E+01  0.36060812611E+02  0.27719250616E+02  0.45551764835E+02  0.00000000000E+00 0.  1.
</event>
<event>
 6    1  0.4988969E-006  0.1705481E+03  0.7561462E-02  0.1177277E+00
          2   -1    0    0  501    0  0.00000000000E+00  0.00000000000E+00  0.39311636730E+03  0.39311636730E+03  0.00000000000E+00 0.  1.
         -2   -1    0    0    0  501 -0.00000000000E+00 -0.00000000000E+00 -0.83735971381E+02  0.83735971381E+02  0.00000000000E+00 0. -1.
          5    1    1    2  502    0 -0.88135461166E+01 -0.20424607572E+02  0.86080800360E+01  0.24215999495E+02  0.41800000000E+01 0. -1.
         -5    1    1    2    0  502  0.74151409890E+02  0.14978086038E+03  0.13931027616E+03  0.21761792934E+03  0.41800000000E+01 0. -1.
        -11    1    1    2    0    0 -0.68301086703E+00 -0.44950141361E+02  0.10591256212E+03  0.11505847438E+03  0.00000000000E+00 0.  1.
         11    1    1    2    0    0 -0.64654852906E+02 -0.84406111450E+02  0.55549477601E+02  0.11995993546E+03  0.00000000000E+00 0. -1.
</event>
<event>
 6    1  0.4988969E-006  0.1805779E+03  0.7561462E-02  0.1167245E+00
          3   -1    0    0  501    0  0.00000000000E+00  0.00000000000E+00  0.77468174767E+02  0.77468174767E+02  0.00000000000E+00 0. -1.
         -3   -1    0    0    0  501 -0.00000000000E+00 -0.00000000000E+00 -0.65819685503E+03  0.65819685503E+03  0.00000000000E+00 0.  1.
          5    1    1    2  502    0  0.83134202954E+02 -0.10212360180E+03 -0.43971499397E+03  0.45902862009E+03  0.41800000000E+01 0.  1.
         -5    1    1    2    0  502 -0.30558078119E+02 -0.41516469036E+02 -0.65530333188E+02  0.83481197328E+02  0.41800000000E+01 0.  1.
        -11    1    1    2    0    0 -0.69990683042E+02  0.59803210349E+02 -0.42478532397E+02  0.10138809297E+03  0.00000000000E+00 0.  1.
         11    1    1    2    0    0  0.17414558208E+02  0.83836860488E+02 -0.33004820707E+02  0.91767119405E+02  0.00000000000E+00 0. -1.
</event>
<event>
 6    1  0.4988969E-006  0.1112165E+03  0.7561462E-02  0.1258334E+00
         -3   -1    0    0    0  501 -0.00000000000E+00  0.00000000000E+00  0.21450207150E+03  0.21450207150E+03  0.00000000000E+00 0.  1.
          3   -1    0    0  501    0  0.00000000000E+00 -0.00000000000E+00 -0.90063621850E+02  0.90063621850E+02  0.00000000000E+00 0. -1.
          5    1    1    2  502    0  0.69134722317E+01  0.32165875719E+02  0.71352521584E+02  0.78683507773E+02  0.41800000000E+01 0.  1.
         -5    1    1    2    0  502  0.80453161376E+02 -0.35612380211E+02 -0.39340098466E+01  0.88169731955E+02  0.41800000000E+01 0.  1.
        -11    1    1    2    0    0 -0.42886661501E+01  0.16536228926E+02  0.50552859779E+02  0.53361326410E+02  0.00000000000E+00 0.  1.
         11    1    1    2    0    0 -0.83077967457E+02 -0.13089724434E+02  0.64670781357E+01  0.84351127213E+02  0.00000000000E+00 0. -1.
</event>
<event>
 6    1  0.4988969E-006  0.1712448E+03  0.7561462E-02  0.1176556E+00
          2   -1    0    0  501    0  0.00000000000E+00  0.00000000000E+00  0.82719429976E+03  0.82719429976E+03  0.00000000000E+00 0. -1.
         -2   -1    0    0    0  501 -0.00000000000E+00 -0.00000000000E+00 -0.53618985069E+02  0.53618985069E+02  0.00000000000E+00 0.  1.
          5    1    1    2  502    0 -0.55598332410E+02 -0.10082901709E+03  0.99563891641E+02  0.15227641371E+03  0.41800000000E+01 0. -1.
         -5    1    1    2    0  502 -0.66702947359E+02  0.30244947805E+02  0.68904050087E+02  0.10064432708E+03  0.41800000000E+01 0. -1.
        -11    1    1    2    0    0  0.45306981601E+02  0.61496628406E+02  0.17634685323E+03  0.19217900648E+03  0.00000000000E+00 0.  1.
         11    1    1    2    0    0  0.76994298167E+02  0.90874408825E+01  0.42876051973E+03  0.43571353756E+03  0.00000000000E+00 0. -1.
</event>
<event>
 6    1  0.4988969E-006  0.1367977E+03  0.7561462E-02  0.1217704E+00
          1   -1    0    0  501    0  0.00000000000E+00  0.00000000000E+00  0.55301375310E+02  0.55301375310E+02  0.00000000000E+00 0. -1.
         -1   -1    0    0    0  501 -0.00000000000E+00 -0.00000000000E+00 -0.45152671619E+03  0.45152671619E+03  0.00000000000E+00 0.  1.
          5    1    1    2  502    0 -0.88389874858E+01  0.54960095036E+02 -0.61936157159E+02  0.83380451605E+02  0.41800000000E+01 0. -1.
         -5    1    1    2    0  502 -0.89162145789E+02 -0.34807475143E+02 -0.23996923119E+03  0.25838760203E+03  0.41800000000E+01 0. -1.
        -11    1    1    2    0    0  0.17305088134E+02 -0.35803203345E+02  0.24018456020E+00  0.39766734008E+02  0.00000000000E+00 0. -1.
         11    1    1    2    0    0  0.80696045141E+02  0.15650583451E+02 -0.94560137100E+02  0.12529330386E+03  0.00000000000E+00 0.  1.
</event>
<event>
 6    1  0.4988969E-006  0.7810902E+02  0.7561462E-02  0.1334505E+00
          4   -1    0    0  501    0  0.00000000000E+00  0.00000000000E+00  0.13846375568E+03  0.13846375568E+03  0.00000000000E+00 0. -1.
         -4   -1    0    0    0  501 -0.00000000000E+00 -0.00000000000E+00 -0.24334229697E+03  0.24334229697E+03  0.00000000000E+00 0.  1.
          5    1    1    2  502    0  0.18509412376E+01  0.16535277374E+02  0.15616696079E+02  0.23199029672E+02  0.41800000000E+01 0. -1.
         -5    1    1    2    0  502 -0.57182593175E+02  0.29791784836E+02 -0.20516536426E+03  0.21509927591E+03  0.41800000000E+01 0. -1.
        -11    1    1    2    0    0  0.23980556313E+02 -0.87872591275E+01 -0.17003294959E+02  0.30682161650E+02  0.00000000000E+00 0. -1.
         11    1    1    2    0    0  0.31351095625E+02 -0.37539803082E+02  0.10167342185E+03  0.11282558541E+03  0.00000000000E+00 0.  1.
</event>
<event>
 6    1  0.4988969E-006  0.8153820E+02  0.7561462E-02  0.1324742E+00
          1   -1    0    0  501    0  0.00000000000E+00  0.00000000000E+00  0.34936460576E+02  0.34936460576E+02  0.00000000000E+00 0. -1.
         -1   -1    0    0    0  501 -0.00000000000E+00 -0.00000000000E+00 -0.38175530724E+03  0.38175530724E+03  0.00000000000E+00 0.  1.
          5    1    1    2  502    0 -0.10591424549E+02 -0.28153850934E+02  0.18179527087E+01  0.30423591972E+02  0.41800000000E+01 0.  1.
         -5    1    1    2    0  502 -0.24123733210E+02  0.48837259581E+02 -0.20050518208E+03  0.20781441930E+03  0.41800000000E+01 0.  1.
        -11    1    1    2    0    0  0.24965470303E+02 -0.45231086802E+02 -0.14232260336E+03  0.15140954180E+03  0.00000000000E+00 0.  1.
         11    1    1    2    0    0  0.97496874560E+01  0.24547678156E+02 -0.58090139331E+01  0.27044214746E+02  0.00000000000E+00 0. -1.
</event>
<event>
 6    1  0.4988969E-006  0.1855511E+03  0.7561462E-02  0.1162536E+00
         -1   -1    0    0    0  501 -0.00000000000E+00  0.00000000000E+00  0.81385967961E+02  0.81385967961E+02  0.00000000000E+00 0.  1.
          1   -1    0    0  501    0  0.00000000000E+00 -0.00000000000E+00 -0.96465897625E+03  0.96465897625E+03  0.00000000000E+00 0. -1.
          5    1    1    2  502    0  0.25101801304E+02 -0.64681431844E+02  0.20157932933E+02  0.72371283768E+02  0.41800000000E+01 0. -1.
         -5    1    1    2    0  502 -0.45006723243E+02 -0.10168978583E+03 -0.10592730403E+03  0.15363750785E+03  0.41800000000E+01 0. -1.
        -11    1    1    2    0    0 -0.28883933614E+02  0.17783720017E+02 -0.11884276872E+03  0.12358861596E+03  0.00000000000E+00 0. -1.
         11    1    1    2    0    0  0.48788855553E+02  0.14858749765E+03 -0.67866086848E+03  0.69644753664E+03  0.00000000000E+00 0.  1.
</event>
<event>
 6    1  0.4988969E-006  0.1178562E+03  0.7561462E-02  0.1246676E+00
          1   -1    0    0  501    0  0.00000000000E+00  0.00000000000E+00  0.53680682253E+03  0.53680682253E+03  0.00000000000E+00 0. -1.
         -1   -1    0    0    0  501 -0.00000000000E+00 -0.00000000000E+00 -0.43834306954E+02  0.43834306954E+02  0.00000000000E+00 0.  1.
          5    1    1    2  502    0  0.52413683905E+02  0.65176346306E+00  0.39668206388E+02  0.65868490601E+02  0.41800000000E+01 0. -1.
         -5    1    1    2    0  502 -0.55586335249E+02 -0.73221107371E+02  0.75185014084E+02  0.11883362308E+03  0.41800000000E+01 0. -1.
        -11    1    1    2    0    0 -0.22334236169E+02  0.11937378892E+02  0.21251821551E+02  0.33059931024E+02  0.00000000000E+00 0.  1.
         11    1    1    2    0    0  0.25506887513E+02  0.60631965016E+02  0.35686747355E+03  0.36287908478E+03  0.00000000000E+00 0. -1.
</event>
<event>
 6    1  0.4988969E-006  0.8174259E+02  0.7561462E-02  0.1324178E+00
          2   -1    0    0  501    0  0.00000000000E+00  0.00000000000E+00  0.13907904814E+03  0.13907904814E+03  0.00000000000E+00 0. -1.
         -2   -1    0    0    0  501 -0.00000000000E+00 -0.00000000000E+00 -0.80639319923E+02  0.80639319923E+02  0.00000000000E+00 0.  1.
          5    1    1    2  502    0 -0.10801068062E+02  0.51814580582E+02 -0.23859301394E+02  0.58207838778E+02  0.41800000000E+01 0. -1.
         -5    1    1    2    0  502  0.18348439300E+02 -0.49120864753E+02  0.44344234992E+02  0.68799768574E+02  0.41800000000E+01 0. -1.
        -11    1    1    2    0    0  0.13084735039E+02  0.22008630279E+02 -0.15778425079E+02  0.30075717710E+02  0.00000000000E+00 0.  1.
         11    1    1    2    0    0 -0.20632106277E+02 -0.24702346109E+02  0.53733219701E+02  0.62635043004E+02  0.00000000000E+00 0. -1.
</event>
<event>
 6    1  0.4988969E-006  0.1371978E+03  0.7561462E-02  0.1217150E+00
         -1   -1    0    0    0  501 -0.00000000000E+00  0.00000000000E+00  0.15343161522E+03  0.15343161522E+03  0.00000000000E+00 0.  1.
          1   -1    0    0  501    0  0.00000000000E+00 -0.00000000000E+00 -0.14320232456E+03  0.14320232456E+03  0.00000000000E+00 0. -1.
          5    1    1    2  502    0  0.19122375291E+02 -0.60440786809E+02  0.29826473361E+02  0.70184363358E+02  0.41800000000E+01 0. -1.
         -5    1    1    2    0  502 -0.90247337471E+02 -0.10422592211E+02 -0.97619935148E+01  0.91465738210E+02  0.41800000000E+01 0. -1.
        -11    1    1    2    0    0  0.32034498065E+02 -0.70050098025E+01  0.24912148222E+02  0.41181237932E+02  0.00000000000E+00 0.  1.
         11    1    1    2    0    0  0.39090464115E+02  0.77868388822E+02 -0.34747337410E+02  0.93802600282E+02  0.00000000000E+00 0. -1.
</event>
<event>
 6    1  0.4988969E-006  0.2012867E+03  0.7561462E-02  0.1148658E+00
         -1   -1    0    0    0  501 -0.00000000000E+00  0.00000000000E+00  0.61491502348E+02  0.61491502348E+02  0.00000000000E+00 0.  1.
          1   -1    0    0  501    0  0.00000000000E+00 -0.00000000000E+00 -0.83490479291E+03  0.83490479291E+03  0.00000000000E+00 0. -1.
          5    1    1    2  502    0  0.31306594058E+02 -0.13979878669E+02 -0.30764175140E+02  0.46254153448E+02  0.41800000000E+01 0.  1.
         -5    1    1    2    0  502 -0.11216802040E+03 -0.14208774146E+03 -0.18446240960E+03  0.25848490097E+03  0.41800000000E+01 0.  1.
        -11    1    1    2    0    0 -0.91188570631E+01  0.34675233508E+02 -0.19536451605E+03  0.19862733826E+03  0.00000000000E+00 0. -1.
         11    1    1    2    0    0  0.89980283403E+02  0.12139238663E+03 -0.36282218977E+03  0.39302990258E+03  0.00000000000E+00 0.  1.
</event>
<event>
 6    1  0.4988969E-006  0.2215171E+03  0.7561462E-02  0.1132757E+00
         -2   -1    0    0    0  501 -0.00000000000E+00  0.00000000000E+00  0.48000859642E+02  0.48000859642E+02  0.00000000000E+00 0.  1.
          2   -1    0    0  501    0  0.00000000000E+00 -0.00000000000E+00 -0.11806356885E+04  0.11806356885E+04  0.00000000000E+00 0. -1.
          5    1    1    2  502    0 -0.56029093474E+02 -0.19284955669E+03 -0.50836348609E+03  0.54660874235E+03  0.41800000000E+01 0. -1.
         -5    1    1    2    0  502  0.10036091476E+02 -0.11413220227E+02  0.15488767599E+01  0.15838438916E+02  0.41800000000E+01 0. -1.
        -11    1    1    2    0    0 -0.21216623163E+02  0.16204857065E+02 -0.49377335519E+02  0.56132555205E+02  0.00000000000E+00 0.  1.
         11    1    1    2    0    0  0.67209625162E+02  0.18805791985E+03 -0.57644288402E+03  0.61005681167E+03  0.00000000000E+00 0. -1.
</event>
<event>
 6    1  0.4988969E-006  0.2170698E+03  0.7561462E-02  0.1136087E+00
         -2   -1    0    0    0  501 -0.00000000000E+00  0.00000000000E+00  0.20784188814E+03  0.20784188814E+03  0.00000000000E+00 0.  1.
          2   -1    0    0  501    0  0.00000000000E+00 -0.00000000000E+00 -0.56713813764E+03  0.56713813764E+03  0.00000000000E+00 0. -1.
          5    1    1    2  502    0 -0.22073893970E+02 -0.39070856695E+02 -0.17206535654E+03  0.17787003109E+03  0.41800000000E+01 0. -1.
         -5    1    1    2    0  502 -0.16903370318E+03 -0.15112724864E+02  0.12826316312E+03  0.21276677061E+03  0.41800000000E+01 0.  1.
        -11    1    1    2    0    0 -0.71508110159E+01  0.15838727467E+02 -0.20839483383E+02  0.27134543549E+02  0.00000000000E+00 0.  1.
         11    1    1    2    0    0  0.19825840817E+03  0.38344854092E+02 -0.29465457269E+03  0.35720868054E+03  0.00000000000E+00 0. -1.
</event>
<event>
 6    1  0.4988969E-006  0.9757692E+02  0.7561462E-02  0.1285475E+00
          1   -1    0    0  501    0  0.00000000000E+00  0.00000000000E+00  0.12292567305E+03  0.12292567305E+03  0.00000000000E+00 0. -1.
         -1   -1    0    0    0  501 -0.00000000000E+00 -0.00000000000E+00 -0.96374804049E+02  0.96374804049E+02  0.00000000000E+00 0.  1.
          5    1    1    2  502    0 -0.57208020306E+02  0.48558244816E+02 -0.10438196989E+02  0.75875484074E+02  0.41800000000E+01 0. -1.
         -5    1    1    2    0  502  0.24568608682E+02 -0.31207372797E+02  0.10172197335E+02  0.41212408909E+02  0.41800000000E+01 0.  1.
        -11    1    1    2    0    0  0.54837006789E+02 -0.18395689250E+02  0.45172534033E+02  0.73389757647E+02  0.00000000000E+00 0. -1.
         11    1    1    2    0    0 -0.22197595165E+02  0.10448172302E+01 -0.18355665379E+02  0.28822826469E+02  0.00000000000E+00 0.  1.
</event>
<event>
 6    1  0.4988969E-006  0.1140660E+03  0.7561462E-02  0.1253220E+00
         -1   -1    0    0    0  501 -0.00000000000E+00  0.00000000000E+00  0.20555631828E+03  0.20555631828E+03  0.00000000000E+00 0.  1.
          1   -1    0    0  501    0  0.00000000000E+00 -0.00000000000E+00 -0.86716514274E+02  0.86716514274E+02  0.00000000000E+00 0. -1.
          5    1    1    2  502    0  0.25412558955E+02 -0.36748967274E+02  0.44765409139E+02  0.63385321674E+02  0.41800000000E+01 0.  1.
         -5    1    1    2    0  502 -0.93881366532E+02  0.23967019368E+02  0.60251248655E+02  0.11417449086E+03  0.41800000000E+01 0.  1.
        -11    1    1    2    0    0  0.46542937031E+02 -0.16774397962E+02 -0.29710144287E+02  0.57708908220E+02  0.00000000000E+00 0. -1.
         11    1    1    2    0    0  0.21925870547E+02  0.29556345868E+02  0.43533290501E+02  0.57004111800E+02  0.00000000000E+00 0.  1.
</event>
<event>
 6    1  0.4988969E-006  0.1177544E+03  0.7561462E-02  0.1246848E+00
          2   -1    0    0  501    0  0.00000000000E+00  0.00000000000E+00  0.62018819175E+03  0.62018819175E+03  0.00000000000E+00 0. -1.
         -2   -1    0    0    0  501 -0.00000000000E+00 -0.00000000000E+00 -0.29587669120E+02  0.29587669120E+02  0.00000000000E+00 0.  1.
          5    1    1    2  502    0  0.14938396608E+02  0.10150640678E+03  0.15991586013E+03  0.19004541834E+03  0.41800000000E+01 0. -1.
         -5    1    1    2    0  502  0.28869756699E+01 -0.38192711765E+02  0.53777916438E+02  0.66155533079E+02  0.41800000000E+01 0. -1.
        -11    1    1    2    0    0  0.17569585245E+02 -0.55272905091E+02  0.32561178142E+03  0.33073677837E+03  0.00000000000E+00 0. -1.
         11    1    1    2    0    0 -0.35394957523E+02 -0.80407899277E+01  0.51294964637E+02  0.62838131082E+02  0.00000000000E+00 0.  1.
</event>
<event>
 6    1  0.4988969E-006  0.1292098E+03  0.7561462E-02  0.1228633E+00
          1   -1    0    0  501    0  0.00000000000E+00  0.00000000000E+00  0.27771162485E+02  0.27771162485E+02  0.00000000000E+00 0. -1.
         -1   -1    0    0    0  501 -0.00000000000E+00 -0.00000000000E+00 -0.15381212772E+04  0.15381212772E+04  0.00000000000E+00 0.  1.
          5    1    1    2  502    0 -0.33183992590E+02 -0.72150861620E+02 -0.49877084451E+03  0.50507103652E+03  0.41800000000E+01 0.  1.
         -5    1    1    2    0  502 -0.50390259004E+02  0.40001464206E+02 -0.85084231319E+03  0.85328155356E+03  0.41800000000E+01 0.  1.
        -11    1    1    2    0    0  0.29333495175E+02  0.49442865822E+02 -0.13154969993E+03  0.14356313757E+03  0.00000000000E+00 0.  1.
         11    1    1    2    0    0  0.54240756419E+02 -0.17293468407E+02 -0.29187257106E+02  0.63976712043E+02  0.00000000000E+00 0. -1.
</event>
<event>
 6    1  0.4988969E-006  0.7906074E+02  0.7561462E-02  0.1331738E+00
         -3   -1    0    0    0  501 -0.00000000000E+00  0.00000000000E+00  0.63566067232E+02  0.63566067232E+02  0.00000000000E+00 0.  1.
          3   -1    0    0  501    0  0.00000000000E+00 -0.00000000000E+00 -0.24066465147E+03  0.24066465147E+03  0.00000000000E+00 0. -1.
          5    1    1    2  502    0  0.25712865077E+02  0.35834492908E+02 -0.76196923152E+02  0.88140262141E+02  0.41800000000E+01 0. -1.
         -5    1    1    2    0  502 -0.69521009419E+01 -0.21732916410E+02  0.38192958921E+02  0.44685857655E+02  0.41800000000E+01 0. -1.
        -11    1    1    2    0    0 -0.57685236389E+01  0.37228324541E+02 -0.96026794494E+02  0.10315216563E+03  0.00000000000E+00 0. -1.
         11    1    1    2    0    0 -0.12992240496E+02 -0.51329901039E+02 -0.43067825511E+02  0.68252433276E+02  0.00000000000E+00 0.  1.
</event>
<event>
 6    1  0.4988969E-006  0.1176878E+03  0.7561462E-02  0.1246961E+00
          1   -1    0    0  501    0  0.00000000000E+00  0.00000000000E+00  0.26261207006E+03  0.26261207006E+03  0.00000000000E+00 0. -1.
         -1   -1    0    0    0  501 -0.00000000000E+00 -0.00000000000E+00 -0.10144788228E+03  0.10144788228E+03  0.00000000000E+00 0.  1.
          5    1    1    2  502    0  0.50993281647E+02  0.86268004861E+02  0.45741924993E+02  0.11023737813E+03  0.41800000000E+01 0.  1.
         -5    1    1    2    0  502 -0.17600384699E+02  0.21992142247E+01 -0.42881862569E+02  0.46593310916E+02  0.41800000000E+01 0.  1.
        -11    1    1    2    0    0  0.14888493292E+02 -0.57727723443E+02  0.30004426177E+02  0.66741462949E+02  0.00000000000E+00 0.  1.
         11    1    1    2    0    0 -0.48281390241E+02 -0.30739495643E+02  0.12829969917E+03  0.14048780034E+03  0.00000000000E+00 0. -1.
</event>
<event>
 6    1  0.4988969E-006  0.1701586E+03  0.7561462E-02  0.1177683E+00
          3   -1    0    0  501    0  0.00000000000E+00  0.00000000000E+00  0.19209920281E+03  0.19209920281E+03  0.00000000000E+00 0. -1.
         -3   -1    0    0    0  501 -0.00000000000E+00 -0.00000000000E+00 -0.15602020670E+03  0.15602020670E+03  0.00000000000E+00 0.  1.
          5    1    1    2  502    0 -0.50109822929E+02  0.71197595763E+01 -0.95585377364E+01  0.51677106866E+02  0.41800000000E+01 0. -1.
         -5    1    1    2    0  502  0.40799693072E+02  0.11602189543E+03  0.17332042802E+02  0.12427215006E+03  0.41800000000E+01 0. -1.
        -11    1    1    2    0    0 -0.48948200762E+02 -0.80741884997E+02  0.32853877802E+02  0.99972774481E+02  0.00000000000E+00 0.  1.
         11    1    1    2    0    0  0.58258330619E+02 -0.42399770006E+02 -0.45483867520E+01  0.72197378105E+02  0.00000000000E+00 0. -1.
</event>
<event>
 6    1  0.4988969E-006  0.8334176E+02  0.7561462E-02  0.1319827E+00
          2   -1    0    0  501    0  0.00000000000E+00  0.00000000000E+00  0.10104421073E+03  0.10104421073E+03  0.00000000000E+00 0. -1.
         -2   -1    0    0    0  501 -0.00000000000E+00 -0.00000000000E+00 -0.13271514844E+03  0.13271514844E+03  0.00000000000E+00 0.  1.
          5    1    1    2  502    0  0.67335670888E+00 -0.33087873809E+02  0.36862153932E+02  0.49714702000E+02  0.41800000000E+01 0.  1.
         -5    1    1    2    0  502  0.35677816487E+02  0.31058546152E+02 -0.70202809148E+02  0.84755216304E+02  0.41800000000E+01 0.  1.
        -11    1    1    2    0    0  0.13689882640E+02  0.26731398335E+02  0.24732239782E+02  0.38905837971E+02  0.00000000000E+00 0. -1.
         11    1    1    2    0    0 -0.50041055836E+02 -0.24702070678E+02 -0.23062522269E+02  0.60383602893E+02  0.00000000000E+00 0.  1.
</event>
<event>
 6    1  0.4988969E-006  0.1013660E+03  0.7561462E-02  0.1277449E+00
          1   -1    0    0  501    0  0.00000000000E+00  0.00000000000E+00  0.82005666348E+02  0.82005666348E+02  0.00000000000E+00 0. -1.
         -1   -1    0    0    0  501 -0.00000000000E+00 -0.00000000000E+00 -0.16989857570E+03  0.16989857570E+03  0.00000000000E+00 0.  1.
          5    1    1    2  502    0  0.37930886211E+02  0.57622673685E+02 -0.37398863543E+02  0.78582899193E+02  0.41800000000E+01 0. -1.
         -5    1    1    2    0  502 -0.24973401783E+02 -0.46954927953E+02 -0.63967731286E+02  0.83293331675E+02  0.41800000000E+01 0. -1.
        -11    1    1    2    0    0 -0.94652932136E+01  0.34089246429E+02 -0.13254996952E+02  0.37780463760E+02  0.00000000000E+00 0. -1.
         11    1    1    2    0    0 -0.34921912138E+01 -0.44756992161E+02  0.26728682430E+02  0.52247547418E+02  0.00000000000E+00 0.  1.
</event>
<event>
 6    1  0.4988969E-006  0.1426665E+03  0.7561462E-02  0.1209785E+00
         -2   -1    0    0    0  501 -0.00000000000E+00  0.00000000000E+00  0.55579045394E+03  0.55579045394E+03  0.00000000000E+00 0. -1.
          2   -1    0    0  501    0  0.00000000000E+00 -0.00000000000E+00 -0.47629018097E+02  0.47629018097E+02  0.00000000000E+00 0.  1.
          5    1    1    2  502    0  0.29581931347E+02  0.87092673771E+01  0.20098059047E+03  0.20337554461E+03  0.41800000000E+01 0. -1.
         -5    1    1    2    0  502  0.64892314907E+02 -0.86114335877E+02  0.11468162671E+03  0.15746758169E+03  0.41800000000E+01 0. -1.
        -11    1    1    2    0    0 -0.15354307212E+02  0.64299756855E+02  0.71155413927E+02  0.97125209975E+02  0.00000000000E+00 0. -1.
         11    1    1    2    0    0 -0.79119939042E+02  0.13105311645E+02  0.12134380474E+03  0.14545113577E+03  0.00000000000E+00 0.  1.
</event>
<event>
 6    1  0.4988969E-006  0.1120607E+03  0.7561462E-02  0.1256801E+00
         -2   -1    0    0    0  501 -0.00000000000E+00  0.00000000000E+00  0.42115947318E+02  0.42115947318E+02  0.00000000000E+00 0.  1.
          2   -1    0    0  501    0  0.00000000000E+00 -0.00000000000E+00 -0.34438749952E+03  0.34438749952E+03  0.00000000000E+00 0. -1.
          5    1    1    2  502    0  0.42576544989E+02  0.45282252200E+02 -0.92437420374E+02  0.11146924972E+03  0.41800000000E+01 0.  1.
         -5    1    1    2    0  502 -0.72248612375E+02 -0.24793395024E+01 -0.81999440081E+02  0.10939556521E+03  0.41800000000E+01 0.  1.
        -11    1    1    2    0    0 -0.19750029663E+02 -0.33845923081E+02 -0.14695878423E+02  0.41851870012E+02  0.00000000000E+00 0.  1.
         11    1    1    2    0    0  0.49422097050E+02 -0.89569896159E+01 -0.11313881332E+03  0.12378676189E+03  0.00000000000E+00 0. -1.
</event>
<event>
 6    1  0.4988969E-006  0.9580238E+02  0.7561462E-02  0.1289379E+00
         -4   -1    0    0    0  501 -0.00000000000E+00  0.00000000000E+00  0.86119226322E+02  0.86119226322E+02  0.00000000000E+00 0.  1.
          4   -1    0    0  501    0  0.00000000000E+00 -0.00000000000E+00 -0.18651135275E+03  0.18651135275E+03  0.00000000000E+00 0. -1.
          5    1    1    2  502    0 -0.33496049884E+02  0.47849034896E+02 -0.87360347551E+02  0.10517042466E+03  0.41800000000E+01 0.  1.
         -5    1    1    2    0  502  0.38370113625E+02  0.71105399885E+01  0.23482591829E+02  0.45735433938E+02  0.41800000000E+01 0.  1.
        -11    1    1    2    0    0 -0.40354373652E+02 -0.26032829672E+02  0.17326936742E+02  0.51052976705E+02  0.00000000000E+00 0.  1.
         11    1    1    2    0    0  0.35480309911E+02 -0.28926745212E+02 -0.53841307448E+02  0.70671743771E+02  0.00000000000E+00 0. -1.
</event>
<event>
 6    1  0.4988969E-006  0.1620855E+03  0.7561462E-02  0.1186362E+00
         -2   -1    0    0    0  501 -0.00000000000E+00  0.00000000000E+00  0.77792062429E+02  0.77792062429E+02  0.00000000000E+00 0.  1.
          2   -1    0    0  501    0  0.00000000000E+00 -0.00000000000E+00 -0.41757582201E+03  0.41757582201E+03  0.00000000000E+00 0. -1.
          5    1    1    2  502    0 -0.27599941767E+02 -0.13109870440E+03 -0.13237220145E+03  0.18838391438E+03  0.41800000000E+01 0. -1.
         -5    1    1    2    0  502  0.42424231699E+02  0.29719095931E+02  0.51770259998E+01  0.52223692865E+02  0.41800000000E+01 0.  1.
        -11    1    1    2    0    0 -0.50749612482E+02  0.84278697054E+02 -0.12944266170E+03  0.16258482282E+03  0.00000000000E+00 0.  1.
         11    1    1    2    0    0  0.35925322549E+02  0.17100911416E+02 -0.83145922427E+02  0.92175454367E+02  0.00000000000E+00 0. -1.
</event>
<event>
 6    1  0.4988969E-006  0.1250649E+03  0.7561462E-02  0.1234968E+00
         -3   -1    0    0    0  501 -0.00000000000E+00  0.00000000000E+00  0.48270909782E+03  0.48270909782E+03  0.00000000000E+00 0.  1.
          3   -1    0    0  501    0  0.00000000000E+00 -0.00000000000E+00 -0.54176984180E+02  0.54176984180E+02  0.00000000000E+00 0. -1.
          5    1    1    2  502    0 -0.79745694074E+02  0.39608596087E+02  0.26593497901E+03  0.28047656242E+03  0.41800000000E+01 0. -1.
         -5    1    1    2    0  502  0.49193836838E+01  0.46141516148E+02  0.17881705003E+02  0.49904585180E+02  0.41800000000E+01 0. -1.
        -11    1    1    2    0    0  0.63495961885E+02 -0.65689482545E+02  0.15605107392E+03  0.18082804806E+03  0.00000000000E+00 0. -1.
         11    1    1    2    0    0  0.11330348505E+02 -0.20060629689E+02 -0.11335644289E+02  0.25676886342E+02  0.00000000000E+00 0.  1.
</event>
<event>
 6    1  0.4988969E-006  0.1528688E+03  0.7561462E-02  0.1196992E+00
          1   -1    0    0  501    0  0.00000000000E+00  0.00000000000E+00  0.15331665178E+03  0.15331665178E+03  0.00000000000E+00 0. -1.
         -1   -1    0    0    0  501 -0.00000000000E+00 -0.00000000000E+00 -0.16151082575E+03  0.16151082575E+03  0.00000000000E+00 0.  1.
          5    1    1    2  502    0  0.42959003858E+02 -0.84846886887E+02 -0.91854036400E+01  0.95636364773E+02  0.41800000000E+01 0.  1.
         -5    1    1    2    0  502 -0.65991954283E+02 -0.22592093713E+02 -0.25838815369E+02  0.74501392659E+02  0.41800000000E+01 0.  1.
        -11    1    1    2    0    0 -0.27001653016E+02  0.61501757762E+01 -0.29714522912E+01  0.27852171485E+02  0.00000000000E+00 0.  1.
         11    1    1    2    0    0  0.50034603441E+02  0.10128880482E+03  0.29801497332E+02  0.11683754862E+03  0.00000000000E+00 0. -1.
</event>
<event>
 6    1  0.4988969E-006  0.2117815E+03  0.7561462E-02  0.1140163E+00
         -2   -1    0    0    0  501 -0.00000000000E+00  0.00000000000E+00  0.38886010877E+03  0.38886010877E+03  0.00000000000E+00 0.  1.
          2   -1    0    0  501    0  0.00000000000E+00 -0.00000000000E+00 -0.12688176053E+03  0.12688176053E+03  0.00000000000E+00 0. -1.
          5    1    1    2  502    0 -0.17909343509E+02 -0.27230167199E+02  0.59933088153E+02  0.68349645545E+02  0.41800000000E+01 0.  1.
         -5    1    1    2    0  502 -0.15913580850E+03  0.98149141080E+02  0.12049078637E+03  0.22247013606E+03  0.41800000000E+01 0.  1.
        -11    1    1    2    0    0  0.14325317480E+03 -0.23053103123E+02  0.81317731777E+02  0.16632946569E+03  0.00000000000E+00 0.  1.
         11    1    1    2    0    0  0.33791977202E+02 -0.47865870758E+02  0.23674195029E+00  0.58592622005E+02  0.00000000000E+00 0. -1.
</event>
<event>
 6    1  0.4988969E-006  0.1924659E+03  0.7561462E-02  0.1156256E+00
         -2   -1    0    0    0  501 -0.00000000000E+00  0.00000000000E+00  0.59139135496E+03  0.59139135496E+03  0.00000000000E+00 0.  1.
          2   -1    0    0  501    0  0.00000000000E+00 -0.00000000000E+00 -0.73674362713E+02  0.73674362713E+02  0.00000000000E+00 0. -1.
          5    1    1    2  502    0  0.31480015564E+02  0.19653847535E+02  0.12204270516E+03  0.12762899117E+03  0.41800000000E+01 0. -1.
         -5    1    1    2    0  502 -0.48133552046E+02  0.15668727547E+03  0.17089797860E+03  0.23683608808E+03  0.41800000000E+01 0. -1.
        -11    1    1    2    0    0  0.24007371959E+02 -0.37142396190E+02  0.11302919398E+02  0.45647206815E+02  0.00000000000E+00 0.  1.
         11    1    1    2    0    0 -0.73538354773E+01 -0.13919872681E+03  0.21347338908E+03  0.25495343161E+03  0.00000000000E+00 0. -1.
</event>
<event>
 6    1  0.4988969E-006  0.1109080E+03  0.7561462E-02  0.1258898E+00
          2   -1    0    0  501    0  0.00000000000E+00  0.00000000000E+00  0.15058260171E+03  0.15058260171E+03  0.00000000000E+00 0. -1.
         -2   -1    0    0    0  501 -0.00000000000E+00 -0.00000000000E+00 -0.10614235811E+03  0.10614235811E+03  0.00000000000E+00 0.  1.
          5    1    1    2  502    0  0.48341159312E+02  0.38963502675E+02  0.28403090577E+02  0.68404898791E+02  0.41800000000E+01 0. -1.
         -5    1    1    2    0  502 -0.62157997992E+02 -0.21403649447E+02 -0.41437628681E+02  0.77822120215E+02  0.41800000000E+01 0.  1.
        -11    1    1    2    0    0 -0.12601789884E+02 -0.50179682877E+02  0.38176541675E+02  0.64298164952E+02  0.00000000000E+00 0.  1.
         11    1    1    2    0    0  0.26418628565E+02  0.32619829649E+02  0.19298240027E+02  0.46199775863E+02  0.00000000000E+00 0. -1.
</event>
<event>
 6    1  0.4988969E-006  0.7065604E+02  0.7561462E-02  0.1357876E+00
         -1   -1    0    0    0  501 -0.00000000000E+00  0.00000000000E+00  0.68539178496E+02  0.68539178496E+02  0.00000000000E+00 0.  1.
          1   -1    0    0  501    0  0.00000000000E+00 -0.00000000000E+00 -0.27052726812E+03  0.27052726812E+03  0.00000000000E+00 0. -1.
          5    1    1    2  502    0 -0.87739372840E+01 -0.41319105186E+02 -0.55611293098E+02  0.69959550805E+02  0.41800000000E+01 0. -1.
         -5    1    1    2    0  502  0.45571538745E+01  0.17901044269E+02  0.49159708789E+02  0.52681727435E+02  0.41800000000E+01 0.  1.
        -11    1    1    2    0    0  0.18459325272E+02 -0.24078623672E+02 -0.26559442334E+02  0.40322832050E+02  0.00000000000E+00 0.  1.
         11    1    1    2    0    0 -0.14242541862E+02  0.47496684590E+02 -0.16897706298E+03  0.17610233632E+03  0.00000000000E+00 0. -1.
</event>
<event>
 6    1  0.4988969E-006  0.1216219E+03  0.7561462E-02  0.1240445E+00
          1   -1    0    0  501    0  0.00000000000E+00  0.00000000000E+00  0.58569005268E+02  0.58569005268E+02  0.00000000000E+00 0. -1.
         -1   -1    0    0    0  501 -0.00000000000E+00 -0.00000000000E+00 -0.30127157543E+03  0.30127157543E+03  0.00000000000E+00 0.  1.
          5    1    1    2  502    0  0.95127372662E+02  0.37275038566E+02 -0.15060621490E+03  0.18203941853E+03  0.41800000000E+01 0. -1.
         -5    1    1    2    0  502 -0.37100160323E+02 -0.45696637396E+01 -0.34065744731E+02  0.50746931796E+02  0.41800000000E+01 0. -1.
        -11    1    1    2    0    0 -0.49922821287E+02  0.17210084432E+02 -0.38578831185E+01  0.52946750170E+02  0.00000000000E+00 0. -1.
         11    1    1    2    0    0 -0.81043910529E+01 -0.49915459259E+02 -0.54172727408E+02  0.74107480204E+02  0.00000000000E+00 0.  1.
</event>
<event>
 6    1  0.4988969E-006  0.1797410E+03  0.7561462E-02  0.1168054E+00
          2   -1    0    0  501    0  0.00000000000E+00  0.00000000000E+00  0.36761551641E+03  0.36761551641E+03  0.00000000000E+00 0. -1.
         -2   -1    0    0    0  501 -0.00000000000E+00 -0.00000000000E+00 -0.12620283526E+03  0.12620283526E+03  0.00000000000E+00 0.  1.
          5    1    1    2  502    0 -0.28444719173E+02  0.10515520230E+02  0.42714099204E+02  0.52551354743E+02  0.41800000000E+01 0. -1.
         -5    1    1    2    0  502  0.26008348988E+02  0.15760201872E+03 -0.74426054540E+01  0.15996154319E+03  0.41800000000E+01 0. -1.
        -11    1    1    2    0    0  0.97554717975E+01 -0.68019913067E+02  0.22994024291E+02  0.72461044408E+02  0.00000000000E+00 0.  1.
         11    1    1    2    0    0 -0.73191016124E+01 -0.10009762589E+03  0.18314716310E+03  0.20884440933E+03  0.00000000000E+00 0. -1.
</event>
<event>
 6    1  0.4988969E-006  0.7438948E+02  0.7561462E-02  0.1345772E+00
          1   -1    0    0  501    0  0.00000000000E+00  0.00000000000E+00  0.40743894168E+02  0.40743894168E+02  0.00000000000E+00 0. -1.
         -1   -1    0    0    0  501 -0.00000000000E+00 -0.00000000000E+00 -0.29802554438E+03  0.29802554438E+03  0.00000000000E+00 0.  1.
          5    1    1    2  502    0 -0.13294711910E+02  0.22849184158E+02  0.99601408297E+01  0.28557159992E+02  0.41800000000E+01 0. -1.
         -5    1    1    2    0  502 -0.21589806188E+01 -0.30287272776E+02 -0.18357742348E+03  0.18611857215E+03  0.41800000000E+01 0. -1.
        -11    1    1    2    0    0 -0.37553748913E+02  0.78030331960E+01 -0.39985838354E+02  0.55407929517E+02  0.00000000000E+00 0.  1.
         11    1    1    2    0    0  0.53007441442E+02 -0.36494457802E+00 -0.43678529213E+02  0.68685776890E+02  0.00000000000E+00 0. -1.
</event>
<event>
 6    1  0.4988969E-006  0.1616507E+03  0.7561462E-02  0.1186846E+00
         -2   -1    0    0    0  501 -0.00000000000E+00  0.00000000000E+00  0.96931673698E+02  0.96931673698E+02  0.00000000000E+00 0.  1.
          2   -1    0    0  501    0  0.00000000000E+00 -0.00000000000E+00 -0.31322726431E+03  0.31322726431E+03  0.00000000000E+00 0. -1.
          5    1    1    2  502    0  0.70937158677E+02  0.67716354459E+02 -0.51153423094E+01  0.98291526945E+02  0.41800000000E+01 0.  1.
         -5    1    1    2    0  502 -0.45703356985E+02  0.56904401169E+02 -0.49360942846E+02  0.88209312381E+02  0.41800000000E+01 0.  1.
        -11    1    1    2    0    0 -0.55829741437E+02 -0.89213385473E+02 -0.93057809627E+02  0.14048396389E+03  0.00000000000E+00 0.  1.
         11    1    1    2    0    0  0.30595939745E+02 -0.35407370154E+02 -0.68761495826E+02  0.83174134792E+02  0.00000000000E+00 0. -1.
</event>
<event>
 6    1  0.4988969E-006  0.9640932E+02  0.7561462E-02  0.1288033E+00
          1   -1    0    0  501    0  0.00000000000E+00  0.00000000000E+00  0.16892324047E+03  0.16892324047E+03  0.00000000000E+00 0. -1.
         -1   -1    0    0    0  501 -0.00000000000E+00 -0.00000000000E+00 -0.84516710944E+02  0.84516710944E+02  0.00000000000E+00 0.  1.
          5    1    1    2  502    0 -0.69772974751E+02  0.21261081678E+02  0.30272310129E+02  0.79083416468E+02  0.41800000000E+01 0.  1.
         -5    1    1    2    0  502  0.42777755679E+02 -0.60403085381E+01 -0.24593578236E+02  0.49887254871E+02  0.41800000000E+01 0.  1.
        -11    1    1    2    0    0 -0.12237095740E+02 -0.31564996993E+02 -0.12751084862E+01  0.33878037856E+02  0.00000000000E+00 0.  1.
         11    1    1    2    0    0  0.39232314813E+02  0.16344223854E+02  0.80002906116E+02  0.90591242214E+02  0.00000000000E+00 0. -1.
</event>
<event>
 6    1  0.4988969E-006  0.1983737E+03  0.7561462E-02  0.1151118E+00
          2   -1    0    0  501    0  0.00000000000E+00  0.00000000000E+00  0.49448976244E+02  0.49448976244E+02  0.00000000000E+00 0. -1.
         -2   -1    0    0    0  501 -0.00000000000E+00 -0.00000000000E+00 -0.10407856418E+04  0.10407856418E+04  0.00000000000E+00 0.  1.
          5    1    1    2  502    0 -0.13439442667E+03  0.28068215530E+02 -0.53532889077E+03  0.55267004654E+03  0.41800000000E+01 0.  1.
         -5    1    1    2    0  502 -0.52985523152E+02  0.31230833160E+02 -0.57533767477E+02  0.84323409583E+02  0.41800000000E+01 0.  1.
        -11    1    1    2    0    0  0.13138456459E+03 -0.30951539855E+02 -0.17434533544E+03  0.22049081074E+03  0.00000000000E+00 0.  1.
         11    1    1    2    0    0  0.55995385234E+02 -0.28347508835E+02 -0.22412867186E+03  0.23275035118E+03  0.00000000000E+00 0. -1.
</event>
<event>
 6    1  0.4988969E-006  0.8853353E+02  0.7561462E-02  0.1306442E+00
         -1   -1    0    0    0  501 -0.00000000000E+00  0.00000000000E+00  0.63148620993E+03  0.63148620993E+03  0.00000000000E+00 0.  1.
          1   -1    0    0  501    0  0.00000000000E+00 -0.00000000000E+00 -0.31283632241E+02  0.31283632241E+02  0.00000000000E+00 0. -1.
          5    1    1    2  502    0  0.30450346730E+02  0.59806906575E+01  0.36178635009E+02  0.47847239292E+02  0.41800000000E+01 0. -1.
         -5    1    1    2    0  502 -0.59867958083E+02 -0.40834491180E+02  0.46898040949E+03  0.47456477425E+03  0.41800000000E+01 0. -1.
        -11    1    1    2    0    0  0.46522975690E+02  0.20513019368E+02  0.10442465847E+03  0.11614508395E+03  0.00000000000E+00 0.  1.
         11    1    1    2    0    0 -0.17105364338E+02  0.14340781155E+02 -0.93811252754E+01  0.24212744675E+02  0.00000000000E+00 0. -1.
</event>
<event>
 6    1  0.4988969E-006  0.3111951E+03  0.7561462E-02  0.1079774E+00
         -2   -1    0    0    0  501 -0.00000000000E+00  0.00000000000E+00  0.18829400646E+03  0.18829400646E+03  0.00000000000E+00 0.  1.
          2   -1    0    0  501    0  0.00000000000E+00 -0.00000000000E+00 -0.11017195879E+04  0.11017195879E+04  0.00000000000E+00 0. -1.
          5    1    1    2  502    0  0.45074440315E+02  0.43462189610E+02 -0.22038471003E+02  0.66511906450E+02  0.41800000000E+01 0. -1.
         -5    1    1    2    0  502 -0.27699076807E+02  0.25361182293E+03  0.24150881172E+02  0.25629462158E+03  0.41800000000E+01 0. -1.
        -11    1    1    2    0    0  0.21921204133E+02 -0.17168536859E+03 -0.62137088304E+03  0.64502571985E+03  0.00000000000E+00 0.  1.
         11    1    1    2    0    0 -0.39296567641E+02 -0.12538864395E+03 -0.29416710852E+03  0.32218134644E+03  0.00000000000E+00 0. -1.
</event>
<event>
 6    1  0.4988969E-006  0.1245314E+03  0.7561462E-02  0.1235803E+00
          1   -1    0    0  501    0  0.00000000000E+00  0.00000000000E+00  0.42059935707E+03  0.42059935707E+03  0.00000000000E+00 0. -1.
         -1   -1    0    0    0  501 -0.00000000000E+00 -0.00000000000E+00 -0.45540814873E+02  0.45540814873E+02  0.00000000000E+00 0.  1.
          5    1    1    2  502    0  0.19702216158E+02  0.47527698105E+02  0.12638389338E+02  0.53143773800E+02  0.41800000000E+01 0. -1.
         -5    1    1    2    0  502 -0.78073980131E+02  0.22217923089E+01  0.12859954818E+03  0.15051843384E+03  0.41800000000E+01 0. -1.
        -11    1    1    2    0    0 -0.19413634908E+02 -0.35045352219E+02  0.75705422710E+02  0.85652652966E+02  0.00000000000E+00 0. -1.
         11    1    1    2    0    0  0.77785398881E+02 -0.14704138195E+02  0.15811518197E+03  0.17682531133E+03  0.00000000000E+00 0.  1.
</event>
<event>
 6    1  0.4988969E-006  0.9825220E+02  0.7561462E-02  0.1284015E+00
         -2   -1    0    0    0  501 -0.00000000000E+00  0.00000000000E+00  0.27244315203E+03  0.27244315203E+03  0.00000000000E+00 0.  1.
          2   -1    0    0  501    0  0.00000000000E+00 -0.00000000000E+00 -0.63043794917E+02  0.63043794917E+02  0.00000000000E+00 0. -1.
          5    1    1    2  502    0 -0.56190341981E+02 -0.21099298885E+02  0.32301519339E+01  0.60253142880E+02  0.41800000000E+01 0. -1.
         -5    1    1    2    0  502  0.27004948885E+02 -0.46690838305E+02  0.11487189092E+03  0.12697371921E+03  0.41800000000E+01 0. -1.
        -11    1    1    2    0    0 -0.83499130586E+01  0.18380171095E+02  0.83282371000E+02  0.85694253349E+02  0.00000000000E+00 0.  1.
         11    1    1    2    0    0  0.37535306155E+02  0.49409966095E+02  0.80149432633E+01  0.62565831515E+02  0.00000000000E+00 0. -1.
</event>
<event>
 6    1  0.4988969E-006  0.1142433E+03  0.7561462E-02  0.1252908E+00
          1   -1    0    0  501    0  0.00000000000E+00  0.00000000000E+00  0.41402200288E+03  0.41402200288E+03  0.00000000000E+00 0. -1.
         -1   -1    0    0    0  501 -0.00000000000E+00 -0.00000000000E+00 -0.37330183240E+02  0.37330183240E+02  0.00000000000E+00 0.  1.
          5    1    1    2  502    0 -0.58484608817E+02 -0.25475745803E+02  0.65949314348E+02  0.91849047658E+02  0.41800000000E+01 0.  1.
         -5    1    1    2    0  502  0.64825892482E+02 -0.80140155790E+01  0.55938359765E+02  0.86099902874E+02  0.41800000000E+01 0.  1.
        -11    1    1    2    0    0 -0.42881769235E+02 -0.82095003794E+01  0.11441065721E+03  0.12245832154E+03  0.00000000000E+00 0.  1.
         11    1    1    2    0    0  0.36540485570E+02  0.41699261761E+02  0.14039348831E+03  0.15094491405E+03  0.00000000000E+00 0. -1.
</event>
<event>
 6    1  0.4988969E-006  0.1155237E+03  0.7561462E-02  0.1250670E+00
          1   -1    0    0  501    0  0.00000000000E+00  0.00000000000E+00  0.70854995492E+03  0.70854995492E+03  0.00000000000E+00 0. -1.
         -1   -1    0    0    0  501 -0.00000000000E+00 -0.00000000000E+00 -0.24930243992E+02  0.24930243992E+02  0.00000000000E+00 0.  1.
          5    1    1    2  502    0 -0.75408225983E+02  0.30640204259E+02  0.29511995983E+03  0.30616741458E+03  0.41800000000E+01 0. -1.
         -5    1    1    2    0  502  0.31199083255E+02  0.18887990097E+02  0.22028201643E+02  0.42811832868E+02  0.41800000000E+01 0.  1.
        -11    1    1    2    0    0  0.55047787650E+02  0.68065596345E+01  0.13337870720E+03  0.14445230256E+03  0.00000000000E+00 0.  1.
         11    1    1    2    0    0 -0.10838644921E+02 -0.56334753990E+02  0.23309284225E+03  0.24004864890E+03  0.00000000000E+00 0. -1.
</event>
<event>
 6    1  0.4988969E-006  0.9543774E+02  0.7561462E-02  0.1290193E+00
          3   -1    0    0  501    0  0.00000000000E+00  0.00000000000E+00  0.17973024712E+03  0.17973024712E+03  0.00000000000E+00 0. -1.
         -3   -1    0    0    0  501 -0.00000000000E+00 -0.00000000000E+00 -0.67694860867E+02  0.67694860867E+02  0.00000000000E+00 0.  1.
          5    1    1    2  502    0 -0.27860708764E+02 -0.38526711148E+02  0.65691095839E+02  0.81199255152E+02  0.41800000000E+01 0.  1.
         -5    1    1    2    0  502  0.44080752434E+02  0.26444788638E+02 -0.17361867626E+02  0.54418254554E+02  0.41800000000E+01 0.  1.
        -11    1    1    2    0    0 -0.23314941769E+02  0.48848816787E+02  0.42129849830E+02  0.68590944431E+02  0.00000000000E+00 0.  1.
         11    1    1    2    0    0  0.70948980992E+01 -0.36766894277E+02  0.21576308206E+02  0.43216653846E+02  0.00000000000E+00 0. -1.
</event>
<event>
 6    1  0.4988969E-006  0.1073155E+03  0.7561462E-02  0.1265623E+00
         -1   -1    0    0    0  501 -0.00000000000E+00  0.00000000000E+00  0.25015524946E+02  0.25015524946E+02  0.00000000000E+00 0.  1.
          1   -1    0    0  501    0  0.00000000000E+00 -0.00000000000E+00 -0.62670730193E+03  0.62670730193E+03  0.00000000000E+00 0. -1.
          5    1    1    2  502    0 -0.54894015080E+02  0.10843026265E+02 -0.45389515254E+02  0.72170663051E+02  0.41800000000E+01 0. -1.
         -5    1    1    2    0  502  0.56499599368E+02  0.19051702623E+02 -0.15305251663E+03  0.16430982122E+03  0.41800000000E+01 0. -1.
        -11    1    1    2    0    0 -0.47259506312E+02 -0.23062692776E+02 -0.19786030712E+03  0.20472921108E+03  0.00000000000E+00 0.  1.
         11    1    1    2    0    0  0.45653922024E+02 -0.68320361124E+01 -0.20538943797E+03  0.21051313152E+03  0.00000000000E+00 0. -1.
</event>
<event>
 6    1  0.4988969E-006  0.8076443E+02  0.7561462E-02  0.1326896E+00
          1   -1    0    0  501    0  0.00000000000E+00  0.00000000000E+00  0.31024395633E+02  0.31024395633E+02  0.00000000000E+00 0. -1.
         -1   -1    0    0    0  501 -0.00000000000E+00 -0.00000000000E+00 -0.49314605382E+03  0.49314605382E+03  0.00000000000E+00 0.  1.
          5    1    1    2  502    0  0.46482623943E+02  0.45201555749E+02 -0.42001285695E+02  0.77365337010E+02  0.41800000000E+01 0. -1.
         -5    1    1    2    0  502  0.90067367432E+00 -0.80858897129E+01 -0.21115946979E+03  0.21135748604E+03  0.41800000000E+01 0. -1.
        -11    1    1    2    0    0 -0.14468502915E+02 -0.50009463897E+02 -0.18634832537E+03  0.19348380404E+03  0.00000000000E+00 0.  1.
         11    1    1    2    0    0 -0.32914794702E+02  0.12893797861E+02 -0.22612577333E+02  0.41963822362E+02  0.00000000000E+00 0. -1.
</event>
<event>
 6    1  0.4988969E-006  0.1088933E+03  0.7561462E-02  0.1262633E+00
          2   -1    0    0  501    0  0.00000000000E+00  0.00000000000E+00  0.11394399597E+03  0.11394399597E+03  0.00000000000E+00 0.  1.
         -2   -1    0    0    0  501 -0.00000000000E+00 -0.00000000000E+00 -0.15148213730E+03  0.15148213730E+03  0.00000000000E+00 0. -1.
          5    1    1    2  502    0 -0.55852529253E+02  0.50834439106E+02  0.18000189006E+02  0.77750398246E+02  0.41800000000E+01 0. -1.
         -5    1    1    2    0  502 -0.15418327024E+02 -0.40102565900E+02 -0.57544074060E+02  0.71935620241E+02  0.41800000000E+01 0. -1.
        -11    1    1    2    0    0  0.56424297457E+02  0.23918202170E+02  0.30529744325E+02  0.68467853969E+02  0.00000000000E+00 0.  1.
         11    1    1    2    0    0  0.14846558820E+02 -0.34650075376E+02 -0.28524000603E+02  0.47272260817E+02  0.00000000000E+00 0. -1.
</event>
<event>
 6    1  0.4988969E-006  0.1160597E+03  0.7561462E-02  0.1249743E+00
          1   -1    0    0  501    0  0.00000000000E+00  0.00000000000E+00  0.41887127345E+03  0.41887127345E+03  0.00000000000E+00 0. -1.
         -1   -1    0    0    0  501 -0.00000000000E+00 -0.00000000000E+00 -0.50639342667E+02  0.50639342667E+02  0.00000000000E+00 0.  1.
          5    1    1    2  502    0  0.66257059753E+02  0.59726004124E+02  0.17161015113E+03  0.19345467145E+03  0.41800000000E+01 0.  1.
         -5    1    1    2    0  502 -0.13593297414E+02  0.12639733072E+02 -0.16354875927E+02  0.25089738008E+02  0.41800000000E+01 0.  1.
        -11    1    1    2    0    0 -0.28509571846E+01  0.19276576187E+02  0.81724365734E+01  0.21130619155E+02  0.00000000000E+00 0.  1.
         11    1    1    2    0    0 -0.49812805154E+02 -0.91642313382E+02  0.20480421900E+03  0.22983558750E+03  0.00000000000E+00 0. -1.
</event>
<event>
 6    1  0.4988969E-006  0.9532793E+02  0.7561462E-02  0.1290439E+00
         -1   -1    0    0    0  501 -0.00000000000E+00  0.00000000000E+00  0.19257197810E+03  0.19257197810E+03  0.00000000000E+00 0.  1.
          1   -1    0    0  501    0  0.00000000000E+00 -0.00000000000E+00 -0.78020607240E+02  0.78020607240E+02  0.00000000000E+00 0. -1.
          5    1    1    2  502    0 -0.13970882308E+02  0.82803436314E+01  0.81477543977E+02  0.83185408671E+02  0.41800000000E+01 0.  1.
         -5    1    1    2    0  502  0.20328072570E+02 -0.62858794171E+02 -0.16326279909E+02  0.68179750328E+02  0.41800000000E+01 0.  1.
        -11    1    1    2    0    0 -0.35310905180E+02  0.67349526624E+02  0.41411652988E+02  0.86589513016E+02  0.00000000000E+00 0.  1.
         11    1    1    2    0    0  0.28953714918E+02 -0.12771076084E+02  0.79884537996E+01  0.32637913322E+02  0.00000000000E+00 0. -1.
</event>
<event>
 6    1  0.4988969E-006  0.9169101E+02  0.7561462E-02  0.1298808E+00
         -1   -1    0    0    0  501 -0.00000000000E+00  0.00000000000E+00  0.17881175367E+03  0.17881175367E+03  0.00000000000E+00 0.  1.
          1   -1    0    0  501    0  0.00000000000E+00 -0.00000000000E+00 -0.73204393062E+02  0.73204393062E+02  0.00000000000E+00 0. -1.
          5    1    1    2  502    0 -0.57173604495E+02 -0.18103049788E+01  0.30872802875E+02  0.65136016246E+02  0.41800000000E+01 0.  1.
         -5    1    1    2    0  502  0.63840725869E+02  0.83666080269E+01  0.75666890325E+02  0.99441385252E+02  0.41800000000E+01 0.  1.
        -11    1    1    2    0    0 -0.33057896202E+02  0.35444163816E+01 -0.31507664800E+02  0.45805243476E+02  0.00000000000E+00 0. -1.
         11    1    1    2    0    0  0.26390774828E+02 -0.10100719430E+02  0.30575332209E+02  0.41633501759E+02  0.00000000000E+00 0.  1.
</event>
<event>
 6    1  0.4988969E-006  0.9911816E+02  0.7561462E-02  0.1282161E+00
         -2   -1    0    0    0  501 -0.00000000000E+00  0.00000000000E+00  0.97954458541E+02  0.97954458541E+02  0.00000000000E+00 0.  1.
          2   -1    0    0  501    0  0.00000000000E+00 -0.00000000000E+00 -0.17416363861E+03  0.17416363861E+03  0.00000000000E+00 0. -1.
          5    1    1    2  502    0 -0.32008662477E+02 -0.52146200079E+02  0.33988211345E+02  0.70117412721E+02  0.41800000000E+01 0. -1.
         -5    1    1    2    0  502  0.54791792713E+02 -0.96918592070E+01 -0.45037298237E+02  0.71707066012E+02  0.41800000000E+01 0. -1.
        -11    1    1    2    0    0  0.14633488317E+02  0.12919628732E+02  0.18174095427E+02  0.26671211661E+02  0.00000000000E+00 0.  1.
         11    1    1    2    0    0 -0.37416618552E+02  0.48918430554E+02 -0.83334188605E+02  0.10362240676E+03  0.00000000000E+00 0. -1.
</event>
<event>
 6    1  0.4988969E-006  0.1046630E+03  0.7561462E-02  0.1270785E+00
         -1   -1    0    0    0  501 -0.00000000000E+00  0.00000000000E+00  0.58040764898E+02  0.58040764898E+02  0.00000000000E+00 0.  1.
          1   -1    0    0  501    0  0.00000000000E+00 -0.00000000000E+00 -0.32900591881E+03  0.32900591881E+03  0.00000000000E+00 0. -1.
          5    1    1    2  502    0 -0.13240062678E+02  0.36095326658E+02 -0.28829123123E+02  0.48236527718E+02  0.41800000000E+01 0. -1.
         -5    1    1    2    0  502  0.66445238218E+02 -0.78054131122E+02 -0.44775321578E+02  0.11193622689E+03  0.41800000000E+01 0. -1.
        -11    1    1    2    0    0 -0.17990790780E+02  0.18137296962E+02 -0.58034420285E+00  0.25553216889E+02  0.00000000000E+00 0.  1.
         11    1    1    2    0    0 -0.35214384760E+02  0.23821507502E+02 -0.19678036501E+03  0.20132071222E+03  0.00000000000E+00 0. -1.
</event>
<event>
 6    1  0.4988969E-006  0.1535996E+03  0.7561462E-02  0.1196118E+00
          1   -1    0    0  501    0  0.00000000000E+00  0.00000000000E+00  0.28092834224E+02  0.28092834224E+02  0.00000000000E+00 0. -1.
         -1   -1    0    0    0  501 -0.00000000000E+00 -0.00000000000E+00 -0.90443315352E+03  0.90443315352E+03  0.00000000000E+00 0.  1.
          5    1    1    2  502    0 -0.50716292769E+02 -0.12143406030E+03 -0.34808740048E+03  0.37215680045E+03  0.41800000000E+01 0. -1.
         -5    1    1    2    0  502  0.29157610730E+02  0.11987511037E+02 -0.15139430784E+03  0.15469833719E+03  0.41800000000E+01 0. -1.
        -11    1    1    2    0    0 -0.34652760997E+02  0.57826070951E+02 -0.11914848900E+03  0.13689788442E+03  0.00000000000E+00 0. -1.
         11    1    1    2    0    0  0.56211443036E+02  0.51620478315E+02 -0.25771012198E+03  0.26877296568E+03  0.00000000000E+00 0.  1.
</event>
<event>
 6    1  0.4988969E-006  0.1737921E+03  0.7561462E-02  0.1173950E+00
          1   -1    0    0  501    0  0.00000000000E+00  0.00000000000E+00  0.35589343802E+03  0.35589343802E+03  0.00000000000E+00 0. -1.
         -1   -1    0    0    0  501 -0.00000000000E+00 -0.00000000000E+00 -0.92139908546E+02  0.92139908546E+02  0.00000000000E+00 0.  1.
          5    1    1    2  502    0  0.25950869587E+02 -0.54932124793E+02  0.12984175550E+02  0.62265939175E+02  0.41800000000E+01 0.  1.
         -5    1    1    2    0  502 -0.10944880277E+03 -0.58439860545E+02  0.80935855558E+02  0.14819697312E+03  0.41800000000E+01 0.  1.
        -11    1    1    2    0    0  0.50231477195E+02  0.65447563100E+01  0.31496337639E+02  0.59649429344E+02  0.00000000000E+00 0.  1.
         11    1    1    2    0    0  0.33266455984E+02  0.10682722903E+03  0.13833716073E+03  0.17792100493E+03  0.00000000000E+00 0. -1.
</event>
<event>
 6    1  0.4988969E-006  0.9666938E+02  0.7561462E-02  0.1287460E+00
          1   -1    0    0  501    0  0.00000000000E+00  0.00000000000E+00  0.14135191631E+03  0.14135191631E+03  0.00000000000E+00 0. -1.
         -1   -1    0    0    0  501 -0.00000000000E+00 -0.00000000000E+00 -0.13983281371E+03  0.13983281371E+03  0.00000000000E+00 0.  1.
          5    1    1    2  502    0  0.18398049850E+02 -0.34608616273E+02  0.10418957460E+02  0.40770965565E+02  0.41800000000E+01 0.  1.
         -5    1    1    2    0  502 -0.42983091988E+02  0.72689916534E+02 -0.49160282317E+02  0.97803762301E+02  0.41800000000E+01 0.  1.
        -11    1    1    2    0    0  0.14952904457E+02  0.11499216968E+02  0.77561059732E+02  0.79821922612E+02  0.00000000000E+00 0. -1.
         11    1    1    2    0    0  0.96321376814E+01 -0.49580517230E+02 -0.37300632278E+02  0.62788079549E+02  0.00000000000E+00 0.  1.
</event>
<event>
 6    1  0.4988969E-006  0.1037913E+03  0.7561462E-02  0.1272520E+00
         -3   -1    0    0    0  501 -0.00000000000E+00  0.00000000000E+00  0.19736991125E+03  0.19736991125E+03  0.00000000000E+00 0.  1.
          3   -1    0    0  501    0  0.00000000000E+00 -0.00000000000E+00 -0.17551501340E+03  0.17551501340E+03  0.00000000000E+00 0. -1.
          5    1    1    2  502    0  0.69833495766E+02  0.25780456855E+02  0.50094330949E+02  0.89823512956E+02  0.41800000000E+01 0. -1.
         -5    1    1    2    0  502 -0.31910203962E+01 -0.56864842125E+02  0.95401503277E+02  0.11118773362E+03  0.41800000000E+01 0.  1.
        -11    1    1    2    0    0 -0.13183993380E+02  0.15259344858E+02  0.13206411338E+02  0.24105488739E+02  0.00000000000E+00 0.  1.
         11    1    1    2    0    0 -0.53458481990E+02  0.15825040412E+02 -0.13684734771E+03  0.14776818933E+03  0.00000000000E+00 0. -1.
</event>
<event>
 6    1  0.4988969E-006  0.1433256E+03  0.7561462E-02  0.1208923E+00
          1   -1    0    0  501    0  0.00000000000E+00  0.00000000000E+00  0.17595996959E+03  0.17595996959E+03  0.00000000000E+00 0. -1.
         -1   -1    0    0    0  501 -0.00000000000E+00 -0.00000000000E+00 -0.29638420057E+03  0.29638420057E+03  0.00000000000E+00 0.  1.
          5    1    1    2  502    0  0.85134802058E+02 -0.17492779907E+02 -0.14179478460E+03  0.16636455515E+03  0.41800000000E+01 0. -1.
         -5    1    1    2    0  502 -0.25815111055E+02 -0.72539230195E+02 -0.95602588373E+02  0.12282380543E+03  0.41800000000E+01 0. -1.
        -11    1    1    2    0    0 -0.60709316061E+01 -0.85488570177E+01  0.53223354810E+02  0.54246333186E+02  0.00000000000E+00 0. -1.
         11    1    1    2    0    0 -0.53248759397E+02  0.98580867119E+02  0.63749787177E+02  0.12890947639E+03  0.00000000000E+00 0.  1.
</event>
<event>
 6    1  0.4988969E-006  0.1011222E+03  0.7561462E-02  0.1277954E+00
         -1   -1    0    0    0  501 -0.00000000000E+00  0.00000000000E+00  0.53527505183E+02  0.53527505183E+02  0.00000000000E+00 0.  1.
          1   -1    0    0  501    0  0.00000000000E+00 -0.00000000000E+00 -0.38839522116E+03  0.38839522116E+03  0.00000000000E+00 0. -1.
          5    1    1    2  502    0 -0.76178773329E+02  0.28836515711E+02 -0.54387141922E+01  0.81742291113E+02  0.41800000000E+01 0.  1.
         -5    1    1    2    0  502  0.16740529047E+02  0.17947688378E+02 -0.88708091774E+02  0.92135567384E+02  0.41800000000E+01 0.  1.
        -11    1    1    2    0    0  0.49206156990E+02 -0.60936391160E+02 -0.23776455340E+03  0.25033272360E+03  0.00000000000E+00 0. -1.
         11    1    1    2    0    0  0.10232087292E+02  0.14152187071E+02 -0.29563566110E+01  0.17712144242E+02  0.00000000000E+00 0.  1.
</event>
<event>
 6    1  0.4988969E-006  0.1147149E+03  0.7561462E-02  0.1252080E+00
          3   -1    0    0  501    0  0.00000000000E+00  0.00000000000E+00  0.41050120099E+03  0.41050120099E+03  0.00000000000E+00 0. -1.
         -3   -1    0    0    0  501 -0.00000000000E+00 -0.00000000000E+00 -0.48116020332E+02  0.48116020332E+02  0.00000000000E+00 0.  1.
          5    1    1    2  502    0 -0.32157150393E+02 -0.52035735328E+02  0.13409057371E+03  0.14744339398E+03  0.41800000000E+01 0.  1.
         -5    1    1    2    0  502 -0.58158739407E+02  0.34084643930E+02  0.17887916612E+02  0.69868819097E+02  0.41800000000E+01 0.  1.
        -11    1    1    2    0    0  0.57393557438E+02  0.30919512732E+02  0.66551420922E+02  0.93161839450E+02  0.00000000000E+00 0.  1.
         11    1    1    2    0    0  0.32922332363E+02 -0.12968421334E+02  0.14385526942E+03  0.14814316880E+03  0.00000000000E+00 0. -1.
</event>
<event>
 6    1  0.4988969E-006  0.1307439E+03  0.7561462E-02  0.1226356E+00
          1   -1    0    0  501    0  0.00000000000E+00  0.00000000000E+00  0.60579250251E+02  0.60579250251E+02  0.00000000000E+00 0. -1.
         -1   -1    0    0    0  501 -0.00000000000E+00 -0.00000000000E+00 -0.40654026722E+03  0.40654026722E+03  0.00000000000E+00 0.  1.
          5    1    1    2  502    0 -0.30967492220E+02 -0.33721583478E+02 -0.16455564889E+03  0.17085714719E+03  0.41800000000E+01 0.  1.
         -5    1    1    2    0  502  0.36456178916E+02 -0.76218710573E+02 -0.41713816914E+02  0.94317865455E+02  0.41800000000E+01 0.  1.
        -11    1    1    2    0    0  0.32517806048E+02  0.42549432744E+02 -0.10348927439E+03  0.11652421143E+03  0.00000000000E+00 0.  1.
         11    1    1    2    0    0 -0.38006492744E+02  0.67390861307E+02 -0.36202276781E+02  0.85420293388E+02  0.00000000000E+00 0. -1.
</event>
<event>
 6    1  0.4988969E-006  0.6115713E+02  0.7561462E-02  0.1393039E+00
          1   -1    0    0  501    0  0.00000000000E+00  0.00000000000E+00  0.97064346035E+02  0.97064346035E+02  0.00000000000E+00 0. -1.
         -1   -1    0    0    0  501 -0.00000000000E+00 -0.00000000000E+00 -0.15828687268E+03  0.15828687268E+03  0.00000000000E+00 0.  1.
          5    1    1    2  502    0  0.13294965935E+01 -0.14738971394E+02  0.38803276355E+02  0.41739327915E+02  0.41800000000E+01 0. -1.
         -5    1    1    2    0  502 -0.31849085164E+02 -0.13731112433E+02 -0.95694442941E+02  0.10187151950E+03  0.41800000000E+01 0. -1.
        -11    1    1    2    0    0  0.46156500090E+02  0.31754040477E+02  0.37194173332E+02  0.67246919015E+02  0.00000000000E+00 0. -1.
         11    1    1    2    0    0 -0.15636911519E+02 -0.32839566499E+01 -0.41525533393E+02  0.44493452290E+02  0.00000000000E+00 0.  1.
</event>
<event>
 6    1  0.4988969E-006  0.1253428E+03  0.7561462E-02  0.1234535E+00
          1   -1    0    0  501    0  0.00000000000E+00  0.00000000000E+00  0.31829365165E+02  0.31829365165E+02  0.00000000000E+00 0. -1.
         -1   -1    0    0    0  501 -0.00000000000E+00 -0.00000000000E+00 -0.62724615387E+03  0.62724615387E+03  0.00000000000E+00 0.  1.
          5    1    1    2  502    0  0.27718976454E+02  0.36031398745E+02 -0.19317434532E+03  0.19849534866E+03  0.41800000000E+01 0. -1.
         -5    1    1    2    0  502  0.47044740530E+02 -0.76220439675E+02 -0.12577588990E+03  0.15446620963E+03  0.41800000000E+01 0. -1.
        -11    1    1    2    0    0  0.21876860456E+01  0.38330277321E+02 -0.32529657881E+02  0.50320719108E+02  0.00000000000E+00 0.  1.
         11    1    1    2    0    0 -0.76951403030E+02  0.18587636088E+01 -0.24393689560E+03  0.25579324163E+03  0.00000000000E+00 0. -1.
</event>
<event>
 6    1  0.4988969E-006  0.6585251E+02  0.7561462E-02  0.1374793E+00
          1   -1    0    0  501    0  0.00000000000E+00  0.00000000000E+00  0.43017863751E+03  0.43017863751E+03  0.00000000000E+00 0. -1.
         -1   -1    0    0    0  501 -0.00000000000E+00 -0.00000000000E+00 -0.36342846130E+02  0.36342846130E+02  0.00000000000E+00 0.  1.
          5    1    1    2  502    0 -0.35606652670E+01  0.18798370859E+02 -0.24170708777E+02  0.31108723003E+02  0.41800000000E+01 0.  1.
         -5    1    1    2    0  502  0.17241433447E+02  0.52571862593E+01  0.14120096315E+03  0.14240817894E+03  0.41800000000E+01 0.  1.
        -11    1    1    2    0    0  0.93773037173E+01  0.31819159626E+02  0.13168555847E+03  0.13579940741E+03  0.00000000000E+00 0. -1.
         11    1    1    2    0    0 -0.23058071897E+02 -0.55874716743E+02  0.14511997854E+03  0.15720517429E+03  0.00000000000E+00 0.  1.
</event>
<event>
 6    1  0.4988969E-006  0.1040201E+03  0.7561462E-02  0.1272062E+00
          2   -1    0    0  501    0  0.00000000000E+00  0.00000000000E+00  0.11092502704E+03  0.11092502704E+03  0.00000000000E+00 0. -1.
         -2   -1    0    0    0  501 -0.00000000000E+00 -0.00000000000E+00 -0.18164949109E+03  0.18164949109E+03  0.00000000000E+00 0.  1.
          5    1    1    2  502    0  0.81187132974E+02  0.34145592461E+02 -0.92375231315E+02  0.12770249726E+03  0.41800000000E+01 0.  1.
         -5    1    1    2    0  502  0.39416260839E+01 -0.77972433158E+01  0.34949408069E+02  0.36266609214E+02  0.41800000000E+01 0.  1.
        -11    1    1    2    0    0 -0.32673004785E+02 -0.44026629018E+02 -0.39291960544E+02  0.67451667642E+02  0.00000000000E+00 0.  1.
         11    1    1    2    0    0 -0.52455754273E+02  0.17678279873E+02  0.25993319746E+02  0.61153744015E+02  0.00000000000E+00 0. -1.
</event>
<event>
 6    1  0.4988969E-006  0.1259894E+03  0.7561462E-02  0.1233531E+00
         -1   -1    0    0    0  501 -0.00000000000E+00  0.00000000000E+00  0.37101621544E+02  0.37101621544E+02  0.00000000000E+00 0.  1.
          1   -1    0    0  501    0  0.00000000000E+00 -0.00000000000E+00 -0.74420403490E+03  0.74420403490E+03  0.00000000000E+00 0. -1.
          5    1    1    2  502    0  0.13764850127E+02  0.27132076882E+01 -0.14515695256E+03  0.14589326876E+03  0.41800000000E+01 0. -1.
         -5    1    1    2    0  502 -0.35210480988E+01  0.10077940687E+03 -0.65725843324E+02  0.12044187606E+03  0.41800000000E+01 0. -1.
        -11    1    1    2    0    0  0.21732250710E+02  0.58368787553E+01 -0.58691142179E+02  0.62857060422E+02  0.00000000000E+00 0.  1.
         11    1    1    2    0    0 -0.31976052738E+02 -0.10932949332E+03 -0.43752847529E+03  0.45211345119E+03  0.00000000000E+00 0. -1.
</event>
<event>
 6    1  0.4988969E-006  0.1091527E+03  0.7561462E-02  0.1262147E+00
          1   -1    0    0  501    0  0.00000000000E+00  0.00000000000E+00  0.66675206461E+02  0.66675206461E+02  0.00000000000E+00 0. -1.
         -1   -1    0    0    0  501 -0.00000000000E+00 -0.00000000000E+00 -0.20205491665E+03  0.20205491665E+03  0.00000000000E+00 0.  1.
          5    1    1    2  502    0  0.63281077357E+02  0.25472564301E+02 -0.19787158230E+02  0.71150195463E+02  0.41800000000E+01 0.  1.
         -5    1    1    2    0  502 -0.32997428365E+02 -0.40024148352E+02 -0.66767437101E+02  0.84652972700E+02  0.41800000000E+01 0.  1.
        -11    1    1    2    0    0 -0.53252634793E+02  0.37749936457E+02 -0.17265194506E+02  0.67520276631E+02  0.00000000000E+00 0. -1.
         11    1    1    2    0    0  0.22968985802E+02 -0.23198352407E+02 -0.31559920352E+02  0.45406678317E+02  0.00000000000E+00 0.  1.
</event>
<event>
 6    1  0.4988969E-006  0.1685596E+03  0.7561462E-02  0.1179358E+00
         -1   -1    0    0    0  501 -0.00000000000E+00  0.00000000000E+00  0.81736210364E+03  0.81736210364E+03  0.00000000000E+00 0.  1.
          1   -1    0    0  501    0  0.00000000000E+00 -0.00000000000E+00 -0.39950919850E+02  0.39950919850E+02  0.00000000000E+00 0. -1.
          5    1    1    2  502    0  0.63749481780E+02  0.94133089945E+02  0.42061920123E+03  0.43573273906E+03  0.41800000000E+01 0.  1.
         -5    1    1    2    0  502  0.52999603674E+02 -0.28879907270E+02  0.10917191173E+03  0.12481580727E+03  0.41800000000E+01 0.  1.
        -11    1    1    2    0    0 -0.66115134333E+02 -0.85705652399E+02  0.17730322121E+03  0.20773324744E+03  0.00000000000E+00 0.  1.
         11    1    1    2    0    0 -0.50633951121E+02  0.20452469725E+02  0.70316849619E+02  0.89031229713E+02  0.00000000000E+00 0. -1.
</event>
<event>
 6    1  0.4988969E-006  0.2225093E+03  0.7561462E-02  0.1132026E+00
          1   -1    0    0  501    0  0.00000000000E+00  0.00000000000E+00  0.47598302840E+03  0.47598302840E+03  0.00000000000E+00 0. -1.
         -1   -1    0    0    0  501 -0.00000000000E+00 -0.00000000000E+00 -0.11794218835E+03  0.11794218835E+03  0.00000000000E+00 0.  1.
          5    1    1    2  502    0  0.57612898148E+02 -0.54670708351E+02 -0.18096291235E+01  0.79554255336E+02  0.41800000000E+01 0. -1.
         -5    1    1    2    0  502  0.12587495474E+02 -0.14045878385E+03  0.14249766209E+03  0.20052473938E+03  0.41800000000E+01 0. -1.
        -11    1    1    2    0    0 -0.89973925465E+02  0.17080592944E+03  0.17104976148E+03  0.25793021091E+03  0.00000000000E+00 0.  1.
         11    1    1    2    0    0  0.19773531843E+02  0.24323562763E+02  0.46303045608E+02  0.55916011121E+02  0.00000000000E+00 0. -1.
</event>
<event>
 6    1  0.4988969E-006  0.1211119E+03  0.7561462E-02  0.1241274E+00
          3   -1    0    0  501    0  0.00000000000E+00  0.00000000000E+00  0.12981466891E+03  0.12981466891E+03  0.00000000000E+00 0. -1.
         -3   -1    0    0    0  501 -0.00000000000E+00 -0.00000000000E+00 -0.18553969290E+03  0.18553969290E+03  0.00000000000E+00 0.  1.
          5    1    1    2  502    0 -0.41378374857E+02 -0.11234342098E+02 -0.81619300040E+02  0.92290643552E+02  0.41800000000E+01 0. -1.
         -5    1    1    2    0  502  0.36191211471E+02  0.79232937769E+02 -0.35333040298E+02  0.94093349137E+02  0.41800000000E+01 0.  1.
        -11    1    1    2    0    0 -0.31606289498E+02  0.32256557106E+01  0.27420451186E+02  0.41967172097E+02  0.00000000000E+00 0.  1.
         11    1    1    2    0    0  0.36793452884E+02 -0.71224251382E+02  0.33806865167E+02  0.87003197025E+02  0.00000000000E+00 0. -1.
</event>
<event>
 6    1  0.4988969E-006  0.1272110E+03  0.7561462E-02  0.1231654E+00
         -2   -1    0    0    0  501 -0.00000000000E+00  0.00000000000E+00  0.18796614789E+02  0.18796614789E+02  0.00000000000E+00 0.  1.
          2   -1    0    0  501    0  0.00000000000E+00 -0.00000000000E+00 -0.11613967001E+04  0.11613967001E+04  0.00000000000E+00 0. -1.
          5    1    1    2  502    0  0.58255397417E+01  0.23052684472E+02 -0.31884960874E+02  0.39993578291E+02  0.41800000000E+01 0. -1.
         -5    1    1    2    0  502  0.31128686604E+02 -0.11700346969E+03 -0.59192553551E+03  0.60419543116E+03  0.41800000000E+01 0. -1.
        -11    1    1    2    0    0 -0.11602945829E+02 -0.22589405418E+00 -0.43377267662E+01  0.12389320140E+02  0.00000000000E+00 0.  1.
         11    1    1    2    0    0 -0.25351280517E+02  0.94176679274E+02 -0.51445186213E+03  0.52361498526E+03  0.00000000000E+00 0. -1.
</event>
<event>
 6    1  0.4988969E-006  0.1004255E+03  0.7561462E-02  0.1279404E+00
          1   -1    0    0  501    0  0.00000000000E+00  0.00000000000E+00  0.18725243642E+03  0.18725243642E+03  0.00000000000E+00 0. -1.
         -1   -1    0    0    0  501 -0.00000000000E+00 -0.00000000000E+00 -0.79761312644E+02  0.79761312644E+02  0.00000000000E+00 0.  1.
          5    1    1    2  502    0 -0.47657553529E+02 -0.57105875605E+02 -0.24663595561E+02  0.78473490957E+02  0.41800000000E+01 0. -1.
         -5    1    1    2    0  502  0.18801643465E+02  0.29864263934E+02  0.40233556652E+02  0.53680420436E+02  0.41800000000E+01 0. -1.
        -11    1    1    2    0    0  0.32640257043E+02 -0.23319659165E+02  0.15198966548E+02  0.42897569483E+02  0.00000000000E+00 0.  1.
         11    1    1    2    0    0 -0.37843469794E+01  0.50561270836E+02  0.76722196139E+02  0.91962268192E+02  0.00000000000E+00 0. -1.
</event>
<event>
 6    1  0.4988969E-006  0.7718997E+02  0.7561462E-02  0.1337220E+00
         -2   -1    0    0    0  501 -0.00000000000E+00  0.00000000000E+00  0.57274620441E+02  0.57274620441E+02  0.00000000000E+00 0. -1.
          2   -1    0    0  501    0  0.00000000000E+00 -0.00000000000E+00 -0.23802212717E+03  0.23802212717E+03  0.00000000000E+00 0.  1.
          5    1    1    2  502    0  0.45692366994E+02 -0.20518838090E+02  0.13266781077E+02  0.51983603167E+02  0.41800000000E+01 0.  1.
         -5    1    1    2    0  502 -0.51759173696E+02 -0.39779578655E+01 -0.71040016533E+02  0.88085143806E+02  0.41800000000E+01 0.  1.
        -11    1    1    2    0    0 -0.12335116895E+02  0.30322834520E+02 -0.13047552984E+03  0.13451949037E+03  0.00000000000E+00 0.  1.
         11    1    1    2    0    0  0.18401923597E+02 -0.58260385643E+01  0.75012585677E+01  0.20708510268E+02  0.00000000000E+00 0. -1.
</event>
<event>
 6    1  0.4988969E-006  0.1157541E+03  0.7561462E-02  0.1250270E+00
         -1   -1    0    0    0  501 -0.00000000000E+00  0.00000000000E+00  0.44247726658E+02  0.44247726658E+02  0.00000000000E+00 0.  1.
          1   -1    0    0  501    0  0.00000000000E+00 -0.00000000000E+00 -0.55309966723E+03  0.55309966723E+03  0.00000000000E+00 0. -1.
          5    1    1    2  502    0  0.15538701855E+01 -0.15933579455E+02 -0.92951434682E+02  0.94412579015E+02  0.41800000000E+01 0.  1.
         -5    1    1    2    0  502  0.34246931407E+02  0.86320827642E+02 -0.29211005276E+02  0.97441740671E+02  0.41800000000E+01 0.  1.
        -11    1    1    2    0    0  0.47478114038E+01  0.21260848491E+02 -0.73429351379E+02  0.76592656538E+02  0.00000000000E+00 0.  1.
         11    1    1    2    0    0 -0.40548612997E+02 -0.91648096678E+02 -0.31326014923E+03  0.32890041766E+03  0.00000000000E+00 0. -1.
</event>
<event>
 6    1  0.4988969E-006  0.1295740E+03  0.7561462E-02  0.1228089E+00
         -1   -1    0    0    0  501 -0.00000000000E+00  0.00000000000E+00  0.21959270266E+03  0.21959270266E+03  0.00000000000E+00 0.  1.
          1   -1    0    0  501    0  0.00000000000E+00 -0.00000000000E+00 -0.11103490044E+03  0.11103490044E+03  0.00000000000E+00 0. -1.
          5    1    1    2  502    0  0.65248943935E+02  0.53655530835E+02  0.70241283148E+02  0.10994385354E+03  0.41800000000E+01 0.  1.
         -5    1    1    2    0  502 -0.58281370963E+02  0.45821524854E+02  0.40070400723E+02  0.84376772606E+02  0.41800000000E+01 0.  1.
        -11    1    1    2    0    0  0.27455793351E+01 -0.35079151432E+02  0.44277009067E+02  0.56555623973E+02  0.00000000000E+00 0.  1.
         11    1    1    2    0    0 -0.97131523069E+01 -0.64397904257E+02 -0.46030890719E+02  0.79751352972E+02  0.00000000000E+00 0. -1.
</event>
<event>
 6    1  0.4988969E-006  0.9987429E+02  0.7561462E-02  0.1280561E+00
         -2   -1    0    0    0  501 -0.00000000000E+00  0.00000000000E+00  0.27986141233E+03  0.27986141233E+03  0.00000000000E+00 0.  1.
          2   -1    0    0  501    0  0.00000000000E+00 -0.00000000000E+00 -0.50119028723E+02  0.50119028723E+02  0.00000000000E+00 0. -1.
          5    1    1    2  502    0 -0.53569939171E+02 -0.35326743691E+02  0.15356495917E+03  0.16648539361E+03  0.41800000000E+01 0.  1.
         -5    1    1    2    0  502  0.26793022323E+02  0.25301796033E+02  0.48904860017E+01  0.37409038761E+02  0.41800000000E+01 0.  1.
        -11    1    1    2    0    0  0.84338364351E+01  0.51930461591E+02  0.17427592832E+02  0.55422228663E+02  0.00000000000E+00 0. -1.
         11    1    1    2    0    0  0.18343080413E+02 -0.41905513934E+02  0.53859345610E+02  0.70663780019E+02  0.00000000000E+00 0.  1.
</event>
<event>
 6    1  0.4988969E-006  0.2687834E+03  0.7561462E-02  0.1101978E+00
         -2   -1    0    0    0  501 -0.00000000000E+00  0.00000000000E+00  0.28630767325E+03  0.28630767325E+03  0.00000000000E+00 0.  1.
          2   -1    0    0  501    0  0.00000000000E+00 -0.00000000000E+00 -0.28338593652E+03  0.28338593652E+03  0.00000000000E+00 0. -1.
          5    1    1    2  502    0  0.39686545291E+02 -0.29386363647E+02 -0.28883023479E+02  0.57360977074E+02  0.41800000000E+01 0.  1.
         -5    1    1    2    0  502  0.21570616345E+02 -0.22390389595E+03  0.63461176306E+02  0.23375850660E+03  0.41800000000E+01 0.  1.
        -11    1    1    2    0    0 -0.20230823321E+01  0.77513542809E+02  0.29948616621E+02  0.83122571053E+02  0.00000000000E+00 0.  1.
         11    1    1    2    0    0 -0.59234079304E+02  0.17577671679E+03 -0.61605032718E+02  0.19545155505E+03  0.00000000000E+00 0. -1.
</event>
<event>
 6    1  0.4988969E-006  0.1153454E+03  0.7561462E-02  0.1250979E+00
          4   -1    0    0  501    0  0.00000000000E+00  0.00000000000E+00  0.27186476951E+03  0.27186476951E+03  0.00000000000E+00 0. -1.
         -4   -1    0    0    0  501 -0.00000000000E+00 -0.00000000000E+00 -0.10815657818E+03  0.10815657818E+03  0.00000000000E+00 0.  1.
          5    1    1    2  502    0 -0.69220119978E+02 -0.73428842108E+02 -0.51267089947E+02  0.11326520549E+03  0.41800000000E+01 0.  1.
         -5    1    1    2    0  502  0.28483066826E+02 -0.56409425175E+01  0.29682674360E+02  0.41732947241E+02  0.41800000000E+01 0.  1.
        -11    1    1    2    0    0  0.47877564748E+02  0.45546325024E+02  0.17815064241E+03  0.19001152681E+03  0.00000000000E+00 0. -1.
         11    1    1    2    0    0 -0.71405115949E+01  0.33523459602E+02  0.71419645158E+01  0.35011668150E+02  0.00000000000E+00 0.  1.
</event>
<event>
 6    1  0.4988969E-006  0.9621761E+02  0.7561462E-02  0.1288457E+00
         -2   -1    0    0    0  501 -0.00000000000E+00  0.00000000000E+00  0.33992095904E+03  0.33992095904E+03  0.00000000000E+00 0.  1.
          2   -1    0    0  501    0  0.00000000000E+00 -0.00000000000E+00 -0.23476107345E+03  0.23476107345E+03  0.00000000000E+00 0. -1.
          5    1    1    2  502    0  0.25055182585E+02 -0.37619883168E+02  0.48920900417E+02  0.66736381993E+02  0.41800000000E+01 0. -1.
         -5    1    1    2    0  502 -0.20620312137E+02  0.64498128261E+02  0.26417251186E+03  0.27274492524E+03  0.41800000000E+01 0.  1.
        -11    1    1    2    0    0 -0.16449679990E+02  0.22785658142E+02 -0.85512577928E+01  0.29375196997E+02  0.00000000000E+00 0.  1.
         11    1    1    2    0    0  0.12014809542E+02 -0.49663903235E+02 -0.19938226890E+03  0.20582552826E+03  0.00000000000E+00 0. -1.
</event>
<event>
 6    1  0.4988969E-006  0.1046435E+03  0.7561462E-02  0.1270824E+00
         -1   -1    0    0    0  501 -0.00000000000E+00  0.00000000000E+00  0.27792294268E+03  0.27792294268E+03  0.00000000000E+00 0.  1.
          1   -1    0    0  501    0  0.00000000000E+00 -0.00000000000E+00 -0.61984184572E+02  0.61984184572E+02  0.00000000000E+00 0. -1.
          5    1    1    2  502    0 -0.47326326662E+02 -0.50651096448E+02  0.12716197871E+03  0.14488946130E+03  0.41800000000E+01 0. -1.
         -5    1    1    2    0  502  0.52401878150E+02  0.58719880726E+02  0.72502300249E+02  0.10708892178E+03  0.41800000000E+01 0.  1.
        -11    1    1    2    0    0 -0.25124095889E+02  0.15936245609E+02 -0.23083753563E+02  0.37656922297E+02  0.00000000000E+00 0. -1.
         11    1    1    2    0    0  0.20048544401E+02 -0.24005029887E+02  0.39358232716E+02  0.50271821879E+02  0.00000000000E+00 0.  1.
</event>
<event>
 6    1  0.4988969E-006  0.1554071E+03  0.7561462E-02  0.1193982E+00
          1   -1    0    0  501    0  0.00000000000E+00  0.00000000000E+00  0.58509026060E+02  0.58509026060E+02  0.00000000000E+00 0. -1.
         -1   -1    0    0    0  501 -0.00000000000E+00 -0.00000000000E+00 -0.51284066088E+03  0.51284066088E+03  0.00000000000E+00 0.  1.
          5    1    1    2  502    0 -0.97334831452E+02  0.19083987938E+01 -0.67476600335E+02  0.11852542087E+03  0.41800000000E+01 0. -1.
         -5    1    1    2    0  502 -0.36998028627E+02 -0.39555924532E+02 -0.17145249062E+03  0.17985259028E+03  0.41800000000E+01 0.  1.
        -11    1    1    2    0    0  0.79085339710E+02  0.60183481868E+02 -0.17388614600E+03  0.20028213654E+03  0.00000000000E+00 0. -1.
         11    1    1    2    0    0  0.55247520369E+02 -0.22535956130E+02 -0.41516397868E+02  0.72689539259E+02  0.00000000000E+00 0.  1.
</event>
<event>
 6    1  0.4988969E-006  0.1736942E+03  0.7561462E-02  0.1174049E+00
          2   -1    0    0  501    0  0.00000000000E+00  0.00000000000E+00  0.58547449620E+03  0.58547449620E+03  0.00000000000E+00 0. -1.
         -2   -1    0    0    0  501 -0.00000000000E+00 -0.00000000000E+00 -0.98288087104E+02  0.98288087104E+02  0.00000000000E+00 0.  1.
          5    1    1    2  502    0 -0.18453984365E+01  0.31433898632E+02 -0.21721312567E+02  0.38480947211E+02  0.41800000000E+01 0. -1.
         -5    1    1    2    0  502 -0.15509116894E+03  0.11016295528E+01  0.71515741823E+02  0.17084044603E+03  0.41800000000E+01 0. -1.
        -11    1    1    2    0    0  0.75985218658E+02 -0.19832867448E+02  0.33079568621E+03  0.33998953234E+03  0.00000000000E+00 0. -1.
         11    1    1    2    0    0  0.80951348719E+02 -0.12702660738E+02  0.10659629363E+03  0.13445165772E+03  0.00000000000E+00 0.  1.
</event>
<event>
 6    1  0.4988969E-006  0.1294274E+03  0.7561462E-02  0.1228308E+00
         -2   -1    0    0    0  501 -0.00000000000E+00  0.00000000000E+00  0.10602790419E+03  0.10602790419E+03  0.00000000000E+00 0.  1.
          2   -1    0    0  501    0  0.00000000000E+00 -0.00000000000E+00 -0.19268257818E+03  0.19268257818E+03  0.00000000000E+00 0. -1.
          5    1    1    2  502    0 -0.12981971968E+02  0.82185951891E+02  0.20528322100E+02  0.85801787235E+02  0.41800000000E+01 0. -1.
         -5    1    1    2    0  502  0.54208166020E+02 -0.22601778950E+02 -0.74448761284E+01  0.59348666839E+02  0.41800000000E+01 0. -1.
        -11    1    1    2    0    0  0.25423721359E+02 -0.39644858146E+02 -0.43322658930E+02  0.63991664784E+02  0.00000000000E+00 0. -1.
         11    1    1    2    0    0 -0.66649915411E+02 -0.19939314795E+02 -0.56415461026E+02  0.89568363509E+02  0.00000000000E+00 0.  1.
</event>
<event>
 6    1  0.4988969E-006  0.2270666E+03  0.7561462E-02  0.1128722E+00
          1   -1    0    0  501    0  0.00000000000E+00  0.00000000000E+00  0.11129851595E+04  0.11129851595E+04  0.00000000000E+00 0. -1.
         -1   -1    0    0    0  501 -0.00000000000E+00 -0.00000000000E+00 -0.15449031820E+03  0.15449031820E+03  0.00000000000E+00 0.  1.
          5    1    1    2  502    0 -0.99458623283E+02  0.86684165999E+01  0.43375756142E+02  0.10893157399E+03  0.41800000000E+01 0.  1.
         -5    1    1    2    0  502 -0.11424410543E+03 -0.44872924917E+02 -0.73507024749E+02  0.14312948719E+03  0.41800000000E+01 0.  1.
        -11    1    1    2    0    0  0.17958789305E+03 -0.27607419394E+01  0.78825415486E+03  0.80845781936E+03  0.00000000000E+00 0. -1.
         11    1    1    2    0    0  0.34114835667E+02  0.38965250256E+02  0.20037195504E+03  0.20695659716E+03  0.00000000000E+00 0.  1.
</event>
<event>
 6    1  0.4988969E-006  0.8805628E+02  0.7561462E-02  0.1307628E+00
          3   -1    0    0  501    0  0.00000000000E+00  0.00000000000E+00  0.17045884189E+03  0.17045884189E+03  0.00000000000E+00 0.  1.
         -3   -1    0    0    0  501 -0.00000000000E+00 -0.00000000000E+00 -0.98398728775E+02  0.98398728775E+02  0.00000000000E+00 0. -1.
          5    1    1    2  502    0 -0.18145571814E+02 -0.53779119965E+02  0.62491272648E+02  0.84522701553E+02  0.41800000000E+01 0.  1.
         -5    1    1    2    0  502  0.23742180059E+01 -0.95534700878E+01 -0.55713748566E+02  0.56730942890E+02  0.41800000000E+01 0.  1.
        -11    1    1    2    0    0 -0.31742913257E+02  0.32535186035E+01  0.27832081718E+02  0.42341737070E+02  0.00000000000E+00 0.  1.
         11    1    1    2    0    0  0.47514267065E+02  0.60079071449E+02  0.37450507316E+02  0.85262189153E+02  0.00000000000E+00 0. -1.
</event>
<event>
 6    1  0.4988969E-006  0.1433517E+03  0.7561462E-02  0.1208889E+00
         -1   -1    0    0    0  501 -0.00000000000E+00  0.00000000000E+00  0.56288929434E+02  0.56288929434E+02  0.00000000000E+00 0.  1.
          1   -1    0    0  501    0  0.00000000000E+00 -0.00000000000E+00 -0.43043608663E+03  0.43043608663E+03  0.00000000000E+00 0. -1.
          5    1    1    2  502    0  0.18602488407E+02  0.51185271613E+02 -0.21143577130E+02  0.58570537465E+02  0.41800000000E+01 0.  1.
         -5    1    1    2    0  502 -0.99554923722E+02  0.22869644879E+01 -0.95929454155E+02  0.13833418095E+03  0.41800000000E+01 0.  1.
        -11    1    1    2    0    0  0.30882291590E+02  0.24724429611E+02 -0.97132084688E+02  0.10487924117E+03  0.00000000000E+00 0.  1.
         11    1    1    2    0    0  0.50070143726E+02 -0.78196665712E+02 -0.15994204123E+03  0.18494105648E+03  0.00000000000E+00 0. -1.
</event>
<event>
 6    1  0.4988969E-006  0.9036260E+02  0.7561462E-02  0.1301976E+00
         -1   -1    0    0    0  501 -0.00000000000E+00  0.00000000000E+00  0.87362073318E+02  0.87362073318E+02  0.00000000000E+00 0.  1.
          1   -1    0    0  501    0  0.00000000000E+00 -0.00000000000E+00 -0.21700849123E+03  0.21700849123E+03  0.00000000000E+00 0. -1.
          5    1    1    2  502    0 -0.57700816904E+02 -0.24405754629E+02 -0.65965817356E+02  0.91071326936E+02  0.41800000000E+01 0. -1.
         -5    1    1    2    0  502 -0.38664504827E+01 -0.34368540408E+01  0.51416345133E+02  0.51844713827E+02  0.41800000000E+01 0. -1.
        -11    1    1    2    0    0  0.22311712540E+02 -0.32425242780E+02 -0.27024231485E+02  0.47744297808E+02  0.00000000000E+00 0.  1.
         11    1    1    2    0    0  0.39255554847E+02  0.60267851450E+02 -0.88072714207E+02  0.11371022598E+03  0.00000000000E+00 0. -1.
</event>
<event>
 6    1  0.4988969E-006  0.3079039E+03  0.7561462E-02  0.1081355E+00
          2   -1    0    0  501    0  0.00000000000E+00  0.00000000000E+00  0.13465649256E+04  0.13465649256E+04  0.00000000000E+00 0.  1.
         -2   -1    0    0    0  501 -0.00000000000E+00 -0.00000000000E+00 -0.76112643135E+02  0.76112643135E+02  0.00000000000E+00 0. -1.
          5    1    1    2  502    0 -0.46409127322E+02 -0.23588554237E+02  0.32884070136E+02  0.61717594400E+02  0.41800000000E+01 0. -1.
         -5    1    1    2    0  502 -0.20602667302E+03 -0.14006856447E+03  0.61261921881E+03  0.66135162538E+03  0.41800000000E+01 0. -1.
        -11    1    1    2    0    0  0.63472813165E+02  0.93163023456E+02  0.23033838022E+03  0.25644476277E+03  0.00000000000E+00 0.  1.
         11    1    1    2    0    0  0.18896298717E+03  0.70494095246E+02  0.39461061332E+03  0.44316358619E+03  0.00000000000E+00 0. -1.
</event>
<event>
 6    1  0.4988969E-006  0.1123665E+03  0.7561462E-02  0.1256249E+00
         -4   -1    0    0    0  501 -0.00000000000E+00  0.00000000000E+00  0.66556911870E+03  0.66556911870E+03  0.00000000000E+00 0.  1.
          4   -1    0    0  501    0  0.00000000000E+00 -0.00000000000E+00 -0.26390554162E+02  0.26390554162E+02  0.00000000000E+00 0. -1.
          5    1    1    2  502    0  0.32063179510E+02  0.40935987811E+02  0.18115081778E+03  0.18851231727E+03  0.41800000000E+01 0. -1.
         -5    1    1    2    0  502 -0.83758991071E+02 -0.16213621202E+02  0.30284562193E+03  0.31466075894E+03  0.41800000000E+01 0. -1.
        -11    1    1    2    0    0  0.20672132377E+02 -0.45388359066E+02  0.13985498987E+03  0.14848184531E+03  0.00000000000E+00 0.  1.
         11    1    1    2    0    0  0.31023679185E+02  0.20665992457E+02  0.15327134953E+02  0.40304751336E+02  0.00000000000E+00 0. -1.
</event>
<event>
 6    1  0.4988969E-006  0.9899840E+02  0.7561462E-02  0.1282416E+00
          2   -1    0    0  501    0  0.00000000000E+00  0.00000000000E+00  0.53160450080E+02  0.53160450080E+02  0.00000000000E+00 0.  1.
         -2   -1    0    0    0  501 -0.00000000000E+00 -0.00000000000E+00 -0.33839351910E+03  0.33839351910E+03  0.00000000000E+00 0. -1.
          5    1    1    2  502    0 -0.61242102038E+02 -0.14749989076E+02 -0.23791139618E+03  0.24614520526E+03  0.41800000000E+01 0. -1.
         -5    1    1    2    0  502  0.36532722233E+02  0.14251773470E+02 -0.26827260771E+02  0.47696196507E+02  0.41800000000E+01 0. -1.
        -11    1    1    2    0    0 -0.14719644159E+02 -0.37736421017E+02 -0.11024942764E+02  0.41979218171E+02  0.00000000000E+00 0.  1.
         11    1    1    2    0    0  0.39429023964E+02  0.38234636623E+02 -0.94694693018E+01  0.55733349238E+02  0.00000000000E+00 0. -1.
</event>
<event>
 6    1  0.4988969E-006  0.1055644E+03  0.7561462E-02  0.1269012E+00
          3   -1    0    0  501    0  0.00000000000E+00  0.00000000000E+00  0.35958399370E+03  0.35958399370E+03  0.00000000000E+00 0. -1.
         -3   -1    0    0    0  501 -0.00000000000E+00 -0.00000000000E+00 -0.67571464611E+02  0.67571464611E+02  0.00000000000E+00 0.  1.
          5    1    1    2  502    0  0.74148110122E+02 -0.68859409850E+01  0.55816676267E+02  0.93157566345E+02  0.41800000000E+01 0.  1.
         -5    1    1    2    0  502 -0.26166317108E+02 -0.12902426694E+02 -0.32923181199E+02  0.44187747463E+02  0.41800000000E+01 0.  1.
        -11    1    1    2    0    0  0.24629836627E+02  0.23932518097E+02  0.74122331083E+02  0.81691579982E+02  0.00000000000E+00 0.  1.
         11    1    1    2    0    0 -0.72611629641E+02 -0.41441504180E+01  0.19499670294E+03  0.20811856452E+03  0.00000000000E+00 0. -1.
</event>
<event>
 6    1  0.4988969E-006  0.3159848E+03  0.7561462E-02  0.1077512E+00
         -2   -1    0    0    0  501 -0.00000000000E+00  0.00000000000E+00  0.85682713315E+02  0.85682713315E+02  0.00000000000E+00 0.  1.
          2   -1    0    0  501    0  0.00000000000E+00 -0.00000000000E+00 -0.15114962287E+04  0.15114962287E+04  0.00000000000E+00 0. -1.
          5    1    1    2  502    0  0.16534668935E+03  0.20529862771E+03 -0.90468214970E+03  0.94231328050E+03  0.41800000000E+01 0. -1.
         -5    1    1    2    0  502 -0.18069047934E+03 -0.21331676013E+03 -0.27077180111E+03  0.38921450404E+03  0.41800000000E+01 0.  1.
        -11    1    1    2    0    0  0.20837281566E+02  0.45929477136E+02 -0.14806634809E+03  0.15642043540E+03  0.00000000000E+00 0.  1.
         11    1    1    2    0    0 -0.54934915785E+01 -0.37911344714E+02 -0.10229321647E+03  0.10923072207E+03  0.00000000000E+00 0. -1.
</event>
<event>
 6    1  0.4988969E-006  0.1368530E+03  0.7561462E-02  0.1217627E+00
          1   -1    0    0  501    0  0.00000000000E+00  0.00000000000E+00  0.43309570198E+02  0.43309570198E+02  0.00000000000E+00 0. -1.
         -1   -1    0    0    0  501 -0.00000000000E+00 -0.00000000000E+00 -0.55817855935E+03  0.55817855935E+03  0.00000000000E+00 0.  1.
          5    1    1    2  502    0  0.55880650892E+02  0.21265652896E+02 -0.12343156862E+03  0.13721406513E+03  0.41800000000E+01 0. -1.
         -5    1    1    2    0  502 -0.59426262568E+02  0.86985557442E+02 -0.20042401299E+03  0.22646241469E+03  0.41800000000E+01 0. -1.
        -11    1    1    2    0    0 -0.31317119877E-01 -0.36251507602E+02 -0.15114786095E+03  0.15543438697E+03  0.00000000000E+00 0.  1.
         11    1    1    2    0    0  0.35769287957E+01 -0.71999702736E+02 -0.39865546600E+02  0.82377262757E+02  0.00000000000E+00 0. -1.
</event>
<event>
 6    1  0.4988969E-006  0.1785004E+03  0.7561462E-02  0.1169262E+00
          1   -1    0    0  501    0  0.00000000000E+00  0.00000000000E+00  0.74716414509E+02  0.74716414509E+02  0.00000000000E+00 0. -1.
         -1   -1    0    0    0  501 -0.00000000000E+00 -0.00000000000E+00 -0.50245746791E+03  0.50245746791E+03  0.00000000000E+00 0.  1.
          5    1    1    2  502    0  0.12703488153E+03 -0.94497379952E+02 -0.26017155662E+03  0.30458878380E+03  0.41800000000E+01 0. -1.
         -5    1    1    2    0  502 -0.28203258610E+02 -0.81674070859E+01 -0.73202960020E+02  0.78982758185E+02  0.41800000000E+01 0. -1.
        -11    1    1    2    0    0 -0.98645958444E+02  0.40244619561E+02 -0.56495030053E+02  0.12059163711E+03  0.00000000000E+00 0. -1.
         11    1    1    2    0    0 -0.18566448066E+00  0.62420167476E+02 -0.37871506712E+02  0.73010703323E+02  0.00000000000E+00 0.  1.
</event>
<event>
 6    1  0.4988969E-006  0.9975970E+02  0.7561462E-02  0.1280802E+00
         -2   -1    0    0    0  501 -0.00000000000E+00  0.00000000000E+00  0.24186372171E+02  0.24186372171E+02  0.00000000000E+00 0.  1.
          2   -1    0    0  501    0  0.00000000000E+00 -0.00000000000E+00 -0.49874281428E+03  0.49874281428E+03  0.00000000000E+00 0. -1.
          5    1    1    2  502    0  0.49940453919E+02  0.15228617117E+02 -0.60627312647E+02  0.80119305761E+02  0.41800000000E+01 0.  1.
         -5    1    1    2    0  502 -0.63095634366E+02 -0.75802228053E+01 -0.19013488772E+03  0.20051749745E+03  0.41800000000E+01 0.  1.
        -11    1    1    2    0    0  0.92679404534E+01  0.37251507748E+02 -0.51688936625E+02  0.64384126298E+02  0.00000000000E+00 0.  1.
         11    1    1    2    0    0  0.38872399935E+01 -0.44899902059E+02 -0.17210530511E+03  0.17790825694E+03  0.00000000000E+00 0. -1.
</event>
<event>
 6    1  0.4988969E-006  0.2993789E+02  0.7561462E-02  0.1598776E+00
         -1   -1    0    0    0  501 -0.00000000000E+00  0.00000000000E+00  0.13164766276E+03  0.13164766276E+03  0.00000000000E+00 0.  1.
          1   -1    0    0  501    0  0.00000000000E+00 -0.00000000000E+00 -0.98135374306E+02  0.98135374306E+02  0.00000000000E+00 0. -1.
          5    1    1    2  502    0 -0.92805655472E+01  0.68771497110E+01  0.95841513882E+02  0.96625525966E+02  0.41800000000E+01 0.  1.
         -5    1    1    2    0  502 -0.52591022263E+00 -0.11077670784E+02 -0.39310944473E+02  0.41058666892E+02  0.41800000000E+01 0.  1.
        -11    1    1    2    0    0 -0.48344595533E+01 -0.12576038468E+02  0.30929363656E+02  0.33736542189E+02  0.00000000000E+00 0.  1.
         11    1    1    2    0    0  0.14640935323E+02  0.16776559541E+02 -0.53947644615E+02  0.58362302016E+02  0.00000000000E+00 0. -1.
</event>
<event>
 6    1  0.4988969E-006  0.1301237E+03  0.7561462E-02  0.1227272E+00
         -1   -1    0    0    0  501 -0.00000000000E+00  0.00000000000E+00  0.10989811847E+03  0.10989811847E+03  0.00000000000E+00 0.  1.
          1   -1    0    0  501    0  0.00000000000E+00 -0.00000000000E+00 -0.16802477728E+03  0.16802477728E+03  0.00000000000E+00 0. -1.
          5    1    1    2  502    0 -0.29138969610E+02  0.85114402851E+01  0.12997878493E+02  0.33285753875E+02  0.41800000000E+01 0. -1.
         -5    1    1    2    0  502  0.10383365013E+03 -0.12700471752E+02 -0.55752946544E+02  0.11861109700E+03  0.41800000000E+01 0. -1.
        -11    1    1    2    0    0 -0.22922239126E+02 -0.46884907464E+02 -0.31700851144E+01  0.52284539150E+02  0.00000000000E+00 0.  1.
         11    1    1    2    0    0 -0.51772441399E+02  0.51073938931E+02 -0.12201505643E+02  0.73741505723E+02  0.00000000000E+00 0. -1.
</event>
<event>
 6    1  0.4988969E-006  0.1124221E+03  0.7561462E-02  0.1256149E+00
          4   -1    0    0  501    0  0.00000000000E+00  0.00000000000E+00  0.17226932353E+02  0.17226932353E+02  0.00000000000E+00 0. -1.
         -4   -1    0    0    0  501 -0.00000000000E+00 -0.00000000000E+00 -0.12476394234E+04  0.12476394234E+04  0.00000000000E+00 0.  1.
          5    1    1    2  502    0 -0.47100958172E+02 -0.19192279871E+01 -0.65339540128E+02  0.80677825955E+02  0.41800000000E+01 0.  1.
         -5    1    1    2    0  502 -0.49683838975E+02  0.15893644765E+02 -0.64843136557E+03  0.65053962221E+03  0.41800000000E+01 0.  1.
        -11    1    1    2    0    0  0.23835663827E+02 -0.40973965016E+02 -0.11232127678E+03  0.12191420711E+03  0.00000000000E+00 0. -1.
         11    1    1    2    0    0  0.72949133320E+02  0.26999548239E+02 -0.40432030856E+03  0.41173470047E+03  0.00000000000E+00 0.  1.
</event>
<event>
 6    1  0.4988969E-006  0.2104802E+03  0.7561462E-02  0.1141186E+00
         -2   -1    0    0    0  501 -0.00000000000E+00  0.00000000000E+00  0.90810185857E+02  0.90810185857E+02  0.00000000000E+00 0. -1.
          2   -1    0    0  501    0  0.00000000000E+00 -0.00000000000E+00 -0.57324445925E+03  0.57324445925E+03  0.00000000000E+00 0.  1.
          5    1    1    2  502    0  0.15597955720E+03 -0.63211772044E+02 -0.20071968338E+03  0.26197559826E+03  0.41800000000E+01 0. -1.
         -5    1    1    2    0  502  0.14560031915E+02 -0.33019509815E+02  0.11046510112E+02  0.37970782760E+02  0.41800000000E+01 0. -1.
        -11    1    1    2    0    0 -0.10241038480E+03  0.51549668040E+01 -0.13087991546E+03  0.16626488766E+03  0.00000000000E+00 0.  1.
         11    1    1    2    0    0 -0.68129204313E+02  0.91076315056E+02 -0.16188118467E+03  0.19784337642E+03  0.00000000000E+00 0. -1.
</event>
<event>
 6    1  0.4988969E-006  0.9291777E+02  0.7561462E-02  0.1295936E+00
         -3   -1    0    0    0  501 -0.00000000000E+00  0.00000000000E+00  0.12579041645E+03  0.12579041645E+03  0.00000000000E+00 0.  1.
          3   -1    0    0  501    0  0.00000000000E+00 -0.00000000000E+00 -0.21964830023E+03  0.21964830023E+03  0.00000000000E+00 0. -1.
          5    1    1    2  502    0 -0.49210932942E+02  0.77382944693E+01  0.84655098904E+02  0.98313555997E+02  0.41800000000E+01 0.  1.
         -5    1    1    2    0  502 -0.38759917168E+02  0.15084374867E+02 -0.44882073215E+02  0.61333045254E+02  0.41800000000E+01 0.  1.
        -11    1    1    2    0    0  0.68527802025E+01 -0.96916234328E+01  0.13063054553E+02  0.17650256529E+02  0.00000000000E+00 0.  1.
         11    1    1    2    0    0  0.81118069908E+02 -0.13131045904E+02 -0.14669396402E+03  0.16814185889E+03  0.00000000000E+00 0. -1.
</event>
<event>
 6    1  0.4988969E-006  0.7754790E+02  0.7561462E-02  0.1336158E+00
          1   -1    0    0  501    0  0.00000000000E+00  0.00000000000E+00  0.16211067897E+02  0.16211067897E+02  0.00000000000E+00 0. -1.
         -1   -1    0    0    0  501 -0.00000000000E+00 -0.00000000000E+00 -0.84287485837E+03  0.84287485837E+03  0.00000000000E+00 0.  1.
          5    1    1    2  502    0 -0.27325807410E+02  0.32672755631E+01 -0.45436403602E+03  0.45521590973E+03  0.41800000000E+01 0. -1.
         -5    1    1    2    0  502 -0.20832802342E+01  0.28744588539E+02 -0.15577053457E+02  0.33025875025E+02  0.41800000000E+01 0. -1.
        -11    1    1    2    0    0 -0.30200697901E+02 -0.22755638903E+02 -0.18524609264E+03  0.18906616856E+03  0.00000000000E+00 0.  1.
         11    1    1    2    0    0  0.59609785546E+02 -0.92562251987E+01 -0.17147660835E+03  0.18177797295E+03  0.00000000000E+00 0. -1.
</event>
<event>
 6    1  0.4988969E-006  0.2761493E+03  0.7561462E-02  0.1097811E+00
         -1   -1    0    0    0  501 -0.00000000000E+00  0.00000000000E+00  0.55644374920E+03  0.55644374920E+03  0.00000000000E+00 0.  1.
          1   -1    0    0  501    0  0.00000000000E+00 -0.00000000000E+00 -0.16209919629E+03  0.16209919629E+03  0.00000000000E+00 0. -1.
          5    1    1    2  502    0  0.19341960837E+03  0.84162889586E+02  0.29400834213E+03  0.36187416947E+03  0.41800000000E+01 0. -1.
         -5    1    1    2    0  502  0.35743890826E+02  0.49334155747E+02  0.12540157968E+02  0.62339494837E+02  0.41800000000E+01 0. -1.
        -11    1    1    2    0    0 -0.50805200028E+02 -0.78689611703E+02  0.39035313904E+02  0.10147403151E+03  0.00000000000E+00 0.  1.
         11    1    1    2    0    0 -0.17835829917E+03 -0.54807433629E+02  0.48760738907E+02  0.19285524967E+03  0.00000000000E+00 0. -1.
</event>
<event>
 6    1  0.4988969E-006  0.1476051E+03  0.7561462E-02  0.1203447E+00
         -2   -1    0    0    0  501 -0.00000000000E+00  0.00000000000E+00  0.11938809714E+02  0.11938809714E+02  0.00000000000E+00 0.  1.
          2   -1    0    0  501    0  0.00000000000E+00 -0.00000000000E+00 -0.19447502818E+04  0.19447502818E+04  0.00000000000E+00 0. -1.
          5    1    1    2  502    0 -0.10280836351E+03 -0.22909664769E+01 -0.58853529338E+03  0.59746637737E+03  0.41800000000E+01 0. -1.
         -5    1    1    2    0  502  0.10587801644E+02  0.52607800376E+02 -0.56864821506E+03  0.57118993960E+03  0.41800000000E+01 0. -1.
        -11    1    1    2    0    0  0.49384491858E+02 -0.74419556298E+02 -0.53955097499E+03  0.54689336530E+03  0.00000000000E+00 0. -1.
         11    1    1    2    0    0  0.42836070002E+02  0.24102722399E+02 -0.23607698865E+03  0.24113940925E+03  0.00000000000E+00 0.  1.
</event>
<event>
 6    1  0.4988969E-006  0.1059803E+03  0.7561462E-02  0.1268200E+00
         -2   -1    0    0    0  501 -0.00000000000E+00  0.00000000000E+00  0.19931246628E+03  0.19931246628E+03  0.00000000000E+00 0.  1.
          2   -1    0    0  501    0  0.00000000000E+00 -0.00000000000E+00 -0.77020535905E+02  0.77020535905E+02  0.00000000000E+00 0. -1.
          5    1    1    2  502    0  0.69313071468E+02  0.72052186642E+01  0.60636124748E+02  0.92468530197E+02  0.41800000000E+01 0. -1.
         -5    1    1    2    0  502 -0.29231857757E+02 -0.54587989910E+02  0.62812435966E+01  0.62380097559E+02  0.41800000000E+01 0. -1.
        -11    1    1    2    0    0  0.11695063235E+02  0.14985827572E+02  0.57306763954E+02  0.60377269953E+02  0.00000000000E+00 0.  1.
         11    1    1    2    0    0 -0.51776276946E+02  0.32396943674E+02 -0.19322019181E+01  0.61107104480E+02  0.00000000000E+00 0. -1.
</event>
<event>
 6    1  0.4988969E-006  0.1101116E+03  0.7561462E-02  0.1260363E+00
         -1   -1    0    0    0  501 -0.00000000000E+00  0.00000000000E+00  0.61682946668E+02  0.61682946668E+02  0.00000000000E+00 0.  1.
          1   -1    0    0  501    0  0.00000000000E+00 -0.00000000000E+00 -0.26689779265E+03  0.26689779265E+03  0.00000000000E+00 0. -1.
          5    1    1    2  502    0 -0.24728673623E+02  0.33807958484E+02 -0.35833356509E+02  0.55280984025E+02  0.41800000000E+01 0.  1.
         -5    1    1    2    0  502  0.93054565044E+02 -0.36574044148E+02 -0.64873051622E+02  0.11925937283E+03  0.41800000000E+01 0.  1.
        -11    1    1    2    0    0 -0.29957996474E+02 -0.17470205744E+02 -0.10508448639E+03  0.11065911134E+03  0.00000000000E+00 0. -1.
         11    1    1    2    0    0 -0.38367894946E+02  0.20236291408E+02  0.57604854363E+00  0.43381271126E+02  0.00000000000E+00 0.  1.
</event>
<event>
 6    1  0.4988969E-006  0.2400293E+03  0.7561462E-02  0.1119773E+00
         -2   -1    0    0    0  501 -0.00000000000E+00  0.00000000000E+00  0.62459493692E+02  0.62459493692E+02  0.00000000000E+00 0.  1.
          2   -1    0    0  501    0  0.00000000000E+00 -0.00000000000E+00 -0.11073751331E+04  0.11073751331E+04  0.00000000000E+00 0. -1.
          5    1    1    2  502    0  0.14031029867E+02 -0.16931946634E+03 -0.17375063126E+03  0.24304877235E+03  0.41800000000E+01 0.  1.
         -5    1    1    2    0  502 -0.46007318246E+02 -0.53938150187E+02 -0.19013250111E+03  0.20296265114E+03  0.41800000000E+01 0.  1.
        -11    1    1    2    0    0  0.56210636593E+02  0.11310154466E+03 -0.27875174314E+03  0.30602962173E+03  0.00000000000E+00 0.  1.
         11    1    1    2    0    0 -0.24234348215E+02  0.11015607187E+03 -0.40228076393E+03  0.41779358161E+03  0.00000000000E+00 0. -1.
</event>
<event>
 6    1  0.7129110E-006  0.1027286E+03  0.7561462E-02  0.1274660E+00
         -1   -1    0    0    0  501 -0.00000000000E+00  0.00000000000E+00  0.28235802436E+02  0.28235802436E+02  0.00000000000E+00 0.  1.
          1   -1    0    0  501    0  0.00000000000E+00 -0.00000000000E+00 -0.48050025435E+03  0.48050025435E+03  0.00000000000E+00 0. -1.
          5    1    1    2  502    0  0.48040303801E+02 -0.14712855991E+02 -0.88223849808E+02  0.10161328159E+03  0.41800000000E+01 0. -1.
         -5    1    1    2    0  502 -0.64815704024E+02  0.43259374082E+02 -0.10137000076E+03  0.12792888019E+03  0.41800000000E+01 0. -1.
        -11    1    1    2    0    0  0.44143262442E+02 -0.17180653296E+02 -0.23105715757E+03  0.23586269847E+03  0.00000000000E+00 0. -1.
         11    1    1    2    0    0 -0.27367862220E+02 -0.11365864794E+02 -0.31613443779E+02  0.43331196528E+02  0.00000000000E+00 0.  1.
</event>
<event>
 6    1  0.4988969E-006  0.1168334E+03  0.7561462E-02  0.1248414E+00
         -1   -1    0    0    0  501 -0.00000000000E+00  0.00000000000E+00  0.41124804552E+03  0.41124804552E+03  0.00000000000E+00 0.  1.
          1   -1    0    0  501    0  0.00000000000E+00 -0.00000000000E+00 -0.34085850695E+02  0.34085850695E+02  0.00000000000E+00 0. -1.
          5    1    1    2  502    0 -0.22474083236E+02 -0.59105235807E+02  0.80700477315E+02  0.10260873626E+03  0.41800000000E+01 0.  1.
         -5    1    1    2    0  502  0.60257175599E+02  0.30552510310E+02  0.13900301233E+03  0.15460819168E+03  0.41800000000E+01 0.  1.
        -11    1    1    2    0    0 -0.35881897017E+01  0.57616408281E+02  0.81114008544E+02  0.99559067847E+02  0.00000000000E+00 0.  1.
         11    1    1    2    0    0 -0.34194902661E+02 -0.29063682784E+02  0.76344696634E+02  0.88557900433E+02  0.00000000000E+00 0. -1.
</event>
<event>
 6    1  0.4988969E-006  0.1441160E+03  0.7561462E-02  0.1207895E+00
         -2   -1    0    0    0  501 -0.00000000000E+00  0.00000000000E+00  0.16761066786E+03  0.16761066786E+03  0.00000000000E+00 0.  1.
          2   -1    0    0  501    0  0.00000000000E+00 -0.00000000000E+00 -0.15080354114E+03  0.15080354114E+03  0.00000000000E+00 0. -1.
          5    1    1    2  502    0  0.75253635476E+02 -0.89040959651E+02  0.30472743025E+02  0.12057140049E+03  0.41800000000E+01 0.  1.
         -5    1    1    2    0  502  0.29082326693E+02  0.39542402557E+02 -0.11913506828E+02  0.50683206004E+02  0.41800000000E+01 0.  1.
        -11    1    1    2    0    0 -0.52752784450E+01  0.17397472172E+02  0.32752532443E+02  0.37459698105E+02  0.00000000000E+00 0.  1.
         11    1    1    2    0    0 -0.99060683725E+02  0.32101084922E+02 -0.34504641920E+02  0.10969990441E+03  0.00000000000E+00 0. -1.
</event>
<event>
 6    1  0.4988969E-006  0.1071242E+03  0.7561462E-02  0.1265990E+00
          4   -1    0    0  501    0  0.00000000000E+00  0.00000000000E+00  0.20308810911E+03  0.20308810911E+03  0.00000000000E+00 0.  1.
         -4   -1    0    0    0  501 -0.00000000000E+00 -0.00000000000E+00 -0.10242863948E+03  0.10242863948E+03  0.00000000000E+00 0. -1.
          5    1    1    2  502    0  0.20225874211E+02  0.25174443579E+02 -0.47343211250E+02  0.57460339788E+02  0.41800000000E+01 0.  1.
         -5    1    1    2    0  502 -0.67442186327E+02 -0.40606838948E+02  0.16679210328E+02  0.80579354198E+02  0.41800000000E+01 0.  1.
        -11    1    1    2    0    0  0.70385851599E+02  0.28859714603E+02  0.85857040378E+02  0.11471042941E+03  0.00000000000E+00 0. -1.
         11    1    1    2    0    0 -0.23169539483E+02 -0.13427319234E+02  0.45466430176E+02  0.52766625196E+02  0.00000000000E+00 0.  1.
</event>
<event>
 6    1  0.4988969E-006  0.6879053E+02  0.7561462E-02  0.1364255E+00
          2   -1    0    0  501    0  0.00000000000E+00  0.00000000000E+00  0.33064901420E+02  0.33064901420E+02  0.00000000000E+00 0. -1.
         -2   -1    0    0    0  501 -0.00000000000E+00 -0.00000000000E+00 -0.42046758061E+03  0.42046758061E+03  0.00000000000E+00 0.  1.
          5    1    1    2  502    0  0.49203012377E+02  0.16802855996E+02 -0.30745870436E+03  0.31185188741E+03  0.41800000000E+01 0. -1.
         -5    1    1    2    0  502 -0.43581394219E+02  0.16828961435E+02 -0.83567408638E+02  0.95830767771E+02  0.41800000000E+01 0.  1.
        -11    1    1    2    0    0 -0.12184334250E+02 -0.20905422508E+02  0.14193078353E+02  0.28052418158E+02  0.00000000000E+00 0. -1.
         11    1    1    2    0    0  0.65627160922E+01 -0.12726394923E+02 -0.10569644551E+02  0.17797408693E+02  0.00000000000E+00 0.  1.
</event>
<event>
 6    1  0.4988969E-006  0.1773369E+03  0.7561462E-02  0.1170406E+00
          2   -1    0    0  501    0  0.00000000000E+00  0.00000000000E+00  0.12069832356E+03  0.12069832356E+03  0.00000000000E+00 0.  1.
         -2   -1    0    0    0  501 -0.00000000000E+00 -0.00000000000E+00 -0.49395245785E+03  0.49395245785E+03  0.00000000000E+00 0. -1.
          5    1    1    2  502    0 -0.90254280676E+01 -0.50709784419E+02 -0.85335025868E+02  0.99762115192E+02  0.41800000000E+01 0.  1.
         -5    1    1    2    0  502 -0.13206505196E+03  0.32506252893E+02 -0.31467161633E+03  0.34283163937E+03  0.41800000000E+01 0.  1.
        -11    1    1    2    0    0  0.89128709062E+02 -0.31975876752E+02  0.31162196714E+02  0.99686839539E+02  0.00000000000E+00 0.  1.
         11    1    1    2    0    0  0.51961770963E+02  0.50179408279E+02 -0.44096888100E+01  0.72370187316E+02  0.00000000000E+00 0. -1.
</event>
<event>
 6    1  0.4988969E-006  0.9807149E+02  0.7561462E-02  0.1284404E+00
         -1   -1    0    0    0  501 -0.00000000000E+00  0.00000000000E+00  0.23142211226E+02  0.23142211226E+02  0.00000000000E+00 0.  1.
          1   -1    0    0  501    0  0.00000000000E+00 -0.00000000000E+00 -0.51073459558E+03  0.51073459558E+03  0.00000000000E+00 0. -1.
          5    1    1    2  502    0  0.37343699737E+02  0.27600664938E+02 -0.19559349835E+03  0.20107371189E+03  0.41800000000E+01 0.  1.
         -5    1    1    2    0  502 -0.50047706894E+02 -0.36514270914E+02 -0.74498339693E+02  0.96982163116E+02  0.41800000000E+01 0.  1.
        -11    1    1    2    0    0 -0.20228695065E+02  0.38283451128E+02 -0.14108559144E+03  0.14758037419E+03  0.00000000000E+00 0. -1.
         11    1    1    2    0    0  0.32932702222E+02 -0.29369845152E+02 -0.76414954867E+02  0.88240557610E+02  0.00000000000E+00 0.  1.
</event>
<event>
 6    1  0.4988969E-006  0.1048737E+03  0.7561462E-02  0.1270369E+00
          1   -1    0    0  501    0  0.00000000000E+00  0.00000000000E+00  0.76673158484E+03  0.76673158484E+03  0.00000000000E+00 0.  1.
         -1   -1    0    0    0  501 -0.00000000000E+00 -0.00000000000E+00 -0.25896110285E+02  0.25896110285E+02  0.00000000000E+00 0. -1.
          5    1    1    2  502    0 -0.66913204858E+00  0.15267255657E+02  0.29485222388E+03  0.29527756969E+03  0.41800000000E+01 0.  1.
         -5    1    1    2    0  502 -0.45766081248E+02  0.60031774458E+02  0.82021290675E+02  0.11154959732E+03  0.41800000000E+01 0.  1.
        -11    1    1    2    0    0  0.68746625148E+02 -0.53535667595E+02  0.18944734534E+03  0.20852448976E+03  0.00000000000E+00 0. -1.
         11    1    1    2    0    0 -0.22311411851E+02 -0.21763362519E+02  0.17451461467E+03  0.17727603837E+03  0.00000000000E+00 0.  1.
</event>
<event>
 6    1  0.4988969E-006  0.1068012E+03  0.7561462E-02  0.1266611E+00
         -4   -1    0    0    0  501 -0.00000000000E+00  0.00000000000E+00  0.17346324789E+03  0.17346324789E+03  0.00000000000E+00 0.  1.
          4   -1    0    0  501    0  0.00000000000E+00 -0.00000000000E+00 -0.17285501192E+03  0.17285501192E+03  0.00000000000E+00 0. -1.
          5    1    1    2  502    0 -0.94529165982E+01  0.10722078727E+02 -0.17475675703E+02  0.22960667362E+02  0.41800000000E+01 0. -1.
         -5    1    1    2    0  502  0.60284982575E+01 -0.90804725389E+02  0.13560202153E+03  0.16336224040E+03  0.41800000000E+01 0.  1.
        -11    1    1    2    0    0  0.16383317390E+02  0.89881535410E+02 -0.10672893242E+03  0.14049259237E+03  0.00000000000E+00 0. -1.
         11    1    1    2    0    0 -0.12958899050E+02 -0.97988887481E+01 -0.10789177436E+02  0.19502759677E+02  0.00000000000E+00 0.  1.
</event>
<event>
 6    1  0.4988969E-006  0.1480943E+03  0.7561462E-02  0.1202834E+00
          2   -1    0    0  501    0  0.00000000000E+00  0.00000000000E+00  0.11490125210E+03  0.11490125210E+03  0.00000000000E+00 0. -1.
         -2   -1    0    0    0  501 -0.00000000000E+00 -0.00000000000E+00 -0.22772538213E+03  0.22772538213E+03  0.00000000000E+00 0.  1.
          5    1    1    2  502    0  0.89411018508E+02  0.18660317050E+02  0.53037617397E+01  0.91586789177E+02  0.41800000000E+01 0. -1.
         -5    1    1    2    0  502  0.22570553058E+02 -0.60471474979E+02 -0.64348517766E+02  0.91238332351E+02  0.41800000000E+01 0. -1.
        -11    1    1    2    0    0 -0.30697065808E+02  0.49691360436E+02 -0.51866975679E+02  0.78113534790E+02  0.00000000000E+00 0.  1.
         11    1    1    2    0    0 -0.81284505758E+02 -0.78802025071E+01 -0.19123983212E+01  0.81687977911E+02  0.00000000000E+00 0. -1.
</event>
<event>
 6    1  0.4988969E-006  0.1116724E+03  0.7561462E-02  0.1257504E+00
         -1   -1    0    0    0  501 -0.00000000000E+00  0.00000000000E+00  0.88944302585E+03  0.88944302585E+03  0.00000000000E+00 0.  1.
          1   -1    0    0  501    0  0.00000000000E+00 -0.00000000000E+00 -0.16460482725E+02  0.16460482725E+02  0.00000000000E+00 0. -1.
          5    1    1    2  502    0 -0.33053329900E+02  0.67652426433E+02  0.21072537986E+03  0.22381249191E+03  0.41800000000E+01 0.  1.
         -5    1    1    2    0  502  0.54284385897E+02 -0.20463673822E+02  0.22952997329E+03  0.23678479161E+03  0.41800000000E+01 0.  1.
        -11    1    1    2    0    0 -0.30054546283E+02 -0.64043612537E+02  0.40809979453E+03  0.41418631357E+03  0.00000000000E+00 0.  1.
         11    1    1    2    0    0  0.88234902862E+01  0.16854859926E+02  0.24627395455E+02  0.31119911485E+02  0.00000000000E+00 0. -1.
</event>
<event>
 6    1  0.4988969E-006  0.8441501E+02  0.7561462E-02  0.1316969E+00
          2   -1    0    0  501    0  0.00000000000E+00  0.00000000000E+00  0.69824683896E+02  0.69824683896E+02  0.00000000000E+00 0. -1.
         -2   -1    0    0    0  501 -0.00000000000E+00 -0.00000000000E+00 -0.18183258720E+03  0.18183258720E+03  0.00000000000E+00 0.  1.
          5    1    1    2  502    0  0.59337192005E+02 -0.20786877621E+02  0.14109794993E+01  0.63027453537E+02  0.41800000000E+01 0. -1.
         -5    1    1    2    0  502 -0.18568702421E+02  0.16360123851E+01 -0.79198833147E+02  0.81470244985E+02  0.41800000000E+01 0.  1.
        -11    1    1    2    0    0  0.27506013891E+01  0.38848318213E+02  0.11936980560E+02  0.40733881976E+02  0.00000000000E+00 0. -1.
         11    1    1    2    0    0 -0.43519090973E+02 -0.19697452977E+02 -0.46157030215E+02  0.66425690596E+02  0.00000000000E+00 0.  1.
</event>
<event>
 6    1  0.4988969E-006  0.2477040E+03  0.7561462E-02  0.1114765E+00
         -1   -1    0    0    0  501 -0.00000000000E+00  0.00000000000E+00  0.10013634279E+03  0.10013634279E+03  0.00000000000E+00 0.  1.
          1   -1    0    0  501    0  0.00000000000E+00 -0.00000000000E+00 -0.72567650306E+03  0.72567650306E+03  0.00000000000E+00 0. -1.
          5    1    1    2  502    0  0.27694760196E+02  0.40877456967E+01 -0.78990439003E+00  0.28316174815E+02  0.41800000000E+01 0.  1.
         -5    1    1    2    0  502  0.22271819466E+02  0.22471586511E+03 -0.24995680321E+03  0.33688147744E+03  0.41800000000E+01 0.  1.
        -11    1    1    2    0    0 -0.71981932092E+01 -0.16048229070E+03 -0.14251334228E+03  0.21474736864E+03  0.00000000000E+00 0.  1.
         11    1    1    2    0    0 -0.42768386453E+02 -0.68321320107E+02 -0.23228011040E+03  0.24586782495E+03  0.00000000000E+00 0. -1.
</event>
<event>
 6    1  0.4988969E-006  0.9884442E+02  0.7561462E-02  0.1282745E+00
          1   -1    0    0  501    0  0.00000000000E+00  0.00000000000E+00  0.94541092154E+02  0.94541092154E+02  0.00000000000E+00 0. -1.
         -1   -1    0    0    0  501 -0.00000000000E+00 -0.00000000000E+00 -0.21552956784E+03  0.21552956784E+03  0.00000000000E+00 0.  1.
          5    1    1    2  502    0 -0.46196186136E+02  0.11116957155E+02 -0.88700018205E+02  0.10071166754E+03  0.41800000000E+01 0. -1.
         -5    1    1    2    0  502  0.87607678613E+02 -0.38141943930E+02 -0.42536630311E+02  0.10467449812E+03  0.41800000000E+01 0.  1.
        -11    1    1    2    0    0 -0.31915413360E+02  0.77224010551E+01  0.49805720353E+02  0.59656004458E+02  0.00000000000E+00 0. -1.
         11    1    1    2    0    0 -0.94960791161E+01  0.19302585720E+02 -0.39557547523E+02  0.45028489871E+02  0.00000000000E+00 0.  1.
</event>
<event>
 6    1  0.4988969E-006  0.1038062E+03  0.7561462E-02  0.1272490E+00
          2   -1    0    0  501    0  0.00000000000E+00  0.00000000000E+00  0.22641602442E+03  0.22641602442E+03  0.00000000000E+00 0. -1.
         -2   -1    0    0    0  501 -0.00000000000E+00 -0.00000000000E+00 -0.90709744330E+02  0.90709744330E+02  0.00000000000E+00 0.  1.
          5    1    1    2  502    0  0.23569694945E+02  0.75171349812E+02 -0.39521026359E+02  0.88236309288E+02  0.41800000000E+01 0.  1.
         -5    1    1    2    0  502 -0.45901039766E+01  0.16309619943E+01  0.60991489852E+02  0.61328324011E+02  0.41800000000E+01 0.  1.
        -11    1    1    2    0    0  0.34761967306E+02 -0.92319955324E+01  0.38874290211E+02  0.52960688741E+02  0.00000000000E+00 0. -1.
         11    1    1    2    0    0 -0.53741558274E+02 -0.67570316274E+02  0.75361526383E+02  0.11460044671E+03  0.00000000000E+00 0.  1.
</event>
<event>
 6    1  0.4988969E-006  0.7541206E+02  0.7561462E-02  0.1342600E+00
         -2   -1    0    0    0  501 -0.00000000000E+00  0.00000000000E+00  0.33116556293E+02  0.33116556293E+02  0.00000000000E+00 0. -1.
          2   -1    0    0  501    0  0.00000000000E+00 -0.00000000000E+00 -0.48018756319E+03  0.48018756319E+03  0.00000000000E+00 0.  1.
          5    1    1    2  502    0  0.11930819036E+02  0.46189895734E+02 -0.12240116932E+02  0.49428167813E+02  0.41800000000E+01 0.  1.
         -5    1    1    2    0  502 -0.29314483990E+02  0.16156911634E+02 -0.21711144525E+03  0.21971626436E+03  0.41800000000E+01 0.  1.
        -11    1    1    2    0    0  0.23664003107E+02 -0.51329654747E+02 -0.22327247092E+03  0.23031568502E+03  0.00000000000E+00 0.  1.
         11    1    1    2    0    0 -0.62803381536E+01 -0.11017152621E+02  0.55530262041E+01  0.13844002283E+02  0.00000000000E+00 0. -1.
</event>
<event>
 6    1  0.4988969E-006  0.1106795E+03  0.7561462E-02  0.1259317E+00
         -4   -1    0    0    0  501 -0.00000000000E+00  0.00000000000E+00  0.36743347222E+03  0.36743347222E+03  0.00000000000E+00 0.  1.
          4   -1    0    0  501    0  0.00000000000E+00 -0.00000000000E+00 -0.84111354221E+02  0.84111354221E+02  0.00000000000E+00 0. -1.
          5    1    1    2  502    0  0.67163956825E+02 -0.59811241209E+02  0.27045077857E+03  0.28504294010E+03  0.41800000000E+01 0.  1.
         -5    1    1    2    0  502 -0.34953106750E+02 -0.14789381749E+02  0.24192676000E+02  0.45201808106E+02  0.41800000000E+01 0.  1.
        -11    1    1    2    0    0 -0.43595011925E+02  0.64924309511E+02  0.24938218240E+02  0.82082920021E+02  0.00000000000E+00 0.  1.
         11    1    1    2    0    0  0.11384161850E+02  0.96763134467E+01 -0.36259554813E+02  0.39217158212E+02  0.00000000000E+00 0. -1.
</event>
<event>
 6    1  0.4988969E-006  0.7179853E+02  0.7561462E-02  0.1354082E+00
          4   -1    0    0  501    0  0.00000000000E+00  0.00000000000E+00  0.67648809812E+02  0.67648809812E+02  0.00000000000E+00 0. -1.
         -4   -1    0    0    0  501 -0.00000000000E+00 -0.00000000000E+00 -0.15026967932E+03  0.15026967932E+03  0.00000000000E+00 0.  1.
          5    1    1    2  502    0 -0.11745267842E+02 -0.24346149966E+02 -0.59965667578E+02  0.65909331835E+02  0.41800000000E+01 0.  1.
         -5    1    1    2    0  502  0.15043994882E+02  0.69359470149E+02  0.18357971806E+02  0.73427143552E+02  0.41800000000E+01 0.  1.
        -11    1    1    2    0    0 -0.16546825824E+01 -0.30152579696E+02  0.46314289186E+01  0.30551042054E+02  0.00000000000E+00 0. -1.
         11    1    1    2    0    0 -0.16440444569E+01 -0.14860740488E+02 -0.45644602655E+02  0.48030971691E+02  0.00000000000E+00 0.  1.
</event>
<event>
 6    1  0.4988969E-006  0.1311787E+03  0.7561462E-02  0.1225717E+00
         -1   -1    0    0    0  501 -0.00000000000E+00  0.00000000000E+00  0.13727100142E+03  0.13727100142E+03  0.00000000000E+00 0.  1.
          1   -1    0    0  501    0  0.00000000000E+00 -0.00000000000E+00 -0.15263623090E+03  0.15263623090E+03  0.00000000000E+00 0. -1.
          5    1    1    2  502    0 -0.18713178143E+02  0.54476117760E+02 -0.20459775469E+02  0.61269121543E+02  0.41800000000E+01 0. -1.
         -5    1    1    2    0  502  0.14032800272E+02 -0.10293409203E+03  0.52684996581E+02  0.11655697341E+03  0.41800000000E+01 0.  1.
        -11    1    1    2    0    0 -0.41313326982E+02  0.15824297568E+02 -0.13821879863E+02  0.46349150400E+02  0.00000000000E+00 0. -1.
         11    1    1    2    0    0  0.45993704853E+02  0.32633676706E+02 -0.33768570732E+02  0.65731986968E+02  0.00000000000E+00 0.  1.
</event>
<event>
 6    1  0.4988969E-006  0.1858938E+03  0.7561462E-02  0.1162218E+00
         -1   -1    0    0    0  501 -0.00000000000E+00  0.00000000000E+00  0.32584023213E+02  0.32584023213E+02  0.00000000000E+00 0.  1.
          1   -1    0    0  501    0  0.00000000000E+00 -0.00000000000E+00 -0.14623573097E+04  0.14623573097E+04  0.00000000000E+00 0. -1.
          5    1    1    2  502    0 -0.64406391408E+02 -0.51309497698E+02 -0.42065748107E+03  0.42866191409E+03  0.41800000000E+01 0. -1.
         -5    1    1    2    0  502 -0.83078092107E+02 -0.51723882577E+02 -0.12126545422E+03  0.15588493258E+03  0.41800000000E+01 0. -1.
        -11    1    1    2    0    0  0.17052024495E+02  0.45938563851E+02 -0.12294323819E+03  0.13234864187E+03  0.00000000000E+00 0.  1.
         11    1    1    2    0    0  0.13043245902E+03  0.57094816423E+02 -0.76490711300E+03  0.77804584437E+03  0.00000000000E+00 0. -1.
</event>
<event>
 6    1  0.4988969E-006  0.1476105E+03  0.7561462E-02  0.1203440E+00
         -3   -1    0    0    0  501 -0.00000000000E+00  0.00000000000E+00  0.54254408852E+03  0.54254408852E+03  0.00000000000E+00 0.  1.
          3   -1    0    0  501    0  0.00000000000E+00 -0.00000000000E+00 -0.65118610272E+02  0.65118610272E+02  0.00000000000E+00 0. -1.
          5    1    1    2  502    0 -0.66306917728E+01 -0.17385814134E+00  0.17188034961E+03  0.17205906916E+03  0.41800000000E+01 0.  1.
         -5    1    1    2    0  502 -0.52330460297E+02  0.12724027229E+03  0.17771821971E+03  0.22478834931E+03  0.41800000000E+01 0.  1.
        -11    1    1    2    0    0 -0.99526914742E+01 -0.21139205705E+02  0.66231311765E+02  0.70231821445E+02  0.00000000000E+00 0.  1.
         11    1    1    2    0    0  0.68913843544E+02 -0.10592720844E+03  0.61595597159E+02  0.14058345887E+03  0.00000000000E+00 0. -1.
</event>
<event>
 6    1  0.4988969E-006  0.1083022E+03  0.7561462E-02  0.1263747E+00
         -2   -1    0    0    0  501 -0.00000000000E+00  0.00000000000E+00  0.18281717081E+03  0.18281717081E+03  0.00000000000E+00 0.  1.
          2   -1    0    0  501    0  0.00000000000E+00 -0.00000000000E+00 -0.72905920716E+02  0.72905920716E+02  0.00000000000E+00 0. -1.
          5    1    1    2  502    0  0.19119287848E+02  0.81565113048E+02  0.47360349929E+02  0.96326995073E+02  0.41800000000E+01 0. -1.
         -5    1    1    2    0  502 -0.10132352367E+02 -0.45244441273E+02  0.31411995219E+02  0.56159681928E+02  0.41800000000E+01 0. -1.
        -11    1    1    2    0    0  0.17865774792E+02  0.18133453394E+02  0.33976812092E+02  0.42455056246E+02  0.00000000000E+00 0.  1.
         11    1    1    2    0    0 -0.26852710273E+02 -0.54454125169E+02 -0.28379071486E+01  0.60781358276E+02  0.00000000000E+00 0. -1.
</event>
<event>
 6    1  0.4988969E-006  0.1907054E+03  0.7561462E-02  0.1157827E+00
         -1   -1    0    0    0  501 -0.00000000000E+00  0.00000000000E+00  0.13531883403E+03  0.13531883403E+03  0.00000000000E+00 0.  1.
          1   -1    0    0  501    0  0.00000000000E+00 -0.00000000000E+00 -0.30924016353E+03  0.30924016353E+03  0.00000000000E+00 0. -1.
          5    1    1    2  502    0  0.26299583505E+02 -0.15053242978E+03 -0.87618439706E+02  0.17619915971E+03  0.41800000000E+01 0. -1.
         -5    1    1    2    0  502 -0.38847731242E+00  0.14565438683E+03 -0.94552435582E+01  0.14602131813E+03  0.41800000000E+01 0.  1.
        -11    1    1    2    0    0 -0.25352445718E+02  0.40185451562E+02 -0.12811080349E+02  0.49211185728E+02  0.00000000000E+00 0.  1.
         11    1    1    2    0    0 -0.55866047470E+00 -0.35307408615E+02 -0.64036565888E+02  0.73127333982E+02  0.00000000000E+00 0. -1.
</event>
<event>
 6    1  0.4988969E-006  0.6822737E+02  0.7561462E-02  0.1366227E+00
          1   -1    0    0  501    0  0.00000000000E+00  0.00000000000E+00  0.86876707674E+02  0.86876707674E+02  0.00000000000E+00 0. -1.
         -1   -1    0    0    0  501 -0.00000000000E+00 -0.00000000000E+00 -0.15081389855E+03  0.15081389855E+03  0.00000000000E+00 0.  1.
          5    1    1    2  502    0  0.14946165164E+02  0.55822098563E+02  0.21544002422E+02  0.61815135537E+02  0.41800000000E+01 0.  1.
         -5    1    1    2    0  502  0.61577213849E+01 -0.29547570893E+02 -0.70253725072E+02  0.76576985870E+02  0.41800000000E+01 0.  1.
        -11    1    1    2    0    0  0.68234492864E+01 -0.17481615155E+02 -0.50255692978E+02  0.53645139624E+02  0.00000000000E+00 0.  1.
         11    1    1    2    0    0 -0.27927335835E+02 -0.87929125147E+01  0.35028224756E+02  0.45653345188E+02  0.00000000000E+00 0. -1.
</event>
<event>
 6    1  0.4988969E-006  0.1418862E+03  0.7561462E-02  0.1210813E+00
          3   -1    0    0  501    0  0.00000000000E+00  0.00000000000E+00  0.15635473701E+03  0.15635473701E+03  0.00000000000E+00 0. -1.
         -3   -1    0    0    0  501 -0.00000000000E+00 -0.00000000000E+00 -0.16552275846E+03  0.16552275846E+03  0.00000000000E+00 0.  1.
          5    1    1    2  502    0 -0.26404422663E+02  0.61238079895E+01 -0.15650726777E+02  0.31577083607E+02  0.41800000000E+01 0.  1.
         -5    1    1    2    0  502  0.13385736324E+03 -0.36720813772E+02 -0.26745772425E+02  0.14141789350E+03  0.41800000000E+01 0.  1.
        -11    1    1    2    0    0 -0.37910625473E+02 -0.68082398240E+01  0.54839816119E+02  0.67014722899E+02  0.00000000000E+00 0. -1.
         11    1    1    2    0    0 -0.69542315106E+02  0.37405245606E+02 -0.21611338360E+02  0.81867795468E+02  0.00000000000E+00 0.  1.
</event>
<event>
 6    1  0.4988969E-006  0.1063215E+03  0.7561462E-02  0.1267538E+00
         -1   -1    0    0    0  501 -0.00000000000E+00  0.00000000000E+00  0.18626197277E+03  0.18626197277E+03  0.00000000000E+00 0.  1.
          1   -1    0    0  501    0  0.00000000000E+00 -0.00000000000E+00 -0.99920182059E+02  0.99920182059E+02  0.00000000000E+00 0. -1.
          5    1    1    2  502    0 -0.19465906633E+02 -0.57345209736E+02  0.99988001031E+02  0.11697207936E+03  0.41800000000E+01 0. -1.
         -5    1    1    2    0  502  0.46656057457E+02 -0.10639608515E+02 -0.15893838403E+02  0.50597188320E+02  0.41800000000E+01 0. -1.
        -11    1    1    2    0    0  0.21858576124E+02  0.44379501109E+02  0.29645658418E+02  0.57673239305E+02  0.00000000000E+00 0.  1.
         11    1    1    2    0    0 -0.49048726948E+02  0.23605317142E+02 -0.27398030335E+02  0.60939647840E+02  0.00000000000E+00 0. -1.
</event>
<event>
 6    1  0.4988969E-006  0.1429710E+03  0.7561462E-02  0.1209386E+00
         -1   -1    0    0    0  501 -0.00000000000E+00  0.00000000000E+00  0.69585300855E+03  0.69585300855E+03  0.00000000000E+00 0.  1.
          1   -1    0    0  501    0  0.00000000000E+00 -0.00000000000E+00 -0.34444403043E+02  0.34444403043E+02  0.00000000000E+00 0. -1.
          5    1    1    2  502    0  0.32456974929E+02  0.10966384991E+03  0.37353225192E+03  0.39067048880E+03  0.41800000000E+01 0. -1.
         -5    1    1    2    0  502  0.28607129723E+02 -0.20696288307E+02  0.34538074151E+02  0.49568691598E+02  0.41800000000E+01 0. -1.
        -11    1    1    2    0    0 -0.77345364351E+01 -0.81765610643E+02  0.18970686996E+03  0.20672236127E+03  0.00000000000E+00 0. -1.
         11    1    1    2    0    0 -0.53329568218E+02 -0.72019509621E+01  0.63631409478E+02  0.83335869925E+02  0.00000000000E+00 0.  1.
</event>
<event>
 6    1  0.4988969E-006  0.5248067E+02  0.7561462E-02  0.1432403E+00
         -1   -1    0    0    0  501 -0.00000000000E+00  0.00000000000E+00  0.16223300288E+03  0.16223300288E+03  0.00000000000E+00 0.  1.
          1   -1    0    0  501    0  0.00000000000E+00 -0.00000000000E+00 -0.78736752592E+02  0.78736752592E+02  0.00000000000E+00 0. -1.
          5    1    1    2  502    0  0.62321749588E+01 -0.24660024050E+01 -0.39105293947E+02  0.39895082244E+02  0.41800000000E+01 0.  1.
         -5    1    1    2    0  502  0.11595406427E+02  0.29767837022E+02  0.96144464755E+02  0.10139925086E+03  0.41800000000E+01 0.  1.
        -11    1    1    2    0    0  0.89468308865E+01  0.13407586623E+02 -0.24400541163E+02  0.29243727037E+02  0.00000000000E+00 0. -1.
         11    1    1    2    0    0 -0.26774412272E+02 -0.40709421241E+02  0.50857620646E+02  0.70431695337E+02  0.00000000000E+00 0.  1.
</event>
<event>
 6    1  0.4988969E-006  0.1049819E+03  0.7561462E-02  0.1270155E+00
         -1   -1    0    0    0  501 -0.00000000000E+00  0.00000000000E+00  0.21047541489E+03  0.21047541489E+03  0.00000000000E+00 0.  1.
          1   -1    0    0  501    0  0.00000000000E+00 -0.00000000000E+00 -0.73423744074E+02  0.73423744074E+02  0.00000000000E+00 0. -1.
          5    1    1    2  502    0 -0.55393054477E+00 -0.33162869686E+02  0.46689076968E+02  0.57423210229E+02  0.41800000000E+01 0. -1.
         -5    1    1    2    0  502 -0.15859117550E+02  0.95879894691E+02  0.23977934322E+02  0.10018422805E+03  0.41800000000E+01 0. -1.
        -11    1    1    2    0    0 -0.11079265142E+02 -0.45485101458E+02  0.78712590265E+02  0.91582293250E+02  0.00000000000E+00 0.  1.
         11    1    1    2    0    0  0.27492313237E+02 -0.17231923547E+02 -0.12327930744E+02  0.34709427432E+02  0.00000000000E+00 0. -1.
</event>
<event>
 6    1  0.4988969E-006  0.1086217E+03  0.7561462E-02  0.1263144E+00
          1   -1    0    0  501    0  0.00000000000E+00  0.00000000000E+00  0.61138686373E+03  0.61138686373E+03  0.00000000000E+00 0. -1.
         -1   -1    0    0    0  501 -0.00000000000E+00 -0.00000000000E+00 -0.26738191057E+02  0.26738191057E+02  0.00000000000E+00 0.  1.
          5    1    1    2  502    0  0.66219274530E+02 -0.58780872947E+02  0.24554567835E+03  0.26105619299E+03  0.41800000000E+01 0. -1.
         -5    1    1    2    0  502 -0.20345852537E+02  0.17361190298E+02  0.78045576176E+01  0.28173536584E+02  0.41800000000E+01 0. -1.
        -11    1    1    2    0    0 -0.67025130349E+02  0.16853644847E+02  0.27843290721E+03  0.28688202673E+03  0.00000000000E+00 0. -1.
         11    1    1    2    0    0  0.21151708356E+02  0.24566037802E+02  0.52865529500E+02  0.62013298485E+02  0.00000000000E+00 0.  1.
</event>
<event>
 6    1  0.4988969E-006  0.9140090E+02  0.7561462E-02  0.1299494E+00
         -1   -1    0    0    0  501 -0.00000000000E+00  0.00000000000E+00  0.67011364365E+02  0.67011364365E+02  0.00000000000E+00 0.  1.
          1   -1    0    0  501    0  0.00000000000E+00 -0.00000000000E+00 -0.25197189821E+03  0.25197189821E+03  0.00000000000E+00 0. -1.
          5    1    1    2  502    0 -0.29083717654E+00  0.34770833390E+02 -0.42797967034E+02  0.55301300375E+02  0.41800000000E+01 0. -1.
         -5    1    1    2    0  502 -0.17184221986E+02 -0.88883346407E+02 -0.71646707761E+01  0.90908479588E+02  0.41800000000E+01 0. -1.
        -11    1    1    2    0    0  0.59055419158E+01  0.27633232043E+02 -0.14053808747E+03  0.14335070620E+03  0.00000000000E+00 0. -1.
         11    1    1    2    0    0  0.11569517247E+02  0.26479280974E+02  0.55401914401E+01  0.29422776406E+02  0.00000000000E+00 0.  1.
</event>
<event>
 6    1  0.4988969E-006  0.1447152E+03  0.7561462E-02  0.1207122E+00
          1   -1    0    0  501    0  0.00000000000E+00  0.00000000000E+00  0.65053129360E+03  0.65053129360E+03  0.00000000000E+00 0. -1.
         -1   -1    0    0    0  501 -0.00000000000E+00 -0.00000000000E+00 -0.32850006035E+02  0.32850006035E+02  0.00000000000E+00 0.  1.
          5    1    1    2  502    0  0.16659598493E+02 -0.45322664385E+02  0.89629107199E+02  0.10189472698E+03  0.41800000000E+01 0. -1.
         -5    1    1    2    0  502 -0.10855224109E+03  0.15351475389E+02  0.20781265437E+03  0.23499537987E+03  0.41800000000E+01 0. -1.
        -11    1    1    2    0    0 -0.68874710631E+01 -0.19567387354E+02  0.36354889966E+02  0.41856874345E+02  0.00000000000E+00 0. -1.
         11    1    1    2    0    0  0.98780113657E+02  0.49538576350E+02  0.28388463603E+03  0.30463431844E+03  0.00000000000E+00 0.  1.
</event>
<event>
 6    1  0.4988969E-006  0.1685403E+03  0.7561462E-02  0.1179379E+00
          1   -1    0    0  501    0  0.00000000000E+00  0.00000000000E+00  0.72732488788E+02  0.72732488788E+02  0.00000000000E+00 0. -1.
         -1   -1    0    0    0  501 -0.00000000000E+00 -0.00000000000E+00 -0.56432579684E+03  0.56432579684E+03  0.00000000000E+00 0.  1.
          5    1    1    2  502    0 -0.81306728400E+02 -0.12419563623E+03 -0.22554968267E+03  0.27004716606E+03  0.41800000000E+01 0.  1.
         -5    1    1    2    0  502 -0.28858589290E+02  0.18622953520E+02 -0.15271102407E+03  0.15658148628E+03  0.41800000000E+01 0.  1.
        -11    1    1    2    0    0  0.74813670214E+02  0.57755673028E+02 -0.11752713253E+03  0.15081588079E+03  0.00000000000E+00 0.  1.
         11    1    1    2    0    0  0.35351647476E+02  0.47817009685E+02  0.41945312232E+01  0.59613752496E+02  0.00000000000E+00 0. -1.
</event>
<event>
 6    1  0.4988969E-006  0.1483612E+03  0.7561462E-02  0.1202501E+00
         -1   -1    0    0    0  501 -0.00000000000E+00  0.00000000000E+00  0.28510015052E+03  0.28510015052E+03  0.00000000000E+00 0.  1.
          1   -1    0    0  501    0  0.00000000000E+00 -0.00000000000E+00 -0.10471605733E+03  0.10471605733E+03  0.00000000000E+00 0. -1.
          5    1    1    2  502    0 -0.80583345326E+02  0.30035200733E+02  0.14523561820E+03  0.16883911283E+03  0.41800000000E+01 0.  1.
         -5    1    1    2    0  502 -0.20393768328E+02  0.50703592292E+02 -0.10643646762E+02  0.55834753285E+02  0.41800000000E+01 0.  1.
        -11    1    1    2    0    0  0.27768217231E+01 -0.53951586095E+02  0.30998211459E+02  0.62284616838E+02  0.00000000000E+00 0.  1.
         11    1    1    2    0    0  0.98200291931E+02 -0.26787206930E+02  0.14793910304E+02  0.10285772490E+03  0.00000000000E+00 0. -1.
</event>
<event>
 6    1  0.4988969E-006  0.1142189E+03  0.7561462E-02  0.1252951E+00
          1   -1    0    0  501    0  0.00000000000E+00  0.00000000000E+00  0.81112689344E+03  0.81112689344E+03  0.00000000000E+00 0. -1.
         -1   -1    0    0    0  501 -0.00000000000E+00 -0.00000000000E+00 -0.17447431699E+02  0.17447431699E+02  0.00000000000E+00 0.  1.
          5    1    1    2  502    0 -0.41862889566E+02 -0.15373241322E+01  0.25604567298E+03  0.25948357162E+03  0.41800000000E+01 0.  1.
         -5    1    1    2    0  502  0.80601966979E+02 -0.25635783475E+02  0.25089743379E+03  0.26480344627E+03  0.41800000000E+01 0.  1.
        -11    1    1    2    0    0 -0.17876802717E+02  0.60084920783E+02  0.16758717698E+03  0.17892802930E+03  0.00000000000E+00 0. -1.
         11    1    1    2    0    0 -0.20862274696E+02 -0.32911813175E+02  0.11914917799E+03  0.12535927794E+03  0.00000000000E+00 0.  1.
</event>
<event>
 6    1  0.4988969E-006  0.1006204E+03  0.7561462E-02  0.1278997E+00
          2   -1    0    0  501    0  0.00000000000E+00  0.00000000000E+00  0.86489775603E+02  0.86489775603E+02  0.00000000000E+00 0. -1.
         -2   -1    0    0    0  501 -0.00000000000E+00 -0.00000000000E+00 -0.19492266302E+03  0.19492266302E+03  0.00000000000E+00 0.  1.
          5    1    1    2  502    0 -0.47889472394E+02  0.19148833422E+02  0.14307552596E+02  0.53686663604E+02  0.41800000000E+01 0.  1.
         -5    1    1    2    0  502  0.25788052375E+02  0.45730969257E+02 -0.99135578750E+02  0.11225720720E+03  0.41800000000E+01 0.  1.
        -11    1    1    2    0    0  0.88290421250E+01 -0.77803959092E+02  0.81279572968E+01  0.78724022541E+02  0.00000000000E+00 0. -1.
         11    1    1    2    0    0  0.13272377894E+02  0.12924156412E+02 -0.31732818564E+02  0.36744545282E+02  0.00000000000E+00 0.  1.
</event>
<event>
 6    1  0.4988969E-006  0.2228738E+03  0.7561462E-02  0.1131759E+00
         -2   -1    0    0    0  501 -0.00000000000E+00  0.00000000000E+00  0.91021367410E+02  0.91021367410E+02  0.00000000000E+00 0.  1.
          2   -1    0    0  501    0  0.00000000000E+00 -0.00000000000E+00 -0.63688805121E+03  0.63688805121E+03  0.00000000000E+00 0. -1.
          5    1    1    2  502    0  0.51938901895E+02 -0.19092842676E+03 -0.12309562406E+03  0.23306934320E+03  0.41800000000E+01 0.  1.
         -5    1    1    2    0  502  0.29926382032E+02  0.14345569914E+02 -0.21489246184E+02  0.39757311519E+02  0.41800000000E+01 0.  1.
        -11    1    1    2    0    0 -0.10167448109E+03  0.14463822344E+03 -0.33912626445E+03  0.38244547196E+03  0.00000000000E+00 0.  1.
         11    1    1    2    0    0  0.19809197167E+02  0.31944633408E+02 -0.62155549099E+02  0.72637291936E+02  0.00000000000E+00 0. -1.
</event>
<event>
 6    1  0.4988969E-006  0.1055499E+03  0.7561462E-02  0.1269040E+00
          2   -1    0    0  501    0  0.00000000000E+00  0.00000000000E+00  0.34187672292E+03  0.34187672292E+03  0.00000000000E+00 0. -1.
         -2   -1    0    0    0  501 -0.00000000000E+00 -0.00000000000E+00 -0.64605131422E+02  0.64605131422E+02  0.00000000000E+00 0.  1.
          5    1    1    2  502    0 -0.57612819015E+01 -0.22647744341E+02  0.11326486920E+03  0.11572603721E+03  0.41800000000E+01 0.  1.
         -5    1    1    2    0  502 -0.85162673401E+02 -0.18777695066E+02  0.13209870379E+02  0.88302071596E+02  0.41800000000E+01 0.  1.
        -11    1    1    2    0    0  0.59553028103E+02  0.29828420466E+02  0.15503835528E+03  0.16874000543E+03  0.00000000000E+00 0. -1.
         11    1    1    2    0    0  0.31370927199E+02  0.11597018941E+02 -0.42415033591E+01  0.33713740113E+02  0.00000000000E+00 0.  1.
</event>
<event>
 6    1  0.4988969E-006  0.8170068E+02  0.7561462E-02  0.1324293E+00
          4   -1    0    0  501    0  0.00000000000E+00  0.00000000000E+00  0.94641903470E+02  0.94641903470E+02  0.00000000000E+00 0.  1.
         -4   -1    0    0    0  501 -0.00000000000E+00 -0.00000000000E+00 -0.14598633267E+03  0.14598633267E+03  0.00000000000E+00 0. -1.
          5    1    1    2  502    0 -0.51706087016E+02 -0.30666893180E+02 -0.63828328717E+01  0.60598603344E+02  0.41800000000E+01 0.  1.
         -5    1    1    2    0  502  0.32590760612E+02  0.45431352777E+02 -0.63474659252E+02  0.84691618591E+02  0.41800000000E+01 0.  1.
        -11    1    1    2    0    0  0.18411836336E+02  0.10900799550E+02  0.50191218491E+02  0.54561722496E+02  0.00000000000E+00 0.  1.
         11    1    1    2    0    0  0.70349006779E+00 -0.25665259147E+02 -0.31678155567E+02  0.40776291708E+02  0.00000000000E+00 0. -1.
</event>
<event>
 6    1  0.4988969E-006  0.7382466E+02  0.7561462E-02  0.1347550E+00
          1   -1    0    0  501    0  0.00000000000E+00  0.00000000000E+00  0.58184593917E+02  0.58184593917E+02  0.00000000000E+00 0. -1.
         -1   -1    0    0    0  501 -0.00000000000E+00 -0.00000000000E+00 -0.24835671141E+03  0.24835671141E+03  0.00000000000E+00 0.  1.
          5    1    1    2  502    0  0.28422405165E+02  0.27160544814E+02 -0.15856553395E+03  0.16341979460E+03  0.41800000000E+01 0. -1.
         -5    1    1    2    0  502  0.14004568889E+02 -0.19341339882E+02  0.17568192451E+02  0.29938756891E+02  0.41800000000E+01 0. -1.
        -11    1    1    2    0    0 -0.86703351272E+01 -0.37764859971E+02 -0.55426033411E+02  0.67626951280E+02  0.00000000000E+00 0.  1.
         11    1    1    2    0    0 -0.33756638927E+02  0.29945655038E+02  0.62512574159E+01  0.45555802557E+02  0.00000000000E+00 0. -1.
</event>
<event>
 6    1  0.4988969E-006  0.1029514E+03  0.7561462E-02  0.1274209E+00
          2   -1    0    0  501    0  0.00000000000E+00  0.00000000000E+00  0.78484708907E+02  0.78484708907E+02  0.00000000000E+00 0.  1.
         -2   -1    0    0    0  501 -0.00000000000E+00 -0.00000000000E+00 -0.27805508178E+03  0.27805508178E+03  0.00000000000E+00 0. -1.
          5    1    1    2  502    0 -0.89753889813E+02 -0.31016544116E+02 -0.47308350862E+02  0.10617598225E+03  0.41800000000E+01 0.  1.
         -5    1    1    2    0  502  0.11056720726E+01  0.17271754679E+02 -0.11943825944E+03  0.12075804834E+03  0.41800000000E+01 0.  1.
        -11    1    1    2    0    0  0.50437887627E+02  0.20125151263E+02  0.25177205022E+02  0.59857279209E+02  0.00000000000E+00 0.  1.
         11    1    1    2    0    0  0.38210330114E+02 -0.63803618255E+01 -0.58000967592E+02  0.69748480887E+02  0.00000000000E+00 0. -1.
</event>
<event>
 6    1  0.4988969E-006  0.1239201E+03  0.7561462E-02  0.1236767E+00
          2   -1    0    0  501    0  0.00000000000E+00  0.00000000000E+00  0.32627308089E+02  0.32627308089E+02  0.00000000000E+00 0. -1.
         -2   -1    0    0    0  501 -0.00000000000E+00 -0.00000000000E+00 -0.63892249058E+03  0.63892249058E+03  0.00000000000E+00 0.  1.
          5    1    1    2  502    0  0.26768481578E+02  0.10557133852E+03 -0.41347634483E+03  0.42760030315E+03  0.41800000000E+01 0. -1.
         -5    1    1    2    0  502 -0.60605016926E+01 -0.28457737641E+02 -0.40643158003E+02  0.50158859685E+02  0.41800000000E+01 0. -1.
        -11    1    1    2    0    0 -0.27896200895E+02  0.38592280749E+01 -0.97558776149E+01  0.29803838910E+02  0.00000000000E+00 0.  1.
         11    1    1    2    0    0  0.71882210102E+01 -0.80972828954E+02 -0.14241980205E+03  0.16398679692E+03  0.00000000000E+00 0. -1.
</event>
<event>
 6    1  0.4988969E-006  0.7072515E+02  0.7561462E-02  0.1357644E+00
         -2   -1    0    0    0  501 -0.00000000000E+00  0.00000000000E+00  0.18971097628E+03  0.18971097628E+03  0.00000000000E+00 0. -1.
          2   -1    0    0  501    0  0.00000000000E+00 -0.00000000000E+00 -0.69375516919E+02  0.69375516919E+02  0.00000000000E+00 0.  1.
          5    1    1    2  502    0 -0.19386673276E+02 -0.19855553934E+02 -0.28006046498E+02  0.39647158324E+02  0.41800000000E+01 0.  1.
         -5    1    1    2    0  502  0.52579407061E+02  0.26075448493E+02  0.81514311736E+02  0.10053148004E+03  0.41800000000E+01 0.  1.
        -11    1    1    2    0    0 -0.18293194962E+02  0.18287816950E+02 -0.16568387191E+02  0.30718018895E+02  0.00000000000E+00 0.  1.
         11    1    1    2    0    0 -0.14899538823E+02 -0.24507711509E+02  0.83395581313E+02  0.88189835940E+02  0.00000000000E+00 0. -1.
</event>
<event>
 6    1  0.4988969E-006  0.9648489E+02  0.7561462E-02  0.1287866E+00
         -1   -1    0    0    0  501 -0.00000000000E+00  0.00000000000E+00  0.36884557865E+02  0.36884557865E+02  0.00000000000E+00 0.  1.
          1   -1    0    0  501    0  0.00000000000E+00 -0.00000000000E+00 -0.55272602439E+03  0.55272602439E+03  0.00000000000E+00 0. -1.
          5    1    1    2  502    0 -0.17583062382E+02  0.84954671225E+02 -0.49808713321E+02  0.10012412581E+03  0.41800000000E+01 0. -1.
         -5    1    1    2    0  502  0.14499436644E+02 -0.30952502181E+01 -0.14323187762E+03  0.14405782659E+03  0.41800000000E+01 0. -1.
        -11    1    1    2    0    0 -0.14047998439E+02 -0.11094322750E+02 -0.38984420148E+01  0.18320155773E+02  0.00000000000E+00 0.  1.
         11    1    1    2    0    0  0.17131624177E+02 -0.70765098257E+02 -0.31890243357E+03  0.32710847408E+03  0.00000000000E+00 0. -1.
</event>
<event>
 6    1  0.4988969E-006  0.1004155E+03  0.7561462E-02  0.1279425E+00
         -1   -1    0    0    0  501 -0.00000000000E+00  0.00000000000E+00  0.91919055431E+02  0.91919055431E+02  0.00000000000E+00 0.  1.
          1   -1    0    0  501    0  0.00000000000E+00 -0.00000000000E+00 -0.18427130729E+03  0.18427130729E+03  0.00000000000E+00 0. -1.
          5    1    1    2  502    0  0.38156390411E+02 -0.13539969959E+02 -0.94504259537E+02  0.10289688230E+03  0.41800000000E+01 0. -1.
         -5    1    1    2    0  502 -0.60695471926E+02  0.23134445204E+02  0.33517627581E+02  0.73212339301E+02  0.41800000000E+01 0.  1.
        -11    1    1    2    0    0 -0.16458161943E+02  0.33252385855E+02 -0.12331959490E+02  0.39098203084E+02  0.00000000000E+00 0. -1.
         11    1    1    2    0    0  0.38997243457E+02 -0.42846861101E+02 -0.19033660416E+02  0.60982938042E+02  0.00000000000E+00 0.  1.
</event>
<event>
 6    1  0.4988969E-006  0.1636266E+03  0.7561462E-02  0.1184662E+00
         -2   -1    0    0    0  501 -0.00000000000E+00  0.00000000000E+00  0.11013291550E+02  0.11013291550E+02  0.00000000000E+00 0.  1.
          2   -1    0    0  501    0  0.00000000000E+00 -0.00000000000E+00 -0.33887940528E+04  0.33887940528E+04  0.00000000000E+00 0. -1.
          5    1    1    2  502    0 -0.75885881859E+02 -0.90810632670E+02 -0.10449323595E+04  0.10516208187E+04  0.41800000000E+01 0. -1.
         -5    1    1    2    0  502  0.76764615891E+02 -0.33663642423E+02 -0.17304172478E+04  0.17324512608E+04  0.41800000000E+01 0.  1.
        -11    1    1    2    0    0 -0.46911965610E+01  0.10250772527E+03 -0.53380076530E+03  0.54357437218E+03  0.00000000000E+00 0.  1.
         11    1    1    2    0    0  0.38124625296E+01  0.21966549821E+02 -0.68630388644E+02  0.72160892643E+02  0.00000000000E+00 0. -1.
</event>
<event>
 6    1  0.4988969E-006  0.1040226E+03  0.7561462E-02  0.1272057E+00
          1   -1    0    0  501    0  0.00000000000E+00  0.00000000000E+00  0.20776918354E+03  0.20776918354E+03  0.00000000000E+00 0. -1.
         -1   -1    0    0    0  501 -0.00000000000E+00 -0.00000000000E+00 -0.63100275965E+02  0.63100275965E+02  0.00000000000E+00 0.  1.
          5    1    1    2  502    0 -0.52401910194E+02  0.25433038846E+02  0.36986262016E+02  0.69124927738E+02  0.41800000000E+01 0.  1.
         -5    1    1    2    0  502  0.45373987727E+02 -0.47053200365E+02  0.91973686924E+01  0.66142772982E+02  0.41800000000E+01 0.  1.
        -11    1    1    2    0    0 -0.25624884179E+02 -0.19094393586E+02  0.68062398938E+02  0.75191227579E+02  0.00000000000E+00 0. -1.
         11    1    1    2    0    0  0.32652806646E+02  0.40714555105E+02  0.30422877930E+02  0.60410531208E+02  0.00000000000E+00 0.  1.
</event>
<event>
 6    1  0.4988969E-006  0.1129216E+03  0.7561462E-02  0.1255253E+00
          1   -1    0    0  501    0  0.00000000000E+00  0.00000000000E+00  0.55121998319E+02  0.55121998319E+02  0.00000000000E+00 0. -1.
         -1   -1    0    0    0  501 -0.00000000000E+00 -0.00000000000E+00 -0.57972356524E+03  0.57972356524E+03  0.00000000000E+00 0.  1.
          5    1    1    2  502    0  0.24756470770E+02 -0.87540108387E+02 -0.40769608740E+03  0.41774361216E+03  0.41800000000E+01 0. -1.
         -5    1    1    2    0  502 -0.16313350423E+02  0.36702212333E+02 -0.10486573709E+03  0.11237202947E+03  0.41800000000E+01 0. -1.
        -11    1    1    2    0    0 -0.73118209659E+00  0.71930575886E+02 -0.27985630426E+02  0.77186384064E+02  0.00000000000E+00 0.  1.
         11    1    1    2    0    0 -0.77119382504E+01 -0.21092679832E+02  0.15945887993E+02  0.27543537862E+02  0.00000000000E+00 0. -1.
</event>
<event>
 6    1  0.4988969E-006  0.1329109E+03  0.7561462E-02  0.1223199E+00
         -2   -1    0    0    0  501 -0.00000000000E+00  0.00000000000E+00  0.25348160684E+02  0.25348160684E+02  0.00000000000E+00 0. -1.
          2   -1    0    0  501    0  0.00000000000E+00 -0.00000000000E+00 -0.87560651009E+03  0.87560651009E+03  0.00000000000E+00 0.  1.
          5    1    1    2  502    0  0.66247214641E+02 -0.56303847726E+02 -0.16530869903E+03  0.18682412877E+03  0.41800000000E+01 0. -1.
         -5    1    1    2    0  502 -0.55776441096E+02 -0.19968347220E+02 -0.93631834889E+02  0.11087893928E+03  0.41800000000E+01 0. -1.
        -11    1    1    2    0    0  0.94184188331E-01 -0.21273299867E+02 -0.10273030528E+03  0.10490985550E+03  0.00000000000E+00 0.  1.
         11    1    1    2    0    0 -0.10564957733E+02  0.97545494813E+02 -0.48858751020E+03  0.49834174721E+03  0.00000000000E+00 0. -1.
</event>
<event>
 6    1  0.4988969E-006  0.1956234E+03  0.7561462E-02  0.1153485E+00
          1   -1    0    0  501    0  0.00000000000E+00  0.00000000000E+00  0.47500305229E+03  0.47500305229E+03  0.00000000000E+00 0. -1.
         -1   -1    0    0    0  501 -0.00000000000E+00 -0.00000000000E+00 -0.91634224684E+02  0.91634224684E+02  0.00000000000E+00 0.  1.
          5    1    1    2  502    0 -0.62836976204E+02  0.97561043726E+02  0.19389471310E+03  0.22600724546E+03  0.41800000000E+01 0. -1.
         -5    1    1    2    0  502  0.10445199450E+03 -0.13318108036E+03  0.76370373631E+02  0.18573455707E+03  0.41800000000E+01 0.  1.
        -11    1    1    2    0    0 -0.18244653000E+02 -0.30582971392E+02  0.36953860073E+02  0.51320300823E+02  0.00000000000E+00 0.  1.
         11    1    1    2    0    0 -0.23370365293E+02  0.66203008026E+02  0.76149880806E+02  0.10357517363E+03  0.00000000000E+00 0. -1.
</event>
<event>
 6    1  0.4988969E-006  0.1097770E+03  0.7561462E-02  0.1260983E+00
         -2   -1    0    0    0  501 -0.00000000000E+00  0.00000000000E+00  0.81389083192E+03  0.81389083192E+03  0.00000000000E+00 0.  1.
          2   -1    0    0  501    0  0.00000000000E+00 -0.00000000000E+00 -0.19710128928E+02  0.19710128928E+02  0.00000000000E+00 0. -1.
          5    1    1    2  502    0  0.42409718371E+02 -0.16012151586E+02  0.84794159301E+02  0.96241857122E+02  0.41800000000E+01 0. -1.
         -5    1    1    2    0  502 -0.21652469855E+02  0.72369040160E+02  0.44701466658E+03  0.45337147237E+03  0.41800000000E+01 0. -1.
        -11    1    1    2    0    0 -0.22333759135E+02  0.15062731479E+02  0.27515515650E+02  0.38506964022E+02  0.00000000000E+00 0. -1.
         11    1    1    2    0    0  0.15765106190E+01 -0.71419620053E+02  0.23485636146E+03  0.24548066733E+03  0.00000000000E+00 0.  1.
</event>
<event>
 6    1  0.4988969E-006  0.1065401E+03  0.7561462E-02  0.1267115E+00
         -2   -1    0    0    0  501 -0.00000000000E+00  0.00000000000E+00  0.38733854197E+02  0.38733854197E+02  0.00000000000E+00 0.  1.
          2   -1    0    0  501    0  0.00000000000E+00 -0.00000000000E+00 -0.33157274407E+03  0.33157274407E+03  0.00000000000E+00 0. -1.
          5    1    1    2  502    0 -0.61221265794E+02 -0.34063675737E+02 -0.44988715173E+02  0.83365666093E+02  0.41800000000E+01 0. -1.
         -5    1    1    2    0  502  0.35999048020E+02  0.33893786351E+02 -0.87466888258E+02  0.10056166841E+03  0.41800000000E+01 0. -1.
        -11    1    1    2    0    0 -0.20925619253E+02  0.31270309791E+02 -0.48156464210E+02  0.61112673487E+02  0.00000000000E+00 0. -1.
         11    1    1    2    0    0  0.46147837027E+02 -0.31100420405E+02 -0.11222682223E+03  0.12526659028E+03  0.00000000000E+00 0.  1.
</event>
<event>
 6    1  0.4988969E-006  0.1174196E+03  0.7561462E-02  0.1247416E+00
          4   -1    0    0  501    0  0.00000000000E+00  0.00000000000E+00  0.18868553223E+03  0.18868553223E+03  0.00000000000E+00 0. -1.
         -4   -1    0    0    0  501 -0.00000000000E+00 -0.00000000000E+00 -0.11370014863E+03  0.11370014863E+03  0.00000000000E+00 0.  1.
          5    1    1    2  502    0  0.42900509010E+02 -0.39086681124E+01  0.26227997101E+01  0.43359922025E+02  0.41800000000E+01 0.  1.
         -5    1    1    2    0  502 -0.68195750539E+02  0.73549519539E+02 -0.28090624110E+02  0.10424369419E+03  0.41800000000E+01 0.  1.
        -11    1    1    2    0    0  0.30250413884E+02 -0.10797724260E+02 -0.63497134110E+01  0.32741369088E+02  0.00000000000E+00 0.  1.
         11    1    1    2    0    0 -0.49551723548E+01 -0.58843127167E+02  0.10680292141E+03  0.12204069555E+03  0.00000000000E+00 0. -1.
</event>
<event>
 6    1  0.4988969E-006  0.8483233E+02  0.7561462E-02  0.1315872E+00
          1   -1    0    0  501    0  0.00000000000E+00  0.00000000000E+00  0.15282697512E+02  0.15282697512E+02  0.00000000000E+00 0. -1.
         -1   -1    0    0    0  501 -0.00000000000E+00 -0.00000000000E+00 -0.95929168304E+03  0.95929168304E+03  0.00000000000E+00 0.  1.
          5    1    1    2  502    0 -0.40716783381E+02  0.36469496231E+01 -0.48121070720E+02  0.63279274156E+02  0.41800000000E+01 0. -1.
         -5    1    1    2    0  502 -0.17187783596E+01 -0.31736384816E+02 -0.50773161930E+03  0.50874258909E+03  0.41800000000E+01 0. -1.
        -11    1    1    2    0    0  0.50075960998E+02  0.51534308862E+02 -0.34868413070E+03  0.35601124963E+03  0.00000000000E+00 0.  1.
         11    1    1    2    0    0 -0.76403992574E+01 -0.23444873669E+02 -0.39472164815E+02  0.46541267681E+02  0.00000000000E+00 0. -1.
</event>
<event>
 6    1  0.4988969E-006  0.1774679E+03  0.7561462E-02  0.1170276E+00
          2   -1    0    0  501    0  0.00000000000E+00  0.00000000000E+00  0.45997474614E+03  0.45997474614E+03  0.00000000000E+00 0. -1.
         -2   -1    0    0    0  501 -0.00000000000E+00 -0.00000000000E+00 -0.71047550198E+02  0.71047550198E+02  0.00000000000E+00 0.  1.
          5    1    1    2  502    0  0.12749427735E+03  0.95532877143E+02  0.14855860846E+03  0.21787256349E+03  0.41800000000E+01 0. -1.
         -5    1    1    2    0  502 -0.27098153269E+02  0.39043278385E+01  0.14602848346E+02  0.31309252087E+02  0.41800000000E+01 0.  1.
        -11    1    1    2    0    0 -0.10413287277E+03 -0.11308143853E+03  0.21370380203E+03  0.26324965705E+03  0.00000000000E+00 0.  1.
         11    1    1    2    0    0  0.37367486899E+01  0.13644233547E+02  0.12061937106E+02  0.18590823721E+02  0.00000000000E+00 0. -1.
</event>
<event>
 6    1  0.4988969E-006  0.9946492E+02  0.7561462E-02  0.1281425E+00
          1   -1    0    0  501    0  0.00000000000E+00  0.00000000000E+00  0.44782034457E+02  0.44782034457E+02  0.00000000000E+00 0. -1.
         -1   -1    0    0    0  501 -0.00000000000E+00 -0.00000000000E+00 -0.27328192968E+03  0.27328192968E+03  0.00000000000E+00 0.  1.
          5    1    1    2  502    0  0.63104853158E+02  0.31164948424E+02 -0.43412745535E+02  0.82798643572E+02  0.41800000000E+01 0.  1.
         -5    1    1    2    0  502 -0.42478692017E+02 -0.14337644462E+02 -0.98110007765E+02  0.10794930916E+03  0.41800000000E+01 0.  1.
        -11    1    1    2    0    0 -0.29284240055E+01 -0.47711763701E+02 -0.20712720308E+02  0.52096111612E+02  0.00000000000E+00 0.  1.
         11    1    1    2    0    0 -0.17697737136E+02  0.30884459739E+02 -0.66264421613E+02  0.75219899793E+02  0.00000000000E+00 0. -1.
</event>
<event>
 6    1  0.4988969E-006  0.7793796E+02  0.7561462E-02  0.1335007E+00
         -3   -1    0    0    0  501 -0.00000000000E+00  0.00000000000E+00  0.11699396741E+04  0.11699396741E+04  0.00000000000E+00 0.  1.
          3   -1    0    0  501    0  0.00000000000E+00 -0.00000000000E+00 -0.12010638527E+02  0.12010638527E+02  0.00000000000E+00 0. -1.
          5    1    1    2  502    0 -0.38457043839E+02 -0.15070704261E+02  0.11394715145E+03  0.12127446587E+03  0.41800000000E+01 0.  1.
         -5    1    1    2    0  502  0.38965291563E+02  0.20391225095E+02  0.79872192201E+03  0.79994267113E+03  0.41800000000E+01 0.  1.
        -11    1    1    2    0    0 -0.26328530297E+02 -0.26075677798E+02  0.47635187327E+02  0.60351002908E+02  0.00000000000E+00 0.  1.
         11    1    1    2    0    0  0.25820282572E+02  0.20755156964E+02  0.19762477476E+03  0.20038217269E+03  0.00000000000E+00 0. -1.
</event>
<event>
 6    1  0.4988969E-006  0.9989365E+02  0.7561462E-02  0.1280520E+00
          2   -1    0    0  501    0  0.00000000000E+00  0.00000000000E+00  0.17182591944E+03  0.17182591944E+03  0.00000000000E+00 0.  1.
         -2   -1    0    0    0  501 -0.00000000000E+00 -0.00000000000E+00 -0.87782911205E+02  0.87782911205E+02  0.00000000000E+00 0. -1.
          5    1    1    2  502    0  0.10976319393E+02  0.79354585571E+02  0.32634900101E+02  0.86603342563E+02  0.41800000000E+01 0.  1.
         -5    1    1    2    0  502  0.19631315532E+02 -0.39452013473E+02 -0.20461341368E+02  0.48764626597E+02  0.41800000000E+01 0.  1.
        -11    1    1    2    0    0 -0.38299527434E+02 -0.39099008502E+01  0.77947950179E+02  0.86936897020E+02  0.00000000000E+00 0.  1.
         11    1    1    2    0    0  0.76918925090E+01 -0.35992671247E+02 -0.60785006816E+01  0.37303964460E+02  0.00000000000E+00 0. -1.
</event>
<event>
 6    1  0.4988969E-006  0.1032892E+03  0.7561462E-02  0.1273527E+00
         -1   -1    0    0    0  501 -0.00000000000E+00  0.00000000000E+00  0.32002108612E+02  0.32002108612E+02  0.00000000000E+00 0.  1.
          1   -1    0    0  501    0  0.00000000000E+00 -0.00000000000E+00 -0.45390043235E+03  0.45390043235E+03  0.00000000000E+00 0. -1.
          5    1    1    2  502    0 -0.99857969843E+01 -0.87201390131E+02 -0.19997276231E+03  0.21842705109E+03  0.41800000000E+01 0.  1.
         -5    1    1    2    0  502 -0.62998479887E+01  0.37625839295E+02 -0.30822534663E+02  0.49222890106E+02  0.41800000000E+01 0.  1.
        -11    1    1    2    0    0 -0.14490589959E+02  0.47299551464E+02 -0.38843338021E+02  0.62896976674E+02  0.00000000000E+00 0.  1.
         11    1    1    2    0    0  0.30776234932E+02  0.22759993709E+01 -0.15225968875E+03  0.15535562309E+03  0.00000000000E+00 0. -1.
</event>
<event>
 6    1  0.4988969E-006  0.1248229E+03  0.7561462E-02  0.1235346E+00
         -1   -1    0    0    0  501 -0.00000000000E+00  0.00000000000E+00  0.73466915101E+03  0.73466915101E+03  0.00000000000E+00 0.  1.
          1   -1    0    0  501    0  0.00000000000E+00 -0.00000000000E+00 -0.23819629687E+02  0.23819629687E+02  0.00000000000E+00 0. -1.
          5    1    1    2  502    0 -0.78471241844E+02 -0.65757306308E+02  0.23430039308E+03  0.25572623199E+03  0.41800000000E+01 0. -1.
         -5    1    1    2    0  502  0.88977113486E+01  0.37724042962E+02  0.16016721398E+03  0.16484320283E+03  0.41800000000E+01 0. -1.
        -11    1    1    2    0    0 -0.13341662136E+02  0.21135962795E+02  0.26907807087E+02  0.36725453763E+02  0.00000000000E+00 0. -1.
         11    1    1    2    0    0  0.82915192632E+02  0.68973005514E+01  0.28947410718E+03  0.30119389212E+03  0.00000000000E+00 0.  1.
</event>
<event>
 6    1  0.4988969E-006  0.2392350E+03  0.7561462E-02  0.1120303E+00
         -4   -1    0    0    0  501 -0.00000000000E+00  0.00000000000E+00  0.44659534892E+02  0.44659534892E+02  0.00000000000E+00 0.  1.
          4   -1    0    0  501    0  0.00000000000E+00 -0.00000000000E+00 -0.15265113160E+04  0.15265113160E+04  0.00000000000E+00 0. -1.
          5    1    1    2  502    0 -0.19057079213E+02  0.18692501369E+02 -0.14136024295E+03  0.14391932657E+03  0.41800000000E+01 0. -1.
         -5    1    1    2    0  502  0.11303276866E+03  0.18532124059E+03 -0.38956459695E+03  0.44598028724E+03  0.41800000000E+01 0. -1.
        -11    1    1    2    0    0 -0.10095891507E+03 -0.15599898115E+03 -0.83813113745E+03  0.85848249150E+03  0.00000000000E+00 0. -1.
         11    1    1    2    0    0  0.69832256164E+01 -0.48014760811E+02 -0.11279580380E+03  0.12278874562E+03  0.00000000000E+00 0.  1.
</event>
<event>
 6    1  0.4988969E-006  0.8153128E+02  0.7561462E-02  0.1324761E+00
         -1   -1    0    0    0  501 -0.00000000000E+00  0.00000000000E+00  0.19259342326E+03  0.19259342326E+03  0.00000000000E+00 0.  1.
          1   -1    0    0  501    0  0.00000000000E+00 -0.00000000000E+00 -0.71276795069E+02  0.71276795069E+02  0.00000000000E+00 0. -1.
          5    1    1    2  502    0  0.28120585806E+02  0.16508012071E+02  0.10318396003E+03  0.10829443114E+03  0.41800000000E+01 0.  1.
         -5    1    1    2    0  502  0.45246379930E+01 -0.46222591374E+02 -0.17293608225E+02  0.49734712101E+02  0.41800000000E+01 0.  1.
        -11    1    1    2    0    0  0.23049695682E+01  0.45250280177E+02 -0.10059147033E+02  0.46412144746E+02  0.00000000000E+00 0. -1.
         11    1    1    2    0    0 -0.34950193368E+02 -0.15535700874E+02  0.45485423423E+02  0.59428930346E+02  0.00000000000E+00 0.  1.
</event>
<event>
 6    1  0.4988969E-006  0.1642439E+03  0.7561462E-02  0.1183987E+00
          2   -1    0    0  501    0  0.00000000000E+00  0.00000000000E+00  0.36105660885E+03  0.36105660885E+03  0.00000000000E+00 0. -1.
         -2   -1    0    0    0  501 -0.00000000000E+00 -0.00000000000E+00 -0.96254772819E+02  0.96254772819E+02  0.00000000000E+00 0.  1.
          5    1    1    2  502    0  0.36273873465E+02  0.10529218221E+03  0.58599463763E+01  0.11159771011E+03  0.41800000000E+01 0. -1.
         -5    1    1    2    0  502 -0.22827107741E+02  0.42285050130E+02  0.96022029626E+02  0.10745606026E+03  0.41800000000E+01 0. -1.
        -11    1    1    2    0    0 -0.44591156594E+02 -0.11680475738E+03  0.93247474598E+02  0.15597055528E+03  0.00000000000E+00 0. -1.
         11    1    1    2    0    0  0.31144390870E+02 -0.30772474957E+02  0.69672385433E+02  0.82287056027E+02  0.00000000000E+00 0.  1.
</event>
<event>
 6    1  0.4988969E-006  0.1117801E+03  0.7561462E-02  0.1257309E+00
          2   -1    0    0  501    0  0.00000000000E+00  0.00000000000E+00  0.55579731836E+02  0.55579731836E+02  0.00000000000E+00 0.  1.
         -2   -1    0    0    0  501 -0.00000000000E+00 -0.00000000000E+00 -0.32071536577E+03  0.32071536577E+03  0.00000000000E+00 0. -1.
          5    1    1    2  502    0  0.93276672758E+02 -0.79236543144E+00 -0.81804352657E+02  0.12413939760E+03  0.41800000000E+01 0. -1.
         -5    1    1    2    0  502 -0.30806469433E+02  0.32504348966E+02 -0.82184030821E+02  0.93687024623E+02  0.41800000000E+01 0. -1.
        -11    1    1    2    0    0  0.11253096517E+00 -0.21853518818E+02 -0.91876114711E+02  0.94439448337E+02  0.00000000000E+00 0. -1.
         11    1    1    2    0    0 -0.62582734290E+02 -0.98584647167E+01 -0.92711357458E+01  0.64029227044E+02  0.00000000000E+00 0.  1.
</event>
<event>
 6    1  0.4988969E-006  0.1541740E+03  0.7561462E-02  0.1195436E+00
          1   -1    0    0  501    0  0.00000000000E+00  0.00000000000E+00  0.24876377100E+03  0.24876377100E+03  0.00000000000E+00 0. -1.
         -1   -1    0    0    0  501 -0.00000000000E+00 -0.00000000000E+00 -0.11359424818E+03  0.11359424818E+03  0.00000000000E+00 0.  1.
          5    1    1    2  502    0 -0.69746408969E+02 -0.67039761231E+02  0.26039497341E+02  0.10027172568E+03  0.41800000000E+01 0. -1.
         -5    1    1    2    0  502 -0.42360862792E+02  0.50651143362E+02 -0.18396621784E+02  0.68672331498E+02  0.41800000000E+01 0. -1.
        -11    1    1    2    0    0  0.59933529322E+02  0.54290031500E+02  0.73753526447E+02  0.10944870086E+03  0.00000000000E+00 0. -1.
         11    1    1    2    0    0  0.52173742439E+02 -0.37901413631E+02  0.53773120816E+02  0.83965261136E+02  0.00000000000E+00 0.  1.
</event>
<event>
 6    1  0.4988969E-006  0.1122983E+03  0.7561462E-02  0.1256372E+00
         -4   -1    0    0    0  501 -0.00000000000E+00  0.00000000000E+00  0.13746704908E+03  0.13746704908E+03  0.00000000000E+00 0.  1.
          4   -1    0    0  501    0  0.00000000000E+00 -0.00000000000E+00 -0.23039871847E+03  0.23039871847E+03  0.00000000000E+00 0. -1.
          5    1    1    2  502    0 -0.15504917453E+02 -0.80203910570E+02  0.14619704561E+02  0.83091984556E+02  0.41800000000E+01 0. -1.
         -5    1    1    2    0  502 -0.38481703281E+02  0.32867152213E+02  0.62286301032E+02  0.80362596264E+02  0.41800000000E+01 0. -1.
        -11    1    1    2    0    0  0.52155146540E+00 -0.12079776487E+02  0.42779078803E+01  0.12825502398E+02  0.00000000000E+00 0.  1.
         11    1    1    2    0    0  0.53465069269E+02  0.59416534844E+02 -0.17411558287E+03  0.19158568433E+03  0.00000000000E+00 0. -1.
</event>
<event>
 6    1  0.4988969E-006  0.1156583E+03  0.7561462E-02  0.1250436E+00
          2   -1    0    0  501    0  0.00000000000E+00  0.00000000000E+00  0.18518963573E+03  0.18518963573E+03  0.00000000000E+00 0. -1.
         -2   -1    0    0    0  501 -0.00000000000E+00 -0.00000000000E+00 -0.13380475898E+03  0.13380475898E+03  0.00000000000E+00 0.  1.
          5    1    1    2  502    0  0.25876033689E+02  0.84558081897E+02  0.40089823404E+01  0.88618184776E+02  0.41800000000E+01 0. -1.
         -5    1    1    2    0  502 -0.20980227111E+02 -0.11626546771E+02 -0.63490131551E+02  0.67998645015E+02  0.41800000000E+01 0. -1.
        -11    1    1    2    0    0 -0.47599827957E+02 -0.53239414812E+02  0.62224492612E+02  0.94720992351E+02  0.00000000000E+00 0.  1.
         11    1    1    2    0    0  0.42704021380E+02 -0.19692120314E+02  0.48641533352E+02  0.67656572565E+02  0.00000000000E+00 0. -1.
</event>
<event>
 6    1  0.4988969E-006  0.1449244E+03  0.7561462E-02  0.1206852E+00
         -2   -1    0    0    0  501 -0.00000000000E+00  0.00000000000E+00  0.53882015490E+02  0.53882015490E+02  0.00000000000E+00 0.  1.
          2   -1    0    0  501    0  0.00000000000E+00 -0.00000000000E+00 -0.51037053381E+03  0.51037053381E+03  0.00000000000E+00 0. -1.
          5    1    1    2  502    0  0.67003033267E+02 -0.10830467027E+01 -0.34518746621E+02  0.75495666931E+02  0.41800000000E+01 0.  1.
         -5    1    1    2    0  502  0.27706952682E+02 -0.80035550849E+02 -0.20718320302E+03  0.22386539848E+03  0.41800000000E+01 0.  1.
        -11    1    1    2    0    0 -0.76479521105E+01  0.41598976799E+02 -0.17725351197E+02  0.45860158278E+02  0.00000000000E+00 0.  1.
         11    1    1    2    0    0 -0.87062033838E+02  0.39519620753E+02 -0.19706121749E+03  0.21903132561E+03  0.00000000000E+00 0. -1.
</event>
<event>
 6    1  0.4988969E-006  0.1209422E+03  0.7561462E-02  0.1241551E+00
          4   -1    0    0  501    0  0.00000000000E+00  0.00000000000E+00  0.59584126680E+03  0.59584126680E+03  0.00000000000E+00 0.  1.
         -4   -1    0    0    0  501 -0.00000000000E+00 -0.00000000000E+00 -0.28902996830E+02  0.28902996830E+02  0.00000000000E+00 0. -1.
          5    1    1    2  502    0 -0.68884418268E+02  0.43629013776E+02  0.10266756345E+03  0.13117413963E+03  0.41800000000E+01 0. -1.
         -5    1    1    2    0  502  0.53000192413E+02  0.15068328547E+02  0.10710164343E+03  0.12051684259E+03  0.41800000000E+01 0. -1.
        -11    1    1    2    0    0  0.70322175277E+01 -0.80833789264E+02  0.30646131120E+03  0.31702064417E+03  0.00000000000E+00 0.  1.
         11    1    1    2    0    0  0.88520083267E+01  0.22136446941E+02  0.50707751890E+02  0.56032637242E+02  0.00000000000E+00 0. -1.
</event>
<event>
 6    1  0.4988969E-006  0.7028325E+02  0.7561462E-02  0.1359132E+00
          1   -1    0    0  501    0  0.00000000000E+00  0.00000000000E+00  0.91826408093E+02  0.91826408093E+02  0.00000000000E+00 0. -1.
         -1   -1    0    0    0  501 -0.00000000000E+00 -0.00000000000E+00 -0.14519725508E+03  0.14519725508E+03  0.00000000000E+00 0.  1.
          5    1    1    2  502    0  0.28364671829E+02 -0.18249683712E+02 -0.64470673790E+02  0.72880352239E+02  0.41800000000E+01 0. -1.
         -5    1    1    2    0  502 -0.80017795171E+01  0.52287626563E+02  0.32451667717E+02  0.62198131038E+02  0.41800000000E+01 0. -1.
        -11    1    1    2    0    0  0.85161054494E+01 -0.19302573814E+02  0.32700149752E+02  0.38915462244E+02  0.00000000000E+00 0. -1.
         11    1    1    2    0    0 -0.28878997761E+02 -0.14735369036E+02 -0.54051990665E+02  0.63029717651E+02  0.00000000000E+00 0.  1.
</event>
<event>
 6    1  0.4988969E-006  0.1227354E+03  0.7561462E-02  0.1238652E+00
          2   -1    0    0  501    0  0.00000000000E+00  0.00000000000E+00  0.59132852109E+03  0.59132852109E+03  0.00000000000E+00 0. -1.
         -2   -1    0    0    0  501 -0.00000000000E+00 -0.00000000000E+00 -0.27845705444E+02  0.27845705444E+02  0.00000000000E+00 0.  1.
          5    1    1    2  502    0 -0.75162044775E+02  0.26665365515E+02  0.21604747101E+03  0.23033531388E+03  0.41800000000E+01 0.  1.
         -5    1    1    2    0  502  0.49049687162E+02  0.33652223691E+02  0.11294346197E+03  0.12771860465E+03  0.41800000000E+01 0.  1.
        -11    1    1    2    0    0 -0.28513716130E+02 -0.36676266471E+02  0.15500720966E+03  0.16181908286E+03  0.00000000000E+00 0. -1.
         11    1    1    2    0    0  0.54626073743E+02 -0.23641322735E+02  0.79484673004E+02  0.99301225147E+02  0.00000000000E+00 0.  1.
</event>
<event>
 6    1  0.4988969E-006  0.7668070E+02  0.7561462E-02  0.1338744E+00
         -1   -1    0    0    0  501 -0.00000000000E+00  0.00000000000E+00  0.48339159034E+03  0.48339159034E+03  0.00000000000E+00 0.  1.
          1   -1    0    0  501    0  0.00000000000E+00 -0.00000000000E+00 -0.28267085948E+02  0.28267085948E+02  0.00000000000E+00 0. -1.
          5    1    1    2  502    0  0.64225870876E+01 -0.14937081997E+02  0.21399380151E+03  0.21465131150E+03  0.41800000000E+01 0.  1.
         -5    1    1    2    0  502  0.32106452794E+02  0.18800446905E+02  0.14523203566E+01  0.37468156470E+02  0.41800000000E+01 0.  1.
        -11    1    1    2    0    0  0.30119714305E+02  0.23065504839E+01  0.62219294242E+02  0.69164716011E+02  0.00000000000E+00 0. -1.
         11    1    1    2    0    0 -0.68648754187E+02 -0.61699153927E+01  0.17745908829E+03  0.19037449231E+03  0.00000000000E+00 0.  1.
</event>
<event>
 6    1  0.4988969E-006  0.1008166E+03  0.7561462E-02  0.1278588E+00
         -1   -1    0    0    0  501 -0.00000000000E+00  0.00000000000E+00  0.32017886171E+02  0.32017886171E+02  0.00000000000E+00 0.  1.
          1   -1    0    0  501    0  0.00000000000E+00 -0.00000000000E+00 -0.50021204191E+03  0.50021204191E+03  0.00000000000E+00 0. -1.
          5    1    1    2  502    0  0.24778854088E+02  0.88614533648E+01  0.47171529654E+01  0.27059950069E+02  0.41800000000E+01 0.  1.
         -5    1    1    2    0  502 -0.47167884239E+02  0.42878315093E+02 -0.21285129479E+03  0.22223074788E+03  0.41800000000E+01 0.  1.
        -11    1    1    2    0    0  0.56055445895E+02 -0.53372238239E+02 -0.19120656404E+03  0.20627835311E+03  0.00000000000E+00 0. -1.
         11    1    1    2    0    0 -0.33666415744E+02  0.16324697815E+01 -0.68853449876E+02  0.76660877027E+02  0.00000000000E+00 0.  1.
</event>
<event>
 6    1  0.5722929E-006  0.1272044E+03  0.7561462E-02  0.1231664E+00
         -3   -1    0    0    0  501 -0.00000000000E+00  0.00000000000E+00  0.22178113373E+03  0.22178113373E+03  0.00000000000E+00 0.  1.
          3   -1    0    0  501    0  0.00000000000E+00 -0.00000000000E+00 -0.75156872539E+02  0.75156872539E+02  0.00000000000E+00 0. -1.
          5    1    1    2  502    0  0.41500288080E+02  0.13714763926E+02  0.18025150040E+02  0.47463112985E+02  0.41800000000E+01 0. -1.
         -5    1    1    2    0  502 -0.53044905077E+02 -0.82021609454E+02  0.73434065005E+02  0.12227567491E+03  0.41800000000E+01 0. -1.
        -11    1    1    2    0    0 -0.37237237919E+02  0.14125154384E+02  0.87631904242E+01  0.40778982094E+02  0.00000000000E+00 0.  1.
         11    1    1    2    0    0  0.48781854915E+02  0.54181691144E+02  0.46401855725E+02  0.86420236281E+02  0.00000000000E+00 0. -1.
</event>
<event>
 6    1  0.4988969E-006  0.2190583E+03  0.7561462E-02  0.1134587E+00
         -2   -1    0    0    0  501 -0.00000000000E+00  0.00000000000E+00  0.26032244362E+03  0.26032244362E+03  0.00000000000E+00 0.  1.
          2   -1    0    0  501    0  0.00000000000E+00 -0.00000000000E+00 -0.19991398992E+03  0.19991398992E+03  0.00000000000E+00 0. -1.
          5    1    1    2  502    0 -0.85039986139E+01  0.69339867927E+02  0.25764743023E+02  0.74576334447E+02  0.41800000000E+01 0. -1.
         -5    1    1    2    0  502 -0.15936630386E+03  0.32822975642E+02  0.44545650245E+02  0.16875056709E+03  0.41800000000E+01 0. -1.
        -11    1    1    2    0    0  0.57436341263E+02 -0.39384137512E+01 -0.34445995051E+02  0.67089276160E+02  0.00000000000E+00 0. -1.
         11    1    1    2    0    0  0.11043396122E+03 -0.98224429817E+02  0.24544055485E+02  0.14982025585E+03  0.00000000000E+00 0.  1.
</event>
<event>
 6    1  0.4988969E-006  0.1525417E+03  0.7561462E-02  0.1197384E+00
         -2   -1    0    0    0  501 -0.00000000000E+00  0.00000000000E+00  0.10836213755E+04  0.10836213755E+04  0.00000000000E+00 0.  1.
          2   -1    0    0  501    0  0.00000000000E+00 -0.00000000000E+00 -0.43655631486E+02  0.43655631486E+02  0.00000000000E+00 0. -1.
          5    1    1    2  502    0  0.79667244356E+02 -0.11467602831E+03  0.44678176903E+03  0.46811204089E+03  0.41800000000E+01 0. -1.
         -5    1    1    2    0  502 -0.28841313412E+02  0.10631064902E+02  0.44439308774E+03  0.44547449953E+03  0.41800000000E+01 0.  1.
        -11    1    1    2    0    0  0.78811090210E+01  0.61155604992E+02  0.18312657625E+02  0.64323194344E+02  0.00000000000E+00 0.  1.
         11    1    1    2    0    0 -0.58707039965E+02  0.42889358413E+02  0.13047822965E+03  0.14936727225E+03  0.00000000000E+00 0. -1.
</event>
<event>
 6    1  0.4988969E-006  0.1214681E+03  0.7561462E-02  0.1240695E+00
         -3   -1    0    0    0  501 -0.00000000000E+00  0.00000000000E+00  0.24669136447E+03  0.24669136447E+03  0.00000000000E+00 0.  1.
          3   -1    0    0  501    0  0.00000000000E+00 -0.00000000000E+00 -0.72127617767E+02  0.72127617767E+02  0.00000000000E+00 0. -1.
          5    1    1    2  502    0 -0.11195823635E+02  0.10910810141E+03  0.96734663500E+02  0.14630444895E+03  0.41800000000E+01 0.  1.
         -5    1    1    2    0  502 -0.17830569550E+01 -0.34815235238E+02  0.18129389457E+02  0.39514896670E+02  0.41800000000E+01 0.  1.
        -11    1    1    2    0    0  0.13068308227E+02  0.82939942211E+01 -0.15064020575E+02  0.21598512355E+02  0.00000000000E+00 0. -1.
         11    1    1    2    0    0 -0.89427636301E-01 -0.82586860395E+02  0.74763714319E+02  0.11140112426E+03  0.00000000000E+00 0.  1.
</event>
<event>
 6    1  0.4988969E-006  0.1238963E+03  0.7561462E-02  0.1236804E+00
         -2   -1    0    0    0  501 -0.00000000000E+00  0.00000000000E+00  0.73751089800E+03  0.73751089800E+03  0.00000000000E+00 0.  1.
          2   -1    0    0  501    0  0.00000000000E+00 -0.00000000000E+00 -0.23439326690E+02  0.23439326690E+02  0.00000000000E+00 0. -1.
          5    1    1    2  502    0 -0.28690723809E+02  0.30079224253E+02  0.12513442499E+03  0.13192427404E+03  0.41800000000E+01 0. -1.
         -5    1    1    2    0  502  0.95190495643E+02 -0.28140320202E+02  0.36414000561E+03  0.37745002870E+03  0.41800000000E+01 0. -1.
        -11    1    1    2    0    0 -0.27205185244E+02  0.40524170203E+02  0.14512926073E+03  0.15311705586E+03  0.00000000000E+00 0.  1.
         11    1    1    2    0    0 -0.39294586590E+02 -0.42463074254E+02  0.79667879985E+02  0.98458866090E+02  0.00000000000E+00 0. -1.
</event>
<event>
 6    1  0.4988969E-006  0.2159025E+03  0.7561462E-02  0.1136975E+00
          2   -1    0    0  501    0  0.00000000000E+00  0.00000000000E+00  0.12230670585E+04  0.12230670585E+04  0.00000000000E+00 0.  1.
         -2   -1    0    0    0  501 -0.00000000000E+00 -0.00000000000E+00 -0.43670577410E+02  0.43670577410E+02  0.00000000000E+00 0. -1.
          5    1    1    2  502    0 -0.45356715104E+02 -0.62309713681E+02  0.79071920576E+02  0.11049693682E+03  0.41800000000E+01 0. -1.
         -5    1    1    2    0  502  0.27552295809E+02 -0.13416378738E+03  0.39305037808E+03  0.41625127382E+03  0.41800000000E+01 0. -1.
        -11    1    1    2    0    0 -0.28414567173E+02  0.14766913573E+03  0.48945435606E+03  0.51203430348E+03  0.00000000000E+00 0. -1.
         11    1    1    2    0    0  0.46218986467E+02  0.48804365336E+02  0.21781982633E+03  0.22795512174E+03  0.00000000000E+00 0.  1.
</event>
<event>
 6    1  0.4988969E-006  0.1026215E+03  0.7561462E-02  0.1274878E+00
         -1   -1    0    0    0  501 -0.00000000000E+00  0.00000000000E+00  0.45321474844E+03  0.45321474844E+03  0.00000000000E+00 0.  1.
          1   -1    0    0  501    0  0.00000000000E+00 -0.00000000000E+00 -0.19227342947E+03  0.19227342947E+03  0.00000000000E+00 0. -1.
          5    1    1    2  502    0 -0.28785739575E+02  0.30880068030E+02  0.25518995197E+02  0.49506453319E+02  0.41800000000E+01 0. -1.
         -5    1    1    2    0  502  0.55347909858E+02  0.25514358553E+02  0.39617693890E+03  0.40085909361E+03  0.41800000000E+01 0.  1.
        -11    1    1    2    0    0  0.28756753572E+02 -0.13701151962E+02 -0.19024492813E+02  0.37102611335E+02  0.00000000000E+00 0.  1.
         11    1    1    2    0    0 -0.55318923855E+02 -0.42693274621E+02 -0.14173012232E+03  0.15802001964E+03  0.00000000000E+00 0. -1.
</event>
<event>
 6    1  0.4988969E-006  0.1021682E+03  0.7561462E-02  0.1275802E+00
         -2   -1    0    0    0  501 -0.00000000000E+00  0.00000000000E+00  0.18722953124E+03  0.18722953124E+03  0.00000000000E+00 0.  1.
          2   -1    0    0  501    0  0.00000000000E+00 -0.00000000000E+00 -0.11512057110E+03  0.11512057110E+03  0.00000000000E+00 0. -1.
          5    1    1    2  502    0 -0.50513223382E+02  0.52892353266E+02 -0.37266458996E+02  0.82191533241E+02  0.41800000000E+01 0. -1.
         -5    1    1    2    0  502 -0.16411888046E+02  0.18594952988E+02  0.77791229414E+02  0.81756162579E+02  0.41800000000E+01 0. -1.
        -11    1    1    2    0    0  0.24226630639E+02 -0.55102599111E+02  0.59650309227E+02  0.84743055479E+02  0.00000000000E+00 0.  1.
         11    1    1    2    0    0  0.42698480789E+02 -0.16384707142E+02 -0.28066119504E+02  0.53659351039E+02  0.00000000000E+00 0. -1.
</event>
<event>
 6    1  0.4988969E-006  0.1046767E+03  0.7561462E-02  0.1270758E+00
          2   -1    0    0  501    0  0.00000000000E+00  0.00000000000E+00  0.26757492912E+03  0.26757492912E+03  0.00000000000E+00 0. -1.
         -2   -1    0    0    0  501 -0.00000000000E+00 -0.00000000000E+00 -0.56495571850E+02  0.56495571850E+02  0.00000000000E+00 0.  1.
          5    1    1    2  502    0  0.47098390244E+02  0.83274546491E+01 -0.16413484346E+01  0.48039268200E+02  0.41800000000E+01 0.  1.
         -5    1    1    2    0  502 -0.71479233038E+02  0.13850816413E+02  0.57481380608E+02  0.92858534274E+02  0.41800000000E+01 0.  1.
        -11    1    1    2    0    0 -0.48086422756E+00 -0.50628553094E+02  0.12471480791E+03  0.13460038979E+03  0.00000000000E+00 0.  1.
         11    1    1    2    0    0  0.24861707021E+02  0.28450282032E+02  0.30524517188E+02  0.48572308709E+02  0.00000000000E+00 0. -1.
</event>
<event>
 6    1  0.4988969E-006  0.2487501E+03  0.7561462E-02  0.1114097E+00
         -2   -1    0    0    0  501 -0.00000000000E+00  0.00000000000E+00  0.23436781114E+03  0.23436781114E+03  0.00000000000E+00 0.  1.
          2   -1    0    0  501    0  0.00000000000E+00 -0.00000000000E+00 -0.40003243388E+03  0.40003243388E+03  0.00000000000E+00 0. -1.
          5    1    1    2  502    0 -0.13195070566E+02 -0.15829762455E+02 -0.22597043659E+02  0.30867297400E+02  0.41800000000E+01 0. -1.
         -5    1    1    2    0  502  0.95986707634E+02 -0.21270782249E+03  0.94453880389E+02  0.25178775529E+03  0.41800000000E+01 0. -1.
        -11    1    1    2    0    0 -0.63941544150E+02  0.17729686964E+03 -0.12351992360E+03  0.22534389847E+03  0.00000000000E+00 0.  1.
         11    1    1    2    0    0 -0.18850092919E+02  0.51240715308E+02 -0.11400153587E+03  0.12640129386E+03  0.00000000000E+00 0. -1.
</event>
<event>
 6    1  0.4988969E-006  0.1559614E+03  0.7561462E-02  0.1193333E+00
         -1   -1    0    0    0  501 -0.00000000000E+00  0.00000000000E+00  0.17511361793E+03  0.17511361793E+03  0.00000000000E+00 0.  1.
          1   -1    0    0  501    0  0.00000000000E+00 -0.00000000000E+00 -0.16785367577E+03  0.16785367577E+03  0.00000000000E+00 0. -1.
          5    1    1    2  502    0  0.15901678616E+01 -0.37799815347E+02 -0.96965734696E+01  0.39279137098E+02  0.41800000000E+01 0. -1.
         -5    1    1    2    0  502 -0.12252455020E+03  0.34333131446E+02  0.67506800930E+02  0.14410298362E+03  0.41800000000E+01 0. -1.
        -11    1    1    2    0    0  0.38499627843E+02 -0.38152138210E+02 -0.38441355785E+02  0.66449566053E+02  0.00000000000E+00 0. -1.
         11    1    1    2    0    0  0.82434754501E+02  0.41618822110E+02 -0.12108929510E+02  0.93135606925E+02  0.00000000000E+00 0.  1.
</event>
<event>
 6    1  0.4988969E-006  0.1591571E+03  0.7561462E-02  0.1189652E+00
          1   -1    0    0  501    0  0.00000000000E+00  0.00000000000E+00  0.70573958827E+02  0.70573958827E+02  0.00000000000E+00 0. -1.
         -1   -1    0    0    0  501 -0.00000000000E+00 -0.00000000000E+00 -0.41561143733E+03  0.41561143733E+03  0.00000000000E+00 0.  1.
          5    1    1    2  502    0 -0.36079332194E+02 -0.11059241314E+02 -0.18943744399E+02  0.42430683260E+02  0.41800000000E+01 0.  1.
         -5    1    1    2    0  502  0.10772447890E+02  0.14185815258E+03 -0.14432701841E+03  0.20270062094E+03  0.41800000000E+01 0.  1.
        -11    1    1    2    0    0  0.19871393437E+02 -0.24339571225E+02 -0.12902796702E+01  0.31447604459E+02  0.00000000000E+00 0.  1.
         11    1    1    2    0    0  0.54354908671E+01 -0.10645934004E+03 -0.18047643602E+03  0.20960648750E+03  0.00000000000E+00 0. -1.
</event>
<event>
 6    1  0.4988969E-006  0.1083318E+03  0.7561462E-02  0.1263691E+00
         -2   -1    0    0    0  501 -0.00000000000E+00  0.00000000000E+00  0.33941614189E+03  0.33941614189E+03  0.00000000000E+00 0.  1.
          2   -1    0    0  501    0  0.00000000000E+00 -0.00000000000E+00 -0.73893418444E+02  0.73893418444E+02  0.00000000000E+00 0. -1.
          5    1    1    2  502    0  0.37180754323E+02  0.26549637959E+02  0.63035163870E+02  0.77962786327E+02  0.41800000000E+01 0.  1.
         -5    1    1    2    0  502 -0.83444700577E+02 -0.10136235502E+02  0.21362597143E+03  0.22960681478E+03  0.41800000000E+01 0.  1.
        -11    1    1    2    0    0 -0.18685470296E+02 -0.10430263714E+02 -0.30900956284E+02  0.37587315688E+02  0.00000000000E+00 0. -1.
         11    1    1    2    0    0  0.64949416550E+02 -0.59831387434E+01  0.19762544434E+02  0.68152643543E+02  0.00000000000E+00 0.  1.
</event>
<event>
 6    1  0.4988969E-006  0.7482384E+02  0.7561462E-02  0.1344417E+00
         -2   -1    0    0    0  501 -0.00000000000E+00  0.00000000000E+00  0.21348501739E+02  0.21348501739E+02  0.00000000000E+00 0.  1.
          2   -1    0    0  501    0  0.00000000000E+00 -0.00000000000E+00 -0.56656261571E+03  0.56656261571E+03  0.00000000000E+00 0. -1.
          5    1    1    2  502    0  0.18048836336E+02  0.26752841073E+02 -0.26279571067E+03  0.26480281899E+03  0.41800000000E+01 0.  1.
         -5    1    1    2    0  502 -0.10862470199E+02 -0.28942345172E+02 -0.59983962945E+01  0.31766425059E+02  0.41800000000E+01 0.  1.
        -11    1    1    2    0    0 -0.52036358938E+01  0.43873057206E+02 -0.89379773045E+02  0.99702892660E+02  0.00000000000E+00 0.  1.
         11    1    1    2    0    0 -0.19827302438E+01 -0.41683553106E+02 -0.18704023396E+03  0.19163898074E+03  0.00000000000E+00 0. -1.
</event>
<event>
 6    1  0.4988969E-006  0.1851632E+03  0.7561462E-02  0.1162898E+00
         -2   -1    0    0    0  501 -0.00000000000E+00  0.00000000000E+00  0.34709708273E+02  0.34709708273E+02  0.00000000000E+00 0.  1.
          2   -1    0    0  501    0  0.00000000000E+00 -0.00000000000E+00 -0.11988660891E+04  0.11988660891E+04  0.00000000000E+00 0. -1.
          5    1    1    2  502    0 -0.58924329931E+02  0.90099670155E+02 -0.30825000030E+03  0.32653569836E+03  0.41800000000E+01 0. -1.
         -5    1    1    2    0  502 -0.81736224813E+02 -0.12116551919E+02 -0.10041327741E+03  0.13010734013E+03  0.41800000000E+01 0. -1.
        -11    1    1    2    0    0  0.10395354377E+03 -0.93674494263E+02 -0.54429348429E+03  0.56199345831E+03  0.00000000000E+00 0.  1.
         11    1    1    2    0    0  0.36707010971E+02  0.15691376027E+02 -0.21119961881E+03  0.21493930055E+03  0.00000000000E+00 0. -1.
</event>
<event>
 6    1  0.4988969E-006  0.7642278E+02  0.7561462E-02  0.1339521E+00
          2   -1    0    0  501    0  0.00000000000E+00  0.00000000000E+00  0.43820629697E+03  0.43820629697E+03  0.00000000000E+00 0. -1.
         -2   -1    0    0    0  501 -0.00000000000E+00 -0.00000000000E+00 -0.56505964183E+02  0.56505964183E+02  0.00000000000E+00 0.  1.
          5    1    1    2  502    0 -0.94959434075E+01  0.28883218145E+01  0.18974870968E+03  0.19005409906E+03  0.41800000000E+01 0. -1.
         -5    1    1    2    0  502 -0.26421952482E+02 -0.47528644123E+02 -0.26937362080E+02  0.60829149764E+02  0.41800000000E+01 0.  1.
        -11    1    1    2    0    0 -0.19516303458E+02  0.80294574067E+01  0.77436407846E+01  0.22479374091E+02  0.00000000000E+00 0.  1.
         11    1    1    2    0    0  0.55434199347E+02  0.36610864902E+02  0.21114534440E+03  0.22134963824E+03  0.00000000000E+00 0. -1.
</event>
<event>
 6    1  0.4988969E-006  0.1077573E+03  0.7561462E-02  0.1264780E+00
          4   -1    0    0  501    0  0.00000000000E+00  0.00000000000E+00  0.11522761620E+03  0.11522761620E+03  0.00000000000E+00 0. -1.
         -4   -1    0    0    0  501 -0.00000000000E+00 -0.00000000000E+00 -0.16974449864E+03  0.16974449864E+03  0.00000000000E+00 0.  1.
          5    1    1    2  502    0  0.71887903240E+01  0.67000084903E+00  0.41217788916E+02  0.42053610197E+02  0.41800000000E+01 0.  1.
         -5    1    1    2    0  502 -0.68299283292E+02  0.63131791185E+02 -0.63514432885E+02  0.11270302011E+03  0.41800000000E+01 0.  1.
        -11    1    1    2    0    0 -0.14742844341E+02  0.31953248795E+00  0.14296047864E+02  0.20538513695E+02  0.00000000000E+00 0. -1.
         11    1    1    2    0    0  0.75853337309E+02 -0.64121324522E+02 -0.46516286333E+02  0.10967697084E+03  0.00000000000E+00 0.  1.
</event>
<event>
 6    1  0.4988969E-006  0.1236479E+03  0.7561462E-02  0.1237198E+00
          2   -1    0    0  501    0  0.00000000000E+00  0.00000000000E+00  0.22237591806E+03  0.22237591806E+03  0.00000000000E+00 0. -1.
         -2   -1    0    0    0  501 -0.00000000000E+00 -0.00000000000E+00 -0.12610919345E+03  0.12610919345E+03  0.00000000000E+00 0.  1.
          5    1    1    2  502    0 -0.10025916482E+02  0.63968105559E+02 -0.64994450015E+02  0.91837837860E+02  0.41800000000E+01 0. -1.
         -5    1    1    2    0  502  0.40394180098E+02  0.40983542500E+02  0.48088650548E+02  0.75108796110E+02  0.41800000000E+01 0. -1.
        -11    1    1    2    0    0 -0.41785575309E+02 -0.10530602483E+03  0.62085110296E+02  0.12918960520E+03  0.00000000000E+00 0.  1.
         11    1    1    2    0    0  0.11417311693E+02  0.35437677511E+00  0.51087413784E+02  0.52348872350E+02  0.00000000000E+00 0. -1.
</event>
<event>
 6    1  0.4988969E-006  0.1353089E+03  0.7561462E-02  0.1219784E+00
          1   -1    0    0  501    0  0.00000000000E+00  0.00000000000E+00  0.10327574542E+03  0.10327574542E+03  0.00000000000E+00 0. -1.
         -1   -1    0    0    0  501 -0.00000000000E+00 -0.00000000000E+00 -0.18312794965E+03  0.18312794965E+03  0.00000000000E+00 0.  1.
          5    1    1    2  502    0 -0.23814583798E+02  0.53871984555E+02 -0.16836829158E+02  0.61402575984E+02  0.41800000000E+01 0. -1.
         -5    1    1    2    0  502 -0.56538852347E+02 -0.69887917905E+02 -0.10379814358E+02  0.90587945334E+02  0.41800000000E+01 0. -1.
        -11    1    1    2    0    0 -0.10363310776E+01  0.37408661685E+02 -0.51212259832E+01  0.37771800417E+02  0.00000000000E+00 0.  1.
         11    1    1    2    0    0  0.81389767222E+02 -0.21392728335E+02 -0.47514334733E+02  0.96641373330E+02  0.00000000000E+00 0. -1.
</event>
<event>
 6    1  0.4988969E-006  0.2303757E+03  0.7561462E-02  0.1126376E+00
          1   -1    0    0  501    0  0.00000000000E+00  0.00000000000E+00  0.59550004225E+02  0.59550004225E+02  0.00000000000E+00 0. -1.
         -1   -1    0    0    0  501 -0.00000000000E+00 -0.00000000000E+00 -0.90741184275E+03  0.90741184275E+03  0.00000000000E+00 0.  1.
          5    1    1    2  502    0 -0.69057943863E+02  0.10380584207E+03 -0.23152740731E+03  0.26299632163E+03  0.41800000000E+01 0. -1.
         -5    1    1    2    0  502 -0.11428464068E+03 -0.12423710434E+02 -0.23638354953E+03  0.26288777561E+03  0.41800000000E+01 0. -1.
        -11    1    1    2    0    0  0.16098008160E+03 -0.41408779820E+02 -0.25173062391E+03  0.30165805265E+03  0.00000000000E+00 0. -1.
         11    1    1    2    0    0  0.22362502945E+02 -0.49973351811E+02 -0.12822025778E+03  0.13941969708E+03  0.00000000000E+00 0.  1.
</event>
<event>
 6    1  0.4988969E-006  0.1174909E+03  0.7561462E-02  0.1247295E+00
          1   -1    0    0  501    0  0.00000000000E+00  0.00000000000E+00  0.69126827169E+03  0.69126827169E+03  0.00000000000E+00 0. -1.
         -1   -1    0    0    0  501 -0.00000000000E+00 -0.00000000000E+00 -0.31578701576E+02  0.31578701576E+02  0.00000000000E+00 0.  1.
          5    1    1    2  502    0 -0.66768145711E+02  0.24714158196E+02  0.53753451508E+02  0.89306667422E+02  0.41800000000E+01 0.  1.
         -5    1    1    2    0  502 -0.18193881117E+02  0.20194350551E+02  0.26418292628E+03  0.26561046674E+03  0.41800000000E+01 0.  1.
        -11    1    1    2    0    0  0.10592279931E+03 -0.28918404521E+02  0.28184770068E+03  0.30247981736E+03  0.00000000000E+00 0.  1.
         11    1    1    2    0    0 -0.20960772484E+02 -0.15990104225E+02  0.59905491650E+02  0.65450021743E+02  0.00000000000E+00 0. -1.
</event>
<event>
 6    1  0.4988969E-006  0.1161198E+03  0.7561462E-02  0.1249639E+00
         -1   -1    0    0    0  501 -0.00000000000E+00  0.00000000000E+00  0.49994596010E+02  0.49994596010E+02  0.00000000000E+00 0.  1.
          1   -1    0    0  501    0  0.00000000000E+00 -0.00000000000E+00 -0.28610259325E+03  0.28610259325E+03  0.00000000000E+00 0. -1.
          5    1    1    2  502    0 -0.41104370665E+02 -0.28830931887E+01 -0.52670361779E+02  0.67003887380E+02  0.41800000000E+01 0. -1.
         -5    1    1    2    0  502  0.92168846437E+02 -0.59048051028E+01 -0.74211131288E+02  0.11855263550E+03  0.41800000000E+01 0. -1.
        -11    1    1    2    0    0 -0.73461347758E+02  0.15317324492E+02 -0.10095192714E+03  0.12578744626E+03  0.00000000000E+00 0. -1.
         11    1    1    2    0    0  0.22396871986E+02 -0.65294262009E+01 -0.82745770358E+01  0.24753220121E+02  0.00000000000E+00 0.  1.
</event>
<event>
 6    1  0.4988969E-006  0.1161461E+03  0.7561462E-02  0.1249594E+00
         -2   -1    0    0    0  501 -0.00000000000E+00  0.00000000000E+00  0.76700372953E+02  0.76700372953E+02  0.00000000000E+00 0.  1.
          2   -1    0    0  501    0  0.00000000000E+00 -0.00000000000E+00 -0.19050853554E+03  0.19050853554E+03  0.00000000000E+00 0. -1.
          5    1    1    2  502    0 -0.15380381412E+02 -0.44849495037E+02 -0.28326738298E+02  0.55388715819E+02  0.41800000000E+01 0. -1.
         -5    1    1    2    0  502 -0.19924152190E+02  0.86116641868E+02 -0.39191562294E+02  0.96780673702E+02  0.41800000000E+01 0. -1.
        -11    1    1    2    0    0 -0.25659415675E+02 -0.15809698638E+02  0.60662669173E+01  0.30743320870E+02  0.00000000000E+00 0. -1.
         11    1    1    2    0    0  0.60963949277E+02 -0.25457448193E+02 -0.52356128915E+02  0.84296198104E+02  0.00000000000E+00 0.  1.
</event>
<event>
 6    1  0.4988969E-006  0.2030365E+03  0.7561462E-02  0.1147202E+00
         -3   -1    0    0    0  501 -0.00000000000E+00  0.00000000000E+00  0.60710972339E+03  0.60710972339E+03  0.00000000000E+00 0.  1.
          3   -1    0    0  501    0  0.00000000000E+00 -0.00000000000E+00 -0.78415723257E+02  0.78415723257E+02  0.00000000000E+00 0. -1.
          5    1    1    2  502    0  0.67698409160E+02  0.33745199095E+02  0.51281634361E+02  0.91482738740E+02  0.41800000000E+01 0. -1.
         -5    1    1    2    0  502  0.31927602857E+02  0.12083984706E+03  0.29079085448E+03  0.31654136208E+03  0.41800000000E+01 0. -1.
        -11    1    1    2    0    0  0.16863681324E+02 -0.31878763759E+02  0.29283162638E+02  0.46455817081E+02  0.00000000000E+00 0. -1.
         11    1    1    2    0    0 -0.11648969334E+03 -0.12270628239E+03  0.15733834865E+03  0.23104552874E+03  0.00000000000E+00 0.  1.
</event>
<event>
 6    1  0.4988969E-006  0.6767642E+02  0.7561462E-02  0.1368178E+00
         -1   -1    0    0    0  501 -0.00000000000E+00  0.00000000000E+00  0.15903701315E+03  0.15903701315E+03  0.00000000000E+00 0.  1.
          1   -1    0    0  501    0  0.00000000000E+00 -0.00000000000E+00 -0.90141205279E+02  0.90141205279E+02  0.00000000000E+00 0. -1.
          5    1    1    2  502    0  0.19229103928E+02 -0.39090262523E+02  0.92034376605E+02  0.10190979315E+03  0.41800000000E+01 0. -1.
         -5    1    1    2    0  502  0.20332028473E+02  0.13269469090E+02 -0.35543582760E+02  0.43246836499E+02  0.41800000000E+01 0. -1.
        -11    1    1    2    0    0 -0.35044630250E+01 -0.13297729494E+02  0.41265540266E+02  0.43496616929E+02  0.00000000000E+00 0.  1.
         11    1    1    2    0    0 -0.36056669375E+02  0.39118522927E+02 -0.28860526244E+02  0.60524971851E+02  0.00000000000E+00 0. -1.
</event>
<event>
 6    1  0.4988969E-006  0.1089352E+03  0.7561462E-02  0.1262554E+00
         -1   -1    0    0    0  501 -0.00000000000E+00  0.00000000000E+00  0.43332352620E+02  0.43332352620E+02  0.00000000000E+00 0.  1.
          1   -1    0    0  501    0  0.00000000000E+00 -0.00000000000E+00 -0.45783423969E+03  0.45783423969E+03  0.00000000000E+00 0. -1.
          5    1    1    2  502    0  0.51230403210E+02  0.19673044981E+02 -0.14968824521E+03  0.15948550425E+03  0.41800000000E+01 0. -1.
         -5    1    1    2    0  502 -0.32387360874E+02  0.66440205894E+02 -0.39657578963E+02  0.83984749049E+02  0.41800000000E+01 0. -1.
        -11    1    1    2    0    0 -0.95242498403E+00 -0.27555834774E+02 -0.35653841985E+01  0.27801854397E+02  0.00000000000E+00 0.  1.
         11    1    1    2    0    0 -0.17890617353E+02 -0.58557416101E+02 -0.22159067869E+03  0.22989448461E+03  0.00000000000E+00 0. -1.
</event>
<event>
 6    1  0.4988969E-006  0.1140075E+03  0.7561462E-02  0.1253324E+00
         -4   -1    0    0    0  501 -0.00000000000E+00  0.00000000000E+00  0.70237215791E+02  0.70237215791E+02  0.00000000000E+00 0. -1.
          4   -1    0    0  501    0  0.00000000000E+00 -0.00000000000E+00 -0.25133109841E+03  0.25133109841E+03  0.00000000000E+00 0.  1.
          5    1    1    2  502    0  0.43845173565E+02  0.55304379704E+02 -0.78465965470E+02  0.10561890833E+03  0.41800000000E+01 0. -1.
         -5    1    1    2    0  502  0.21794971363E+02 -0.37928631677E+02  0.19957501249E+02  0.48263610865E+02  0.41800000000E+01 0. -1.
        -11    1    1    2    0    0 -0.84291810341E+02  0.47588739638E+01 -0.10063471553E+03  0.13135867745E+03  0.00000000000E+00 0.  1.
         11    1    1    2    0    0  0.18651665412E+02 -0.22134621992E+02 -0.21950702864E+02  0.36327117551E+02  0.00000000000E+00 0. -1.
</event>
<event>
 6    1  0.4988969E-006  0.5882058E+02  0.7561462E-02  0.1402849E+00
         -2   -1    0    0    0  501 -0.00000000000E+00  0.00000000000E+00  0.37758721597E+02  0.37758721597E+02  0.00000000000E+00 0.  1.
          2   -1    0    0  501    0  0.00000000000E+00 -0.00000000000E+00 -0.32276714131E+03  0.32276714131E+03  0.00000000000E+00 0. -1.
          5    1    1    2  502    0  0.67279052279E+01  0.96225250828E+01 -0.11931345543E+03  0.11996262228E+03  0.41800000000E+01 0. -1.
         -5    1    1    2    0  502 -0.30711116878E+02 -0.44943631216E+02  0.87593872068E+01  0.55292874324E+02  0.41800000000E+01 0.  1.
        -11    1    1    2    0    0  0.16590772134E+02  0.23054045403E+01 -0.15723538062E+02  0.22973860348E+02  0.00000000000E+00 0. -1.
         11    1    1    2    0    0  0.73924395164E+01  0.33015701593E+02 -0.15873081342E+03  0.16229650595E+03  0.00000000000E+00 0.  1.
</event>
<event>
 6    1  0.4988969E-006  0.4122398E+02  0.7561462E-02  0.1499393E+00
          1   -1    0    0  501    0  0.00000000000E+00  0.00000000000E+00  0.10082762650E+03  0.10082762650E+03  0.00000000000E+00 0. -1.
         -1   -1    0    0    0  501 -0.00000000000E+00 -0.00000000000E+00 -0.11937944048E+03  0.11937944048E+03  0.00000000000E+00 0.  1.
          5    1    1    2  502    0  0.15184549550E+02 -0.14698421898E+01  0.52505173072E+02  0.54836088304E+02  0.41800000000E+01 0.  1.
         -5    1    1    2    0  502 -0.21049945735E+02 -0.56532474536E+01 -0.68018931363E+02  0.71547933904E+02  0.41800000000E+01 0.  1.
        -11    1    1    2    0    0  0.20758842751E+02  0.16775045502E+02 -0.42709342221E+02  0.50362879355E+02  0.00000000000E+00 0.  1.
         11    1    1    2    0    0 -0.14893446566E+02 -0.96519558590E+01  0.39671286538E+02  0.43460165417E+02  0.00000000000E+00 0. -1.
</event>
<event>
 6    1  0.4988969E-006  0.9418219E+02  0.7561462E-02  0.1293029E+00
         -1   -1    0    0    0  501 -0.00000000000E+00  0.00000000000E+00  0.14694085862E+02  0.14694085862E+02  0.00000000000E+00 0.  1.
          1   -1    0    0  501    0  0.00000000000E+00 -0.00000000000E+00 -0.10590833402E+04  0.10590833402E+04  0.00000000000E+00 0. -1.
          5    1    1    2  502    0 -0.42409678989E+02  0.29718762250E+02 -0.71554097053E+02  0.88426505680E+02  0.41800000000E+01 0.  1.
         -5    1    1    2    0  502 -0.20030169509E+02  0.36255813603E+02 -0.56895473268E+03  0.57047581189E+03  0.41800000000E+01 0.  1.
        -11    1    1    2    0    0  0.45010503982E+02 -0.62476698894E+02 -0.32042583618E+03  0.32954817533E+03  0.00000000000E+00 0.  1.
         11    1    1    2    0    0  0.17429344516E+02 -0.34978769598E+01 -0.83454588379E+02  0.85326933117E+02  0.00000000000E+00 0. -1.
</event>
<event>
 6    1  0.4988969E-006  0.1301558E+03  0.7561462E-02  0.1227225E+00
         -2   -1    0    0    0  501 -0.00000000000E+00  0.00000000000E+00  0.31944361705E+02  0.31944361705E+02  0.00000000000E+00 0. -1.
          2   -1    0    0  501    0  0.00000000000E+00 -0.00000000000E+00 -0.68420807143E+03  0.68420807143E+03  0.00000000000E+00 0.  1.
          5    1    1    2  502    0  0.11317215172E+03  0.27297172026E+02 -0.27686457087E+03  0.30037399109E+03  0.41800000000E+01 0. -1.
         -5    1    1    2    0  502 -0.12876648240E+02 -0.40341647960E+02 -0.68938996135E+02  0.81014284037E+02  0.41800000000E+01 0. -1.
        -11    1    1    2    0    0 -0.84455782197E+02  0.91133924455E+01 -0.30689891011E+03  0.31843802238E+03  0.00000000000E+00 0.  1.
         11    1    1    2    0    0 -0.15839721283E+02  0.39310834881E+01  0.43876738540E+00  0.16326135628E+02  0.00000000000E+00 0. -1.
</event>
<event>
 6    1  0.4988969E-006  0.9320599E+02  0.7561462E-02  0.1295269E+00
          1   -1    0    0  501    0  0.00000000000E+00  0.00000000000E+00  0.70533115680E+02  0.70533115680E+02  0.00000000000E+00 0. -1.
         -1   -1    0    0    0  501 -0.00000000000E+00 -0.00000000000E+00 -0.21464453729E+03  0.21464453729E+03  0.00000000000E+00 0.  1.
          5    1    1    2  502    0  0.51242257909E+02 -0.13631297325E+02 -0.49360132912E+02  0.72563602333E+02  0.41800000000E+01 0. -1.
         -5    1    1    2    0  502 -0.74885512076E+02 -0.61029603501E+01 -0.87027616560E+02  0.11504940021E+03  0.41800000000E+01 0. -1.
        -11    1    1    2    0    0  0.38849386913E+02  0.10741872613E+02 -0.42490397759E+02  0.58567026495E+02  0.00000000000E+00 0.  1.
         11    1    1    2    0    0 -0.15206132746E+02  0.89923850628E+01  0.34766725622E+02  0.38997623936E+02  0.00000000000E+00 0. -1.
</event>
<event>
 6    1  0.4988969E-006  0.1252950E+03  0.7561462E-02  0.1234609E+00
         -1   -1    0    0    0  501 -0.00000000000E+00  0.00000000000E+00  0.42283882333E+02  0.42283882333E+02  0.00000000000E+00 0.  1.
          1   -1    0    0  501    0  0.00000000000E+00 -0.00000000000E+00 -0.48626315816E+03  0.48626315816E+03  0.00000000000E+00 0. -1.
          5    1    1    2  502    0  0.11881589993E+02  0.67789366082E+02 -0.36460802100E+02  0.77996364174E+02  0.41800000000E+01 0. -1.
         -5    1    1    2    0  502 -0.67250381801E+02 -0.37589364480E+01 -0.13206340968E+03  0.14830697904E+03  0.41800000000E+01 0. -1.
        -11    1    1    2    0    0 -0.17682792063E+02 -0.10683850060E+01 -0.11244769457E+02  0.20982550413E+02  0.00000000000E+00 0.  1.
         11    1    1    2    0    0  0.73051583871E+02 -0.62962044628E+02 -0.26421029459E+03  0.28126114687E+03  0.00000000000E+00 0. -1.
</event>
<event>
 6    1  0.4988969E-006  0.4676205E+02  0.7561462E-02  0.1463632E+00
          2   -1    0    0  501    0  0.00000000000E+00  0.00000000000E+00  0.25860429699E+02  0.25860429699E+02  0.00000000000E+00 0. -1.
         -2   -1    0    0    0  501 -0.00000000000E+00 -0.00000000000E+00 -0.49719845266E+03  0.49719845266E+03  0.00000000000E+00 0.  1.
          5    1    1    2  502    0 -0.17184650709E+02 -0.50789157387E+00  0.40264583320E+01  0.18145383450E+02  0.41800000000E+01 0.  1.
         -5    1    1    2    0  502  0.40510656061E+01  0.56274202229E+01 -0.34873734455E+03  0.34883131579E+03  0.41800000000E+01 0.  1.
        -11    1    1    2    0    0 -0.22594706565E+02  0.14623808397E+02 -0.10783654537E+03  0.11114448728E+03  0.00000000000E+00 0.  1.
         11    1    1    2    0    0  0.35728291669E+02 -0.19743337046E+02 -0.18790591384E+02  0.44937695845E+02  0.00000000000E+00 0. -1.
</event>
<event>
 6    1  0.4988969E-006  0.1093756E+03  0.7561462E-02  0.1261731E+00
         -1   -1    0    0    0  501 -0.00000000000E+00  0.00000000000E+00  0.55955476888E+02  0.55955476888E+02  0.00000000000E+00 0.  1.
          1   -1    0    0  501    0  0.00000000000E+00 -0.00000000000E+00 -0.35385086812E+03  0.35385086812E+03  0.00000000000E+00 0. -1.
          5    1    1    2  502    0  0.14843688104E+02  0.15907166012E+02 -0.91080398629E+02  0.93736249240E+02  0.41800000000E+01 0. -1.
         -5    1    1    2    0  502 -0.17715691063E+02 -0.10438030597E+03 -0.61485634698E+02  0.12250326387E+03  0.41800000000E+01 0. -1.
        -11    1    1    2    0    0  0.94518019698E+01  0.23417094982E+02  0.83157203144E+01  0.26586615096E+02  0.00000000000E+00 0.  1.
         11    1    1    2    0    0 -0.65797990114E+01  0.65056044976E+02 -0.15364507822E+03  0.16698021680E+03  0.00000000000E+00 0. -1.
</event>
<event>
 6    1  0.4988969E-006  0.1042025E+03  0.7561462E-02  0.1271699E+00
          1   -1    0    0  501    0  0.00000000000E+00  0.00000000000E+00  0.43886251762E+02  0.43886251762E+02  0.00000000000E+00 0. -1.
         -1   -1    0    0    0  501 -0.00000000000E+00 -0.00000000000E+00 -0.37639453884E+03  0.37639453884E+03  0.00000000000E+00 0.  1.
          5    1    1    2  502    0  0.42539755679E+02  0.20400080336E+02 -0.14967811538E+03  0.15699300849E+03  0.41800000000E+01 0. -1.
         -5    1    1    2    0  502 -0.59167568432E+02 -0.50785921216E+02 -0.13681563589E+03  0.15753095432E+03  0.41800000000E+01 0. -1.
        -11    1    1    2    0    0 -0.19568373129E+02  0.40834793037E+02  0.12695616086E+01  0.45299153811E+02  0.00000000000E+00 0.  1.
         11    1    1    2    0    0  0.36196185881E+02 -0.10448952157E+02 -0.47284097416E+02  0.60457673971E+02  0.00000000000E+00 0. -1.
</event>
<event>
 6    1  0.4988969E-006  0.1130631E+03  0.7561462E-02  0.1255000E+00
         -1   -1    0    0    0  501 -0.00000000000E+00  0.00000000000E+00  0.78024918350E+02  0.78024918350E+02  0.00000000000E+00 0.  1.
          1   -1    0    0  501    0  0.00000000000E+00 -0.00000000000E+00 -0.23715014818E+03  0.23715014818E+03  0.00000000000E+00 0. -1.
          5    1    1    2  502    0  0.32587537934E+02  0.69546754939E+02 -0.21890497398E+02  0.79971026175E+02  0.41800000000E+01 0. -1.
         -5    1    1    2    0  502  0.26532813215E+01 -0.48957775020E+02  0.15703863262E+02  0.51652563905E+02  0.41800000000E+01 0.  1.
        -11    1    1    2    0    0 -0.66060516422E+02 -0.20547809618E+02 -0.90436156042E+02  0.11386352634E+03  0.00000000000E+00 0. -1.
         11    1    1    2    0    0  0.30819697167E+02 -0.41170301207E-01 -0.62502439650E+02  0.69687950111E+02  0.00000000000E+00 0.  1.
</event>
<event>
 6    1  0.4988969E-006  0.7702094E+02  0.7561462E-02  0.1337725E+00
          1   -1    0    0  501    0  0.00000000000E+00  0.00000000000E+00  0.51224479108E+03  0.51224479108E+03  0.00000000000E+00 0. -1.
         -1   -1    0    0    0  501 -0.00000000000E+00 -0.00000000000E+00 -0.25799770798E+02  0.25799770798E+02  0.00000000000E+00 0.  1.
          5    1    1    2  502    0  0.19665686864E+02 -0.35136677963E+01 -0.56602958132E+01  0.21180095607E+02  0.41800000000E+01 0. -1.
         -5    1    1    2    0  502 -0.25953551159E+02 -0.34161010659E+02  0.27361768639E+03  0.27699218792E+03  0.41800000000E+01 0. -1.
        -11    1    1    2    0    0 -0.10570918476E+02  0.60909789673E+02  0.96891792959E+02  0.11493374760E+03  0.00000000000E+00 0.  1.
         11    1    1    2    0    0  0.16858782770E+02 -0.23235111218E+02  0.12159583675E+03  0.12493853075E+03  0.00000000000E+00 0. -1.
</event>
<event>
 6    1  0.4988969E-006  0.8141838E+02  0.7561462E-02  0.1325074E+00
          2   -1    0    0  501    0  0.00000000000E+00  0.00000000000E+00  0.13760265576E+03  0.13760265576E+03  0.00000000000E+00 0. -1.
         -2   -1    0    0    0  501 -0.00000000000E+00 -0.00000000000E+00 -0.84461822113E+02  0.84461822113E+02  0.00000000000E+00 0.  1.
          5    1    1    2  502    0  0.58077926878E+02  0.18169004924E+02 -0.46986823788E+01  0.61177678498E+02  0.41800000000E+01 0. -1.
         -5    1    1    2    0  502 -0.50935928704E+02 -0.28932685362E+02  0.34312382547E+02  0.68017505918E+02  0.41800000000E+01 0. -1.
        -11    1    1    2    0    0 -0.11563324308E+02  0.25353645805E+02  0.52891582513E+02  0.59783252884E+02  0.00000000000E+00 0. -1.
         11    1    1    2    0    0  0.44213261351E+01 -0.14589965366E+02 -0.29364449030E+02  0.33086040576E+02  0.00000000000E+00 0.  1.
</event>
<event>
 6    1  0.4988969E-006  0.9691933E+02  0.7561462E-02  0.1286911E+00
          2   -1    0    0  501    0  0.00000000000E+00  0.00000000000E+00  0.18178634056E+02  0.18178634056E+02  0.00000000000E+00 0. -1.
         -2   -1    0    0    0  501 -0.00000000000E+00 -0.00000000000E+00 -0.81178623261E+03  0.81178623261E+03  0.00000000000E+00 0.  1.
          5    1    1    2  502    0  0.38356621738E+02  0.36032319646E+02 -0.18848807930E+03  0.19574163310E+03  0.41800000000E+01 0.  1.
         -5    1    1    2    0  502 -0.56706307087E+02 -0.38969819455E+02 -0.43570406850E+03  0.44112329320E+03  0.41800000000E+01 0.  1.
        -11    1    1    2    0    0  0.36260487571E+02  0.24740854376E+02 -0.36109413170E+02  0.56840325066E+02  0.00000000000E+00 0. -1.
         11    1    1    2    0    0 -0.17910802222E+02 -0.21803354568E+02 -0.13330603758E+03  0.13625961530E+03  0.00000000000E+00 0.  1.
</event>
<event>
 6    1  0.4988969E-006  0.1045827E+03  0.7561462E-02  0.1270944E+00
         -1   -1    0    0    0  501 -0.00000000000E+00  0.00000000000E+00  0.49960905387E+03  0.49960905387E+03  0.00000000000E+00 0. -1.
          1   -1    0    0  501    0  0.00000000000E+00 -0.00000000000E+00 -0.46020997194E+02  0.46020997194E+02  0.00000000000E+00 0.  1.
          5    1    1    2  502    0  0.92897758451E+02  0.36232693210E+02  0.31458253264E+03  0.33003400404E+03  0.41800000000E+01 0.  1.
         -5    1    1    2    0  502 -0.32751507021E+02 -0.19986979308E+02  0.87235754195E+02  0.95392294049E+02  0.41800000000E+01 0.  1.
        -11    1    1    2    0    0 -0.51538032602E+02 -0.26028537822E+02 -0.86611814336E+01  0.58383813249E+02  0.00000000000E+00 0.  1.
         11    1    1    2    0    0 -0.86082188282E+01  0.97828239200E+01  0.60430951280E+02  0.61819939727E+02  0.00000000000E+00 0. -1.
</event>
<event>
 6    1  0.4988969E-006  0.1634366E+03  0.7561462E-02  0.1184871E+00
         -2   -1    0    0    0  501 -0.00000000000E+00  0.00000000000E+00  0.25007715041E+02  0.25007715041E+02  0.00000000000E+00 0.  1.
          2   -1    0    0  501    0  0.00000000000E+00 -0.00000000000E+00 -0.12124811476E+04  0.12124811476E+04  0.00000000000E+00 0. -1.
          5    1    1    2  502    0 -0.65886062033E+02  0.49337907542E+02 -0.15224189006E+03  0.17311922995E+03  0.41800000000E+01 0.  1.
         -5    1    1    2    0  502 -0.75114774064E+02 -0.60784086218E+02 -0.36205713360E+03  0.37475295170E+03  0.41800000000E+01 0.  1.
        -11    1    1    2    0    0  0.81367177325E+02  0.27657672151E+02 -0.33536177687E+03  0.34619804413E+03  0.00000000000E+00 0. -1.
         11    1    1    2    0    0  0.59633658771E+02 -0.16211493475E+02 -0.33781263207E+03  0.34341863689E+03  0.00000000000E+00 0.  1.
</event>
<event>
 6    1  0.4988969E-006  0.1340911E+03  0.7561462E-02  0.1221508E+00
          4   -1    0    0  501    0  0.00000000000E+00  0.00000000000E+00  0.83509604302E+03  0.83509604302E+03  0.00000000000E+00 0. -1.
         -4   -1    0    0    0  501 -0.00000000000E+00 -0.00000000000E+00 -0.39129943140E+02  0.39129943140E+02  0.00000000000E+00 0.  1.
          5    1    1    2  502    0 -0.34289303366E+02  0.43404717734E+02  0.13662215574E+02  0.57130152995E+02  0.41800000000E+01 0. -1.
         -5    1    1    2    0  502 -0.55632140658E+02  0.51894977074E+02  0.26097763731E+03  0.27187280720E+03  0.41800000000E+01 0. -1.
        -11    1    1    2    0    0  0.26367554720E+02 -0.55723165894E+02  0.10135426576E+03  0.11862970264E+03  0.00000000000E+00 0.  1.
         11    1    1    2    0    0  0.63553889304E+02 -0.39576528914E+02  0.41997198123E+03  0.42659332333E+03  0.00000000000E+00 0. -1.
</event>
<event>
 6    1  0.4988969E-006  0.5324234E+02  0.7561462E-02  0.1428599E+00
          2   -1    0    0  501    0  0.00000000000E+00  0.00000000000E+00  0.14631322350E+03  0.14631322350E+03  0.00000000000E+00 0. -1.
         -2   -1    0    0    0  501 -0.00000000000E+00 -0.00000000000E+00 -0.71673893891E+02  0.71673893891E+02  0.00000000000E+00 0.  1.
          5    1    1    2  502    0  0.10580631784E+02  0.81784978701E+01  0.73471338920E+02  0.74795371776E+02  0.41800000000E+01 0. -1.
         -5    1    1    2    0  502 -0.36784295587E+00 -0.31996195024E+01 -0.43545266601E+02  0.43863829253E+02  0.41800000000E+01 0.  1.
        -11    1    1    2    0    0  0.20993607423E+02 -0.36964361198E+02  0.30903591891E+02  0.52555946792E+02  0.00000000000E+00 0. -1.
         11    1    1    2    0    0 -0.31206396252E+02  0.31985482830E+02  0.13809665397E+02  0.46771969568E+02  0.00000000000E+00 0.  1.
</event>
<event>
 6    1  0.4988969E-006  0.9530989E+02  0.7561462E-02  0.1290480E+00
         -2   -1    0    0    0  501 -0.00000000000E+00  0.00000000000E+00  0.21047681014E+02  0.21047681014E+02  0.00000000000E+00 0.  1.
          2   -1    0    0  501    0  0.00000000000E+00 -0.00000000000E+00 -0.53610731311E+03  0.53610731311E+03  0.00000000000E+00 0. -1.
          5    1    1    2  502    0 -0.41006598051E+02  0.36994467224E+02 -0.17767407526E+03  0.18610663907E+03  0.41800000000E+01 0. -1.
         -5    1    1    2    0  502  0.35734128256E+02 -0.28834616123E+02 -0.43022722462E+02  0.63061795544E+02  0.41800000000E+01 0.  1.
        -11    1    1    2    0    0  0.30216492699E+02 -0.39080322190E+02 -0.13525178330E+03  0.14399080838E+03  0.00000000000E+00 0. -1.
         11    1    1    2    0    0 -0.24944022904E+02  0.30920471090E+02 -0.15911105108E+03  0.16399575112E+03  0.00000000000E+00 0.  1.
</event>
<event>
 6    1  0.4988969E-006  0.2186142E+03  0.7561462E-02  0.1134920E+00
          1   -1    0    0  501    0  0.00000000000E+00  0.00000000000E+00  0.53233680995E+02  0.53233680995E+02  0.00000000000E+00 0. -1.
         -1   -1    0    0    0  501 -0.00000000000E+00 -0.00000000000E+00 -0.94620337326E+03  0.94620337326E+03  0.00000000000E+00 0.  1.
          5    1    1    2  502    0 -0.58487233847E+02 -0.64212349639E+02 -0.14502079300E+03  0.16909312574E+03  0.41800000000E+01 0.  1.
         -5    1    1    2    0  502 -0.13415520660E+03  0.36630138903E+02 -0.37869252195E+03  0.40344130318E+03  0.41800000000E+01 0.  1.
        -11    1    1    2    0    0  0.17456771377E+03  0.50715770587E+02 -0.28871713703E+03  0.34117966131E+03  0.00000000000E+00 0. -1.
         11    1    1    2    0    0  0.18074726678E+02 -0.23133559851E+02 -0.80539240285E+02  0.85722964027E+02  0.00000000000E+00 0.  1.
</event>
<event>
 6    1  0.4988969E-006  0.2345018E+03  0.7561462E-02  0.1123511E+00
         -1   -1    0    0    0  501 -0.00000000000E+00  0.00000000000E+00  0.18822459529E+03  0.18822459529E+03  0.00000000000E+00 0.  1.
          1   -1    0    0  501    0  0.00000000000E+00 -0.00000000000E+00 -0.31402267467E+03  0.31402267467E+03  0.00000000000E+00 0. -1.
          5    1    1    2  502    0  0.42301224564E+02 -0.89896434423E+02  0.14385699764E+02  0.10047478927E+03  0.41800000000E+01 0. -1.
         -5    1    1    2    0  502 -0.76295497832E+02 -0.12121122499E+03 -0.38839189347E+02  0.14845578157E+03  0.41800000000E+01 0. -1.
        -11    1    1    2    0    0  0.45783818209E+02  0.63949251955E+02 -0.89473206206E+01  0.79156297170E+02  0.00000000000E+00 0.  1.
         11    1    1    2    0    0 -0.11789544941E+02  0.14715840746E+03 -0.92397269176E+02  0.17416040195E+03  0.00000000000E+00 0. -1.
</event>
<event>
 6    1  0.4988969E-006  0.1774220E+03  0.7561462E-02  0.1170322E+00
          2   -1    0    0  501    0  0.00000000000E+00  0.00000000000E+00  0.31735646463E+03  0.31735646463E+03  0.00000000000E+00 0. -1.
         -2   -1    0    0    0  501 -0.00000000000E+00 -0.00000000000E+00 -0.20262709179E+03  0.20262709179E+03  0.00000000000E+00 0.  1.
          5    1    1    2  502    0  0.73187272026E+02 -0.71377560844E+02  0.17166735464E+03  0.19984565551E+03  0.41800000000E+01 0. -1.
         -5    1    1    2    0  502  0.80379740641E+02  0.24318237993E+02 -0.10341683429E+03  0.13328463309E+03  0.41800000000E+01 0.  1.
        -11    1    1    2    0    0 -0.89602013985E+02  0.97240362498E+00  0.58629911128E+02  0.10708376608E+03  0.00000000000E+00 0. -1.
         11    1    1    2    0    0 -0.63964998682E+02  0.46086919226E+02 -0.12151058641E+02  0.79769501730E+02  0.00000000000E+00 0.  1.
</event>
<event>
 6    1  0.4988969E-006  0.7646847E+02  0.7561462E-02  0.1339383E+00
          1   -1    0    0  501    0  0.00000000000E+00  0.00000000000E+00  0.19497912537E+03  0.19497912537E+03  0.00000000000E+00 0. -1.
         -1   -1    0    0    0  501 -0.00000000000E+00 -0.00000000000E+00 -0.61602761295E+02  0.61602761295E+02  0.00000000000E+00 0.  1.
          5    1    1    2  502    0 -0.39463967471E+02 -0.40081940051E+02 -0.28993605481E+02  0.63419777716E+02  0.41800000000E+01 0. -1.
         -5    1    1    2    0  502  0.18668552561E+02  0.11865356540E+02  0.68894067701E+02  0.72478731398E+02  0.41800000000E+01 0. -1.
        -11    1    1    2    0    0 -0.22753922698E+02  0.18680670494E+02  0.23302221483E+02  0.37545998113E+02  0.00000000000E+00 0.  1.
         11    1    1    2    0    0  0.43549337608E+02  0.95359130174E+01  0.70173680376E+02  0.83137379443E+02  0.00000000000E+00 0. -1.
</event>
<event>
 6    1  0.4988969E-006  0.1420878E+03  0.7561462E-02  0.1210547E+00
          2   -1    0    0  501    0  0.00000000000E+00  0.00000000000E+00  0.26885813209E+03  0.26885813209E+03  0.00000000000E+00 0. -1.
         -2   -1    0    0    0  501 -0.00000000000E+00 -0.00000000000E+00 -0.77703036636E+02  0.77703036636E+02  0.00000000000E+00 0.  1.
          5    1    1    2  502    0  0.61987304443E+02 -0.52882870048E+02  0.35971504739E+02  0.89165270200E+02  0.41800000000E+01 0.  1.
         -5    1    1    2    0  502  0.28403168686E+02  0.67320522848E+02  0.41262804772E+02  0.84017166375E+02  0.41800000000E+01 0.  1.
        -11    1    1    2    0    0  0.17425427789E+02  0.81626379075E+01  0.26484243420E+02  0.32736666610E+02  0.00000000000E+00 0. -1.
         11    1    1    2    0    0 -0.10781590092E+03 -0.22600290708E+02  0.87436542522E+02  0.14064206554E+03  0.00000000000E+00 0.  1.
</event>
<event>
 6    1  0.4988969E-006  0.3346530E+03  0.7561462E-02  0.1069096E+00
          2   -1    0    0  501    0  0.00000000000E+00  0.00000000000E+00  0.51848872721E+03  0.51848872721E+03  0.00000000000E+00 0. -1.
         -2   -1    0    0    0  501 -0.00000000000E+00 -0.00000000000E+00 -0.23475986482E+03  0.23475986482E+03  0.00000000000E+00 0.  1.
          5    1    1    2  502    0  0.18181841110E+02 -0.35453739234E+02 -0.28449981068E+02  0.49136756044E+02  0.41800000000E+01 0.  1.
         -5    1    1    2    0  502  0.15199498118E+03 -0.24543244124E+03  0.13028623225E+03  0.31675153075E+03  0.41800000000E+01 0.  1.
        -11    1    1    2    0    0 -0.60174855703E+02  0.18520368481E+03  0.86142278150E+02  0.21293639945E+03  0.00000000000E+00 0. -1.
         11    1    1    2    0    0 -0.11000196659E+03  0.95682495657E+02  0.95750333050E+02  0.17442390578E+03  0.00000000000E+00 0.  1.
</event>
<event>
 6    1  0.4988969E-006  0.1493632E+03  0.7561462E-02  0.1201258E+00
         -1   -1    0    0    0  501 -0.00000000000E+00  0.00000000000E+00  0.47143747579E+02  0.47143747579E+02  0.00000000000E+00 0.  1.
          1   -1    0    0  501    0  0.00000000000E+00 -0.00000000000E+00 -0.57182137451E+03  0.57182137451E+03  0.00000000000E+00 0. -1.
          5    1    1    2  502    0  0.13507463779E+03 -0.57973259480E+02 -0.21114187642E+03  0.25730219775E+03  0.41800000000E+01 0.  1.
         -5    1    1    2    0  502 -0.26425295410E+02 -0.31999882835E+01 -0.66511597359E+02  0.71762114976E+02  0.41800000000E+01 0.  1.
        -11    1    1    2    0    0 -0.94550008142E+02  0.51913440681E+02 -0.25044832310E+03  0.27268859878E+03  0.00000000000E+00 0. -1.
         11    1    1    2    0    0 -0.14099334242E+02  0.92598070830E+01  0.34241699441E+01  0.17212210581E+02  0.00000000000E+00 0.  1.
</event>
<event>
 6    1  0.4988969E-006  0.1143565E+03  0.7561462E-02  0.1252708E+00
          3   -1    0    0  501    0  0.00000000000E+00  0.00000000000E+00  0.86208018072E+02  0.86208018072E+02  0.00000000000E+00 0. -1.
         -3   -1    0    0    0  501 -0.00000000000E+00 -0.00000000000E+00 -0.24759205651E+03  0.24759205651E+03  0.00000000000E+00 0.  1.
          5    1    1    2  502    0  0.47886015584E+02  0.34061639286E+02 -0.41283325753E+02  0.71937828328E+02  0.41800000000E+01 0. -1.
         -5    1    1    2    0  502 -0.51702827668E+02  0.20773972763E+02 -0.13561522592E+03  0.14667549978E+03  0.41800000000E+01 0.  1.
        -11    1    1    2    0    0  0.33569104203E+02  0.15930408957E+02  0.17657433949E+01  0.37199200747E+02  0.00000000000E+00 0.  1.
         11    1    1    2    0    0 -0.29752292118E+02 -0.70766021006E+02  0.13748769849E+02  0.77987545721E+02  0.00000000000E+00 0. -1.
</event>
<event>
 6    1  0.4988969E-006  0.9522911E+02  0.7561462E-02  0.1290661E+00
         -2   -1    0    0    0  501 -0.00000000000E+00  0.00000000000E+00  0.20204947819E+02  0.20204947819E+02  0.00000000000E+00 0. -1.
          2   -1    0    0  501    0  0.00000000000E+00 -0.00000000000E+00 -0.66133149934E+03  0.66133149934E+03  0.00000000000E+00 0.  1.
          5    1    1    2  502    0  0.46814841940E+02  0.19015636915E+02 -0.29159157950E+03  0.29596679799E+03  0.41800000000E+01 0. -1.
         -5    1    1    2    0  502 -0.42584820947E+02  0.17392365597E+02 -0.42927141305E+02  0.63056904592E+02  0.41800000000E+01 0. -1.
        -11    1    1    2    0    0 -0.45193051346E+02 -0.20466908443E+02 -0.21834604016E+03  0.22391136524E+03  0.00000000000E+00 0.  1.
         11    1    1    2    0    0  0.40963030353E+02 -0.15941094069E+02 -0.88261790556E+02  0.98601379341E+02  0.00000000000E+00 0. -1.
</event>
<event>
 6    1  0.4988969E-006  0.9326966E+02  0.7561462E-02  0.1295121E+00
         -1   -1    0    0    0  501 -0.00000000000E+00  0.00000000000E+00  0.55894108933E+02  0.55894108933E+02  0.00000000000E+00 0.  1.
          1   -1    0    0  501    0  0.00000000000E+00 -0.00000000000E+00 -0.26585948375E+03  0.26585948375E+03  0.00000000000E+00 0. -1.
          5    1    1    2  502    0  0.21928036695E+02  0.23051089179E+02 -0.10062626680E+03  0.10561869851E+03  0.41800000000E+01 0. -1.
         -5    1    1    2    0  502  0.29174270689E+02 -0.70097468731E+02 -0.13118243841E+02  0.77164460175E+02  0.41800000000E+01 0. -1.
        -11    1    1    2    0    0 -0.44967718393E+02  0.17531978919E+02 -0.97506425655E+02  0.10879783558E+03  0.00000000000E+00 0. -1.
         11    1    1    2    0    0 -0.61345889907E+01  0.29514400633E+02  0.12855614807E+01  0.30172598415E+02  0.00000000000E+00 0.  1.
</event>
<event>
 6    1  0.4988969E-006  0.1378142E+03  0.7561462E-02  0.1216301E+00
         -3   -1    0    0    0  501 -0.00000000000E+00  0.00000000000E+00  0.55852231842E+02  0.55852231842E+02  0.00000000000E+00 0.  1.
          3   -1    0    0  501    0  0.00000000000E+00 -0.00000000000E+00 -0.41585829084E+03  0.41585829084E+03  0.00000000000E+00 0. -1.
          5    1    1    2  502    0 -0.22949544352E+02 -0.77427992199E+01 -0.40742777342E+01  0.24913945187E+02  0.41800000000E+01 0. -1.
         -5    1    1    2    0  502  0.12922339741E+03 -0.73350735644E+01 -0.18653224703E+03  0.22707761080E+03  0.41800000000E+01 0. -1.
        -11    1    1    2    0    0 -0.58750251577E+02  0.36772737211E+02 -0.39655344654E+02  0.79852192343E+02  0.00000000000E+00 0.  1.
         11    1    1    2    0    0 -0.47523601477E+02 -0.21694864426E+02 -0.12974418958E+03  0.13986677436E+03  0.00000000000E+00 0. -1.
</event>
<event>
 6    1  0.4988969E-006  0.1491602E+03  0.7561462E-02  0.1201509E+00
          1   -1    0    0  501    0  0.00000000000E+00  0.00000000000E+00  0.53604765541E+03  0.53604765541E+03  0.00000000000E+00 0. -1.
         -1   -1    0    0    0  501 -0.00000000000E+00 -0.00000000000E+00 -0.51700341793E+02  0.51700341793E+02  0.00000000000E+00 0.  1.
          5    1    1    2  502    0  0.24959510734E+02 -0.74083088810E+02  0.18481820138E+03  0.20071502481E+03  0.41800000000E+01 0. -1.
         -5    1    1    2    0  502  0.78570988212E+02 -0.17680934179E+01  0.54853124044E+02  0.95931558730E+02  0.41800000000E+01 0.  1.
        -11    1    1    2    0    0 -0.10028520563E+03  0.44333223716E+02  0.12038138003E+03  0.16283191902E+03  0.00000000000E+00 0.  1.
         11    1    1    2    0    0 -0.32452933171E+01  0.31517958512E+02  0.12429460816E+03  0.12826949464E+03  0.00000000000E+00 0. -1.
</event>
<event>
 6    1  0.4988969E-006  0.1029705E+03  0.7561462E-02  0.1274171E+00
         -1   -1    0    0    0  501 -0.00000000000E+00  0.00000000000E+00  0.58898498598E+02  0.58898498598E+02  0.00000000000E+00 0.  1.
          1   -1    0    0  501    0  0.00000000000E+00 -0.00000000000E+00 -0.20318813332E+03  0.20318813332E+03  0.00000000000E+00 0. -1.
          5    1    1    2  502    0 -0.33623450376E+02 -0.32313737803E+02 -0.12896643172E+01  0.46838549295E+02  0.41800000000E+01 0. -1.
         -5    1    1    2    0  502  0.39554294872E+02  0.52191235035E+02 -0.45546798318E+02  0.79877722140E+02  0.41800000000E+01 0.  1.
        -11    1    1    2    0    0 -0.37123803312E+02 -0.41396996599E+02 -0.64413898103E+02  0.85094291046E+02  0.00000000000E+00 0. -1.
         11    1    1    2    0    0  0.31192958816E+02  0.21519499367E+02 -0.33039273988E+02  0.50276069440E+02  0.00000000000E+00 0.  1.
</event>
<event>
 6    1  0.4988969E-006  0.1266674E+03  0.7561462E-02  0.1232486E+00
         -2   -1    0    0    0  501 -0.00000000000E+00  0.00000000000E+00  0.12948061572E+03  0.12948061572E+03  0.00000000000E+00 0.  1.
          2   -1    0    0  501    0  0.00000000000E+00 -0.00000000000E+00 -0.17654821336E+03  0.17654821336E+03  0.00000000000E+00 0. -1.
          5    1    1    2  502    0  0.57626762760E+02 -0.23611387732E+00  0.37094051987E+02  0.68661056130E+02  0.41800000000E+01 0. -1.
         -5    1    1    2    0  502 -0.46398769404E+02 -0.68485227662E+02  0.18289688330E+02  0.84823683658E+02  0.41800000000E+01 0. -1.
        -11    1    1    2    0    0  0.37235418435E+02  0.46058441568E+02 -0.59285278690E+02  0.83800958796E+02  0.00000000000E+00 0.  1.
         11    1    1    2    0    0 -0.48463411791E+02  0.22662899971E+02 -0.43166059266E+02  0.68743130494E+02  0.00000000000E+00 0. -1.
</event>
<event>
 6    1  0.4988969E-006  0.1997015E+03  0.7561462E-02  0.1149991E+00
          1   -1    0    0  501    0  0.00000000000E+00  0.00000000000E+00  0.27958760152E+03  0.27958760152E+03  0.00000000000E+00 0. -1.
         -1   -1    0    0    0  501 -0.00000000000E+00 -0.00000000000E+00 -0.15688934512E+03  0.15688934512E+03  0.00000000000E+00 0.  1.
          5    1    1    2  502    0 -0.11241334424E+03  0.12849597851E+03  0.40802391238E+02  0.17558554607E+03  0.41800000000E+01 0. -1.
         -5    1    1    2    0  502  0.33219130710E+02  0.29885161285E+02 -0.69755291582E+00  0.44884212038E+02  0.41800000000E+01 0. -1.
        -11    1    1    2    0    0  0.24852587724E+01 -0.54780572861E+02 -0.11976713044E+02  0.56129576246E+02  0.00000000000E+00 0.  1.
         11    1    1    2    0    0  0.76708954761E+02 -0.10360056693E+03  0.94570131123E+02  0.15987761229E+03  0.00000000000E+00 0. -1.
</event>
<event>
 6    1  0.4988969E-006  0.1465875E+03  0.7561462E-02  0.1204730E+00
         -1   -1    0    0    0  501 -0.00000000000E+00  0.00000000000E+00  0.70769958516E+03  0.70769958516E+03  0.00000000000E+00 0.  1.
          1   -1    0    0  501    0  0.00000000000E+00 -0.00000000000E+00 -0.39976424553E+02  0.39976424553E+02  0.00000000000E+00 0. -1.
          5    1    1    2  502    0  0.44431846046E+02 -0.66528771388E+02  0.15319356415E+03  0.17287569772E+03  0.41800000000E+01 0. -1.
         -5    1    1    2    0  502 -0.66448236791E+02 -0.43046880716E+02  0.30233123523E+03  0.31255407582E+03  0.41800000000E+01 0. -1.
        -11    1    1    2    0    0  0.49337010749E+02  0.67354868061E+02  0.18948864300E+03  0.20706705365E+03  0.00000000000E+00 0.  1.
         11    1    1    2    0    0 -0.27320620005E+02  0.42220784042E+02  0.22709718228E+02  0.55179182529E+02  0.00000000000E+00 0. -1.
</event>
<event>
 6    1  0.4988969E-006  0.1529087E+03  0.7561462E-02  0.1196944E+00
         -1   -1    0    0    0  501 -0.00000000000E+00  0.00000000000E+00  0.90033637528E+02  0.90033637528E+02  0.00000000000E+00 0.  1.
          1   -1    0    0  501    0  0.00000000000E+00 -0.00000000000E+00 -0.33591657664E+03  0.33591657664E+03  0.00000000000E+00 0. -1.
          5    1    1    2  502    0 -0.88026464495E+02  0.10185280990E+03 -0.44043992600E+02  0.14170391321E+03  0.41800000000E+01 0. -1.
         -5    1    1    2    0  502  0.34175027896E+02  0.18629973180E+02 -0.48503330685E+02  0.62330200705E+02  0.41800000000E+01 0. -1.
        -11    1    1    2    0    0  0.41640660377E+02 -0.95167384197E+02 -0.16205298293E+03  0.19248881757E+03  0.00000000000E+00 0. -1.
         11    1    1    2    0    0  0.12210776221E+02 -0.25315398884E+02  0.87173671055E+01  0.29427282679E+02  0.00000000000E+00 0.  1.
</event>
<event>
 6    1  0.4988969E-006  0.1168837E+03  0.7561462E-02  0.1248328E+00
         -1   -1    0    0    0  501 -0.00000000000E+00  0.00000000000E+00  0.10585726554E+03  0.10585726554E+03  0.00000000000E+00 0.  1.
          1   -1    0    0  501    0  0.00000000000E+00 -0.00000000000E+00 -0.23250221580E+03  0.23250221580E+03  0.00000000000E+00 0. -1.
          5    1    1    2  502    0 -0.30494844023E+02  0.53763124503E+02  0.93885818780E+01  0.62658015753E+02  0.41800000000E+01 0. -1.
         -5    1    1    2    0  502  0.71677533141E+01 -0.84938932475E+02  0.23190023106E+02  0.88437822843E+02  0.41800000000E+01 0.  1.
        -11    1    1    2    0    0  0.49433961635E+02  0.53024726340E+01 -0.13334337363E+03  0.14231053394E+03  0.00000000000E+00 0. -1.
         11    1    1    2    0    0 -0.26106870925E+02  0.25873335337E+02 -0.25880181623E+02  0.44953108811E+02  0.00000000000E+00 0.  1.
</event>
<event>
 6    1  0.4988969E-006  0.8748712E+02  0.7561462E-02  0.1309054E+00
         -2   -1    0    0    0  501 -0.00000000000E+00  0.00000000000E+00  0.21494320843E+03  0.21494320843E+03  0.00000000000E+00 0.  1.
          2   -1    0    0  501    0  0.00000000000E+00 -0.00000000000E+00 -0.69078667523E+02  0.69078667523E+02  0.00000000000E+00 0. -1.
          5    1    1    2  502    0  0.60318487579E+02 -0.62880653602E+02  0.31054174935E+02  0.92596602109E+02  0.41800000000E+01 0. -1.
         -5    1    1    2    0  502 -0.26816189420E+02  0.22856745206E+02  0.63265940724E+02  0.72536821492E+02  0.41800000000E+01 0. -1.
        -11    1    1    2    0    0 -0.26340705367E+02  0.33035813535E+02  0.79042445729E+02  0.89626480250E+02  0.00000000000E+00 0.  1.
         11    1    1    2    0    0 -0.71615927921E+01  0.69880948607E+01 -0.27498020480E+02  0.29261972104E+02  0.00000000000E+00 0. -1.
</event>
<event>
 6    1  0.4988969E-006  0.1651193E+03  0.7561462E-02  0.1183035E+00
         -2   -1    0    0    0  501 -0.00000000000E+00  0.00000000000E+00  0.21948184494E+03  0.21948184494E+03  0.00000000000E+00 0.  1.
          2   -1    0    0  501    0  0.00000000000E+00 -0.00000000000E+00 -0.20637959056E+03  0.20637959056E+03  0.00000000000E+00 0. -1.
          5    1    1    2  502    0  0.12409786441E+03 -0.29806659261E+02  0.12843979305E+03  0.18111590136E+03  0.41800000000E+01 0. -1.
         -5    1    1    2    0  502  0.28347476931E+01 -0.42442898688E+02 -0.11095063187E+02  0.44158897978E+02  0.41800000000E+01 0. -1.
        -11    1    1    2    0    0 -0.67597092673E+02  0.74275874611E+02 -0.28592020800E+02  0.10442114796E+03  0.00000000000E+00 0.  1.
         11    1    1    2    0    0 -0.59335519431E+02 -0.20263166622E+01 -0.75650454688E+02  0.96165488195E+02  0.00000000000E+00 0. -1.
</event>
<event>
 6    1  0.4988969E-006  0.2333863E+03  0.7561462E-02  0.1124279E+00
         -1   -1    0    0    0  501 -0.00000000000E+00  0.00000000000E+00  0.31617800843E+03  0.31617800843E+03  0.00000000000E+00 0.  1.
          1   -1    0    0  501    0  0.00000000000E+00 -0.00000000000E+00 -0.42987445384E+03  0.42987445384E+03  0.00000000000E+00 0. -1.
          5    1    1    2  502    0  0.99317248205E+02 -0.82368752683E+02  0.10488986795E+03  0.16633665864E+03  0.41800000000E+01 0. -1.
         -5    1    1    2    0  502  0.10082912913E+03  0.58792340846E+02  0.12489327184E+03  0.17099372613E+03  0.41800000000E+01 0.  1.
        -11    1    1    2    0    0  0.61710837925E+01 -0.10099288274E+02 -0.12190365454E+02  0.16990671226E+02  0.00000000000E+00 0.  1.
         11    1    1    2    0    0 -0.20631746113E+03  0.33675700110E+02 -0.33128921975E+03  0.39173140628E+03  0.00000000000E+00 0. -1.
</event>
<event>
 6    1  0.4988969E-006  0.1554884E+03  0.7561462E-02  0.1193887E+00
         -3   -1    0    0    0  501 -0.00000000000E+00  0.00000000000E+00  0.10803443308E+03  0.10803443308E+03  0.00000000000E+00 0.  1.
          3   -1    0    0  501    0  0.00000000000E+00 -0.00000000000E+00 -0.26930738612E+03  0.26930738612E+03  0.00000000000E+00 0. -1.
          5    1    1    2  502    0 -0.59819472308E+02  0.87990880755E+02 -0.54458808634E+02  0.11959932525E+03  0.41800000000E+01 0. -1.
         -5    1    1    2    0  502  0.48654125745E+02  0.36960562873E+02  0.12392271626E+02  0.62484781795E+02  0.41800000000E+01 0. -1.
        -11    1    1    2    0    0 -0.27219104910E+02 -0.28337567091E+02 -0.31058669915E+01  0.39415019859E+02  0.00000000000E+00 0.  1.
         11    1    1    2    0    0  0.38384451472E+02 -0.96613876537E+02 -0.11610054904E+03  0.15584269230E+03  0.00000000000E+00 0. -1.
</event>
<event>
 6    1  0.4988969E-006  0.1017187E+03  0.7561462E-02  0.1276723E+00
          1   -1    0    0  501    0  0.00000000000E+00  0.00000000000E+00  0.23229559398E+03  0.23229559398E+03  0.00000000000E+00 0. -1.
         -1   -1    0    0    0  501 -0.00000000000E+00 -0.00000000000E+00 -0.28005317960E+03  0.28005317960E+03  0.00000000000E+00 0.  1.
          5    1    1    2  502    0 -0.57614781456E+02  0.37547742317E+02 -0.18958303444E+03  0.20171389477E+03  0.41800000000E+01 0. -1.
         -5    1    1    2    0  502  0.31388606864E+02 -0.35684571461E+02 -0.67306250500E+02  0.82499921440E+02  0.41800000000E+01 0.  1.
        -11    1    1    2    0    0 -0.89225040989E+01  0.34868871120E+02  0.12259503954E+03  0.12776929589E+03  0.00000000000E+00 0.  1.
         11    1    1    2    0    0  0.35148678691E+02 -0.36732041976E+02  0.86536659771E+02  0.10036566149E+03  0.00000000000E+00 0. -1.
</event>
<event>
 6    1  0.4988969E-006  0.1190583E+03  0.7561462E-02  0.1244659E+00
         -1   -1    0    0    0  501 -0.00000000000E+00  0.00000000000E+00  0.38567090942E+02  0.38567090942E+02  0.00000000000E+00 0.  1.
          1   -1    0    0  501    0  0.00000000000E+00 -0.00000000000E+00 -0.56159724520E+03  0.56159724520E+03  0.00000000000E+00 0. -1.
          5    1    1    2  502    0 -0.28040497825E+02 -0.83991226436E+02 -0.61161510657E+02  0.10769864633E+03  0.41800000000E+01 0.  1.
         -5    1    1    2    0  502 -0.17101858068E+02 -0.26216724756E+01 -0.18075415443E+03  0.18162842140E+03  0.41800000000E+01 0.  1.
        -11    1    1    2    0    0  0.60855221787E+02  0.21270757022E+02 -0.11888259482E+03  0.13523636521E+03  0.00000000000E+00 0. -1.
         11    1    1    2    0    0 -0.15712865894E+02  0.65342141889E+02 -0.16223189435E+03  0.17560090320E+03  0.00000000000E+00 0.  1.
</event>
<event>
 6    1  0.4988969E-006  0.1364635E+03  0.7561462E-02  0.1218168E+00
         -1   -1    0    0    0  501 -0.00000000000E+00  0.00000000000E+00  0.32320004682E+02  0.32320004682E+02  0.00000000000E+00 0.  1.
          1   -1    0    0  501    0  0.00000000000E+00 -0.00000000000E+00 -0.64060139963E+03  0.64060139963E+03  0.00000000000E+00 0. -1.
          5    1    1    2  502    0 -0.16852483593E+02 -0.45686191939E+02 -0.15499877512E+03  0.16252177401E+03  0.41800000000E+01 0. -1.
         -5    1    1    2    0  502  0.97762613750E+02  0.10832720997E+01 -0.13778359878E+03  0.16899850479E+03  0.41800000000E+01 0. -1.
        -11    1    1    2    0    0 -0.57949173017E+02 -0.17049651367E+02 -0.19461813451E+03  0.20377687686E+03  0.00000000000E+00 0.  1.
         11    1    1    2    0    0 -0.22960957141E+02  0.61652571206E+02 -0.12088088653E+03  0.13762424866E+03  0.00000000000E+00 0. -1.
</event>
<event>
 6    1  0.4988969E-006  0.9086962E+02  0.7561462E-02  0.1300759E+00
         -2   -1    0    0    0  501 -0.00000000000E+00  0.00000000000E+00  0.19570068792E+03  0.19570068792E+03  0.00000000000E+00 0.  1.
          2   -1    0    0  501    0  0.00000000000E+00 -0.00000000000E+00 -0.15554379619E+03  0.15554379619E+03  0.00000000000E+00 0. -1.
          5    1    1    2  502    0 -0.74696870427E+01  0.88528820473E+01  0.12358766474E+03  0.12419964984E+03  0.41800000000E+01 0. -1.
         -5    1    1    2    0  502 -0.12913089582E+02 -0.72495402191E+02  0.17402958240E+02  0.75780383853E+02  0.41800000000E+01 0. -1.
        -11    1    1    2    0    0  0.36939939719E+02  0.69001346905E+02 -0.39814253078E+02  0.87811842990E+02  0.00000000000E+00 0.  1.
         11    1    1    2    0    0 -0.16557163094E+02 -0.53588267615E+01 -0.61019478170E+02  0.63452607434E+02  0.00000000000E+00 0. -1.
</event>
<event>
 6    1  0.6750563E-006  0.1650401E+03  0.7561462E-02  0.1183121E+00
         -1   -1    0    0    0  501 -0.00000000000E+00  0.00000000000E+00  0.55855615716E+02  0.55855615716E+02  0.00000000000E+00 0.  1.
          1   -1    0    0  501    0  0.00000000000E+00 -0.00000000000E+00 -0.58229589860E+03  0.58229589860E+03  0.00000000000E+00 0. -1.
          5    1    1    2  502    0 -0.12025597265E+03  0.67492852155E+02 -0.15399309079E+03  0.20675620538E+03  0.41800000000E+01 0. -1.
         -5    1    1    2    0  502  0.25737670908E+02  0.39966184219E+02 -0.96813256189E+02  0.10793517758E+03  0.41800000000E+01 0. -1.
        -11    1    1    2    0    0  0.47852129534E+02 -0.40000498138E+02 -0.20798880356E+03  0.21713868508E+03  0.00000000000E+00 0. -1.
         11    1    1    2    0    0  0.46666172209E+02 -0.67458538236E+02 -0.67645132346E+02  0.10632144628E+03  0.00000000000E+00 0.  1.
</event>
<event>
 6    1  0.4988969E-006  0.3554390E+03  0.7561462E-02  0.1060405E+00
         -2   -1    0    0    0  501 -0.00000000000E+00  0.00000000000E+00  0.10585867779E+03  0.10585867779E+03  0.00000000000E+00 0.  1.
          2   -1    0    0  501    0  0.00000000000E+00 -0.00000000000E+00 -0.12715580077E+04  0.12715580077E+04  0.00000000000E+00 0. -1.
          5    1    1    2  502    0  0.10813890064E+03  0.85281927342E+02 -0.11587809213E+03  0.18003397901E+03  0.41800000000E+01 0. -1.
         -5    1    1    2    0  502  0.21417305710E+03  0.39062984546E+02 -0.36695344069E+03  0.42669463927E+03  0.41800000000E+01 0. -1.
        -11    1    1    2    0    0 -0.48344710338E+02 -0.54028676742E+02 -0.10912320884E+03  0.13101215072E+03  0.00000000000E+00 0.  1.
         11    1    1    2    0    0 -0.27396724740E+03 -0.70316235146E+02 -0.57374458823E+03  0.63967591646E+03  0.00000000000E+00 0. -1.
</event>
<event>
 6    1  0.4988969E-006  0.1177239E+03  0.7561462E-02  0.1246900E+00
          1   -1    0    0  501    0  0.00000000000E+00  0.00000000000E+00  0.16044445983E+03  0.16044445983E+03  0.00000000000E+00 0. -1.
         -1   -1    0    0    0  501 -0.00000000000E+00 -0.00000000000E+00 -0.10043921152E+03  0.10043921152E+03  0.00000000000E+00 0.  1.
          5    1    1    2  502    0  0.19859002526E+02  0.40651268241E+02 -0.12416116407E+02  0.47101358129E+02  0.41800000000E+01 0. -1.
         -5    1    1    2    0  502 -0.78973738201E+02 -0.19343167771E+02 -0.24744288553E+01  0.81453082588E+02  0.41800000000E+01 0.  1.
        -11    1    1    2    0    0  0.60153394878E+02 -0.51014269440E+02  0.59877787109E+02  0.99026440868E+02  0.00000000000E+00 0. -1.
         11    1    1    2    0    0 -0.10386592032E+01  0.29706168970E+02  0.15018006468E+02  0.33302789765E+02  0.00000000000E+00 0.  1.
</event>
<event>
 6    1  0.4988969E-006  0.1257220E+03  0.7561462E-02  0.1233945E+00
          2   -1    0    0  501    0  0.00000000000E+00  0.00000000000E+00  0.48859012263E+02  0.48859012263E+02  0.00000000000E+00 0. -1.
         -2   -1    0    0    0  501 -0.00000000000E+00 -0.00000000000E+00 -0.36103849032E+03  0.36103849032E+03  0.00000000000E+00 0.  1.
          5    1    1    2  502    0  0.20911826376E+01 -0.81440927310E+02 -0.11527720637E+03  0.14122076474E+03  0.41800000000E+01 0. -1.
         -5    1    1    2    0  502  0.47126807718E+02  0.35657353468E+02 -0.11389316625E+03  0.12838032786E+03  0.41800000000E+01 0. -1.
        -11    1    1    2    0    0 -0.18946110133E+02  0.69584006107E+02 -0.39620183329E+02  0.82283946928E+02  0.00000000000E+00 0. -1.
         11    1    1    2    0    0 -0.30271880223E+02 -0.23800432265E+02 -0.43388922107E+02  0.58012463056E+02  0.00000000000E+00 0.  1.
</event>
<event>
 6    1  0.4988969E-006  0.1129271E+03  0.7561462E-02  0.1255243E+00
         -2   -1    0    0    0  501 -0.00000000000E+00  0.00000000000E+00  0.79435570215E+02  0.79435570215E+02  0.00000000000E+00 0.  1.
          2   -1    0    0  501    0  0.00000000000E+00 -0.00000000000E+00 -0.24232078106E+03  0.24232078106E+03  0.00000000000E+00 0. -1.
          5    1    1    2  502    0 -0.14768400431E+02  0.81106371000E+02 -0.99053471123E+02  0.12893956573E+03  0.41800000000E+01 0.  1.
         -5    1    1    2    0  502 -0.22917847171E+02 -0.51056519141E+01  0.29086181203E+02  0.37613478135E+02  0.41800000000E+01 0.  1.
        -11    1    1    2    0    0  0.15387167046E+02 -0.91189742458E+02 -0.51726244690E+02  0.10596196690E+03  0.00000000000E+00 0.  1.
         11    1    1    2    0    0  0.22299080556E+02  0.15189023372E+02 -0.41191676231E+02  0.49241340512E+02  0.00000000000E+00 0. -1.
</event>
<event>
 6    1  0.4988969E-006  0.9204963E+02  0.7561462E-02  0.1297963E+00
         -1   -1    0    0    0  501 -0.00000000000E+00  0.00000000000E+00  0.62026851635E+02  0.62026851635E+02  0.00000000000E+00 0.  1.
          1   -1    0    0  501    0  0.00000000000E+00 -0.00000000000E+00 -0.32626809966E+03  0.32626809966E+03  0.00000000000E+00 0. -1.
          5    1    1    2  502    0  0.44007339620E+02 -0.45121204917E+00  0.35587095053E+02  0.56751768845E+02  0.41800000000E+01 0.  1.
         -5    1    1    2    0  502 -0.16296117068E+02 -0.33082930269E+02 -0.71362607204E+02  0.80437166867E+02  0.41800000000E+01 0.  1.
        -11    1    1    2    0    0 -0.53658010735E+01 -0.32564231309E+02 -0.55122400274E+02  0.64247178879E+02  0.00000000000E+00 0.  1.
         11    1    1    2    0    0 -0.22345421479E+02  0.66098373628E+02 -0.17334333560E+03  0.18685883670E+03  0.00000000000E+00 0. -1.
</event>
<event>
 6    1  0.4988969E-006  0.1329155E+03  0.7561462E-02  0.1223193E+00
          1   -1    0    0  501    0  0.00000000000E+00  0.00000000000E+00  0.73190590453E+03  0.73190590453E+03  0.00000000000E+00 0. -1.
         -1   -1    0    0    0  501 -0.00000000000E+00 -0.00000000000E+00 -0.28491916289E+02  0.28491916289E+02  0.00000000000E+00 0.  1.
          5    1    1    2  502    0 -0.71619685808E+02  0.67048172077E+02  0.13905927740E+03  0.17023452002E+03  0.41800000000E+01 0.  1.
         -5    1    1    2    0  502 -0.14677568784E+02 -0.42735333015E+02  0.15716144268E+03  0.16358157347E+03  0.41800000000E+01 0.  1.
        -11    1    1    2    0    0  0.77782080835E+02 -0.51819362177E+02  0.25274640532E+03  0.26947364212E+03  0.00000000000E+00 0.  1.
         11    1    1    2    0    0  0.85151737572E+01  0.27506523116E+02  0.15444686285E+03  0.15710808522E+03  0.00000000000E+00 0. -1.
</event>
<event>
 6    1  0.4988969E-006  0.9565888E+02  0.7561462E-02  0.1289699E+00
         -1   -1    0    0    0  501 -0.00000000000E+00  0.00000000000E+00  0.59534674324E+03  0.59534674324E+03  0.00000000000E+00 0.  1.
          1   -1    0    0  501    0  0.00000000000E+00 -0.00000000000E+00 -0.30424789236E+02  0.30424789236E+02  0.00000000000E+00 0. -1.
          5    1    1    2  502    0 -0.73352610133E+02 -0.33636858588E+02  0.19565122589E+03  0.21168117125E+03  0.41800000000E+01 0. -1.
         -5    1    1    2    0  502  0.38563550936E+02  0.32955159273E+01  0.26620557676E+03  0.26903696658E+03  0.41800000000E+01 0. -1.
        -11    1    1    2    0    0  0.45304394751E+02  0.68154072605E+01  0.10932369650E+03  0.11853526301E+03  0.00000000000E+00 0.  1.
         11    1    1    2    0    0 -0.10515335554E+02  0.23525935400E+02 -0.62585451502E+01  0.26518131640E+02  0.00000000000E+00 0. -1.
</event>
<event>
 6    1  0.4988969E-006  0.1044640E+03  0.7561462E-02  0.1271179E+00
         -2   -1    0    0    0  501 -0.00000000000E+00  0.00000000000E+00  0.17358153073E+03  0.17358153073E+03  0.00000000000E+00 0.  1.
          2   -1    0    0  501    0  0.00000000000E+00 -0.00000000000E+00 -0.10255919063E+03  0.10255919063E+03  0.00000000000E+00 0. -1.
          5    1    1    2  502    0 -0.61539591843E+02 -0.13652705159E+02 -0.13451602212E+02  0.64590523488E+02  0.41800000000E+01 0.  1.
         -5    1    1    2    0  502 -0.18467555323E+01  0.49362483331E+02  0.81332412626E+02  0.95249666720E+02  0.41800000000E+01 0.  1.
        -11    1    1    2    0    0 -0.87538651297E+01 -0.20727982322E+02 -0.28332402396E+02  0.36180166270E+02  0.00000000000E+00 0. -1.
         11    1    1    2    0    0  0.72140212505E+02 -0.14981795851E+02  0.31473932084E+02  0.80120364877E+02  0.00000000000E+00 0.  1.
</event>
<event>
 6    1  0.4988969E-006  0.7412047E+02  0.7561462E-02  0.1346616E+00
          2   -1    0    0  501    0  0.00000000000E+00  0.00000000000E+00  0.31144886136E+02  0.31144886136E+02  0.00000000000E+00 0.  1.
         -2   -1    0    0    0  501 -0.00000000000E+00 -0.00000000000E+00 -0.52036789421E+03  0.52036789421E+03  0.00000000000E+00 0. -1.
          5    1    1    2  502    0 -0.57169366150E+02 -0.76594990426E+01 -0.31858205594E+03  0.32378851603E+03  0.41800000000E+01 0.  1.
         -5    1    1    2    0  502  0.52617759240E+02 -0.85729232866E+00 -0.98485053027E+02  0.11174140507E+03  0.41800000000E+01 0.  1.
        -11    1    1    2    0    0  0.40717472229E+01 -0.14263682632E+02 -0.87347047668E+02  0.88597621322E+02  0.00000000000E+00 0. -1.
         11    1    1    2    0    0  0.47985968662E+00  0.22780474004E+02  0.15191148559E+02  0.27385237916E+02  0.00000000000E+00 0.  1.
</event>
<event>
 6    1  0.4988969E-006  0.1041681E+03  0.7561462E-02  0.1271767E+00
          1   -1    0    0  501    0  0.00000000000E+00  0.00000000000E+00  0.36651420179E+03  0.36651420179E+03  0.00000000000E+00 0. -1.
         -1   -1    0    0    0  501 -0.00000000000E+00 -0.00000000000E+00 -0.38090373871E+02  0.38090373871E+02  0.00000000000E+00 0.  1.
          5    1    1    2  502    0 -0.36677963867E+02 -0.32504114425E+02  0.31310539602E+02  0.58306198454E+02  0.41800000000E+01 0. -1.
         -5    1    1    2    0  502  0.73539354424E+02  0.47408712339E+01  0.14541527887E+03  0.16307540660E+03  0.41800000000E+01 0. -1.
        -11    1    1    2    0    0 -0.27387825867E+02  0.52300286634E+02  0.47550369027E+02  0.75805346661E+02  0.00000000000E+00 0.  1.
         11    1    1    2    0    0 -0.94735646900E+01 -0.24537043443E+02  0.10414764042E+03  0.10741762394E+03  0.00000000000E+00 0. -1.
</event>
<event>
 6    1  0.5311924E-006  0.1667320E+03  0.7561462E-02  0.1181299E+00
         -1   -1    0    0    0  501 -0.00000000000E+00  0.00000000000E+00  0.32340035956E+02  0.32340035956E+02  0.00000000000E+00 0.  1.
          1   -1    0    0  501    0  0.00000000000E+00 -0.00000000000E+00 -0.10210446091E+04  0.10210446091E+04  0.00000000000E+00 0. -1.
          5    1    1    2  502    0  0.79182012229E+02 -0.29144537774E+02 -0.16216725216E+03  0.18285208562E+03  0.41800000000E+01 0.  1.
         -5    1    1    2    0  502  0.55237750106E+02  0.84383792830E+02 -0.34049564043E+03  0.35514305158E+03  0.41800000000E+01 0.  1.
        -11    1    1    2    0    0 -0.43389345816E+02 -0.39766572630E+01 -0.47000860824E+02  0.64090015225E+02  0.00000000000E+00 0.  1.
         11    1    1    2    0    0 -0.91030416518E+02 -0.51262597793E+02 -0.43904081969E+03  0.45129949259E+03  0.00000000000E+00 0. -1.
</event>
<event>
 6    1  0.4988969E-006  0.1349457E+03  0.7561462E-02  0.1220296E+00
         -4   -1    0    0    0  501 -0.00000000000E+00  0.00000000000E+00  0.93606118562E+02  0.93606118562E+02  0.00000000000E+00 0.  1.
          4   -1    0    0  501    0  0.00000000000E+00 -0.00000000000E+00 -0.28928399794E+03  0.28928399794E+03  0.00000000000E+00 0. -1.
          5    1    1    2  502    0  0.46668267936E+02  0.10237802396E+03 -0.71812772023E+01  0.11281945827E+03  0.41800000000E+01 0.  1.
         -5    1    1    2    0  502 -0.41967645345E+02  0.11164608232E+02 -0.48230917597E+02  0.65035571382E+02  0.41800000000E+01 0.  1.
        -11    1    1    2    0    0  0.68706613139E-01 -0.26055958803E+02  0.12521412927E+02  0.28908536654E+02  0.00000000000E+00 0.  1.
         11    1    1    2    0    0 -0.47693292041E+01 -0.87486673385E+02 -0.15278709751E+03  0.17612655020E+03  0.00000000000E+00 0. -1.
</event>
<event>
 6    1  0.4988969E-006  0.8574487E+02  0.7561462E-02  0.1313496E+00
         -2   -1    0    0    0  501 -0.00000000000E+00  0.00000000000E+00  0.40188886345E+02  0.40188886345E+02  0.00000000000E+00 0.  1.
          2   -1    0    0  501    0  0.00000000000E+00 -0.00000000000E+00 -0.37990418111E+03  0.37990418111E+03  0.00000000000E+00 0. -1.
          5    1    1    2  502    0 -0.30501489816E+02 -0.53198810104E+02 -0.18932813160E+03  0.19905543974E+03  0.41800000000E+01 0.  1.
         -5    1    1    2    0  502  0.14659424244E+02 -0.43620206415E+01  0.16234534074E+02  0.22692695738E+02  0.41800000000E+01 0.  1.
        -11    1    1    2    0    0  0.65346743103E+01  0.74529650456E+02 -0.16200810264E+03  0.17844886126E+03  0.00000000000E+00 0. -1.
         11    1    1    2    0    0  0.93073912611E+01 -0.16968819711E+02 -0.46135946015E+01  0.19896070708E+02  0.00000000000E+00 0.  1.
</event>
<event>
 6    1  0.4988969E-006  0.1060346E+03  0.7561462E-02  0.1268095E+00
         -2   -1    0    0    0  501 -0.00000000000E+00  0.00000000000E+00  0.30453256331E+02  0.30453256331E+02  0.00000000000E+00 0.  1.
          2   -1    0    0  501    0  0.00000000000E+00 -0.00000000000E+00 -0.50120469463E+03  0.50120469463E+03  0.00000000000E+00 0. -1.
          5    1    1    2  502    0 -0.56601469862E+02  0.18619555445E+02 -0.51466064559E+02  0.78845687496E+02  0.41800000000E+01 0.  1.
         -5    1    1    2    0  502  0.50266220517E+02  0.37924529890E+02 -0.17527634207E+03  0.18629071738E+03  0.41800000000E+01 0.  1.
        -11    1    1    2    0    0 -0.14435879384E+02  0.11265458626E+02 -0.78135094605E+01  0.19908694124E+02  0.00000000000E+00 0.  1.
         11    1    1    2    0    0  0.20771128729E+02 -0.67809543961E+02 -0.23619552221E+03  0.24661285196E+03  0.00000000000E+00 0. -1.
</event>
<event>
 6    1  0.4988969E-006  0.1074911E+03  0.7561462E-02  0.1265288E+00
         -2   -1    0    0    0  501 -0.00000000000E+00  0.00000000000E+00  0.21295049089E+02  0.21295049089E+02  0.00000000000E+00 0. -1.
          2   -1    0    0  501    0  0.00000000000E+00 -0.00000000000E+00 -0.62335469235E+03  0.62335469235E+03  0.00000000000E+00 0.  1.
          5    1    1    2  502    0 -0.59755576584E+02 -0.15784166748E+01 -0.15110495913E+03  0.16255276499E+03  0.41800000000E+01 0. -1.
         -5    1    1    2    0  502  0.60775058239E+02 -0.15298695658E+02 -0.92438637102E+02  0.11175881094E+03  0.41800000000E+01 0. -1.
        -11    1    1    2    0    0 -0.40766356426E+02 -0.12707526323E+02 -0.14557618609E+03  0.15170960087E+03  0.00000000000E+00 0.  1.
         11    1    1    2    0    0  0.39746874771E+02  0.29584638656E+02 -0.21293986094E+03  0.21862856464E+03  0.00000000000E+00 0. -1.
</event>
<event>
 6    1  0.4988969E-006  0.1409165E+03  0.7561462E-02  0.1212101E+00
          3   -1    0    0  501    0  0.00000000000E+00  0.00000000000E+00  0.89010525527E+03  0.89010525527E+03  0.00000000000E+00 0. -1.
         -3   -1    0    0    0  501 -0.00000000000E+00 -0.00000000000E+00 -0.26560496326E+02  0.26560496326E+02  0.00000000000E+00 0.  1.
          5    1    1    2  502    0  0.45608251476E+02 -0.81743702493E+01  0.27006645896E+03  0.27404433507E+03  0.41800000000E+01 0.  1.
         -5    1    1    2    0  502  0.15056216302E+02  0.98464063606E+02  0.18296786407E+03  0.20836643960E+03  0.41800000000E+01 0.  1.
        -11    1    1    2    0    0 -0.63909559870E+02 -0.22512259188E+02  0.26772451079E+03  0.27616597787E+03  0.00000000000E+00 0. -1.
         11    1    1    2    0    0  0.32450920927E+01 -0.67777434168E+02  0.14278592513E+03  0.15808899905E+03  0.00000000000E+00 0.  1.
</event>
<event>
 6    1  0.5584716E-006  0.1868349E+03  0.7561462E-02  0.1161347E+00
          1   -1    0    0  501    0  0.00000000000E+00  0.00000000000E+00  0.43438427726E+03  0.43438427726E+03  0.00000000000E+00 0. -1.
         -1   -1    0    0    0  501 -0.00000000000E+00 -0.00000000000E+00 -0.91914008710E+02  0.91914008710E+02  0.00000000000E+00 0.  1.
          5    1    1    2  502    0 -0.93815679414E+02  0.12330781037E+03  0.13797737699E+03  0.20751247375E+03  0.41800000000E+01 0.  1.
         -5    1    1    2    0  502  0.30873929860E+02  0.31655304997E+02  0.30853186331E+01  0.44522460293E+02  0.41800000000E+01 0.  1.
        -11    1    1    2    0    0  0.66993746807E+02 -0.10779586369E+03  0.97384991474E+02  0.15997483209E+03  0.00000000000E+00 0.  1.
         11    1    1    2    0    0 -0.40519972532E+01 -0.47167251679E+02  0.10402258146E+03  0.11428851983E+03  0.00000000000E+00 0. -1.
</event>
<event>
 6    1  0.4988969E-006  0.9866258E+02  0.7561462E-02  0.1283134E+00
          1   -1    0    0  501    0  0.00000000000E+00  0.00000000000E+00  0.91998867943E+02  0.91998867943E+02  0.00000000000E+00 0. -1.
         -1   -1    0    0    0  501 -0.00000000000E+00 -0.00000000000E+00 -0.15062960906E+03  0.15062960906E+03  0.00000000000E+00 0.  1.
          5    1    1    2  502    0 -0.49796134699E+02 -0.15547792890E+02 -0.24671456046E+02  0.57857947061E+02  0.41800000000E+01 0. -1.
         -5    1    1    2    0  502  0.60916215558E+02 -0.28141255911E+02 -0.45824950886E+02  0.81364083759E+02  0.41800000000E+01 0.  1.
        -11    1    1    2    0    0 -0.28984639285E+02  0.50835282277E+02  0.38868171196E+02  0.70250053173E+02  0.00000000000E+00 0. -1.
         11    1    1    2    0    0  0.17864558427E+02 -0.71462334752E+01 -0.27002505385E+02  0.33156393014E+02  0.00000000000E+00 0.  1.
</event>
<event>
 6    1  0.4988969E-006  0.1105537E+03  0.7561462E-02  0.1259548E+00
         -2   -1    0    0    0  501 -0.00000000000E+00  0.00000000000E+00  0.24901290586E+03  0.24901290586E+03  0.00000000000E+00 0. -1.
          2   -1    0    0  501    0  0.00000000000E+00 -0.00000000000E+00 -0.66963504512E+02  0.66963504512E+02  0.00000000000E+00 0.  1.
          5    1    1    2  502    0 -0.15065833751E+02 -0.10154386699E+03  0.10583969126E+03  0.14750474201E+03  0.41800000000E+01 0. -1.
         -5    1    1    2    0  502  0.45343722194E+01  0.37623720768E+02  0.40060950086E+02  0.55303318324E+02  0.41800000000E+01 0. -1.
        -11    1    1    2    0    0  0.28119423257E+02  0.25387916921E+02 -0.19996363686E+02  0.42838100455E+02  0.00000000000E+00 0.  1.
         11    1    1    2    0    0 -0.17587961725E+02  0.38532229300E+02  0.56145123696E+02  0.70330249589E+02  0.00000000000E+00 0. -1.
</event>
<event>
 6    1  0.4988969E-006  0.1357104E+03  0.7561462E-02  0.1219220E+00
         -3   -1    0    0    0  501 -0.00000000000E+00  0.00000000000E+00  0.12524775741E+03  0.12524775741E+03  0.00000000000E+00 0. -1.
          3   -1    0    0  501    0  0.00000000000E+00 -0.00000000000E+00 -0.16395563846E+03  0.16395563846E+03  0.00000000000E+00 0.  1.
          5    1    1    2  502    0 -0.74432171950E+02 -0.10310928159E+02  0.19771996025E+02  0.77813030319E+02  0.41800000000E+01 0. -1.
         -5    1    1    2    0  502  0.89314923393E-01  0.69523381480E+02 -0.40718841793E+02  0.80678404958E+02  0.41800000000E+01 0. -1.
        -11    1    1    2    0    0  0.90075382409E+02 -0.32977980496E+02 -0.12075018139E+01  0.95930077527E+02  0.00000000000E+00 0. -1.
         11    1    1    2    0    0 -0.15732525383E+02 -0.26234472825E+02 -0.16553533465E+02  0.34781883064E+02  0.00000000000E+00 0.  1.
</event>
<event>
 6    1  0.4988969E-006  0.2005200E+03  0.7561462E-02  0.1149301E+00
         -2   -1    0    0    0  501 -0.00000000000E+00  0.00000000000E+00  0.43836857946E+03  0.43836857946E+03  0.00000000000E+00 0.  1.
          2   -1    0    0  501    0  0.00000000000E+00 -0.00000000000E+00 -0.10703631482E+03  0.10703631482E+03  0.00000000000E+00 0. -1.
          5    1    1    2  502    0 -0.10479817932E+03 -0.42209041415E+02  0.90718841335E+02  0.14495393109E+03  0.41800000000E+01 0. -1.
         -5    1    1    2    0  502 -0.40170983069E+01 -0.10470086078E+03  0.13971377015E+03  0.17468777088E+03  0.41800000000E+01 0. -1.
        -11    1    1    2    0    0  0.50533346924E+02  0.77055879504E+02  0.98320386124E+02  0.13475209106E+03  0.00000000000E+00 0.  1.
         11    1    1    2    0    0  0.58281930699E+02  0.69854022689E+02  0.25792670338E+01  0.91011101248E+02  0.00000000000E+00 0. -1.
</event>
<event>
 6    1  0.4988969E-006  0.1488936E+03  0.7561462E-02  0.1201839E+00
         -2   -1    0    0    0  501 -0.00000000000E+00  0.00000000000E+00  0.18330517805E+03  0.18330517805E+03  0.00000000000E+00 0.  1.
          2   -1    0    0  501    0  0.00000000000E+00 -0.00000000000E+00 -0.14197621014E+03  0.14197621014E+03  0.00000000000E+00 0. -1.
          5    1    1    2  502    0  0.48775509753E+02 -0.10147629067E+03  0.44526868455E+02  0.12114702775E+03  0.41800000000E+01 0. -1.
         -5    1    1    2    0  502 -0.45211216130E+02 -0.17433024128E+02 -0.21186836684E+02  0.53050154033E+02  0.41800000000E+01 0. -1.
        -11    1    1    2    0    0  0.27377374661E+02  0.23160800327E+02 -0.22814233216E+02  0.42502147621E+02  0.00000000000E+00 0. -1.
         11    1    1    2    0    0 -0.30941668284E+02  0.95748514468E+02  0.40803169354E+02  0.10858205878E+03  0.00000000000E+00 0.  1.
</event>
<event>
 6    1  0.4988969E-006  0.1494933E+03  0.7561462E-02  0.1201097E+00
          1   -1    0    0  501    0  0.00000000000E+00  0.00000000000E+00  0.39974258215E+03  0.39974258215E+03  0.00000000000E+00 0. -1.
         -1   -1    0    0    0  501 -0.00000000000E+00 -0.00000000000E+00 -0.74657691675E+02  0.74657691675E+02  0.00000000000E+00 0.  1.
          5    1    1    2  502    0  0.11527366152E+03  0.25008399422E+02  0.78010827469E+02  0.14148002927E+03  0.41800000000E+01 0. -1.
         -5    1    1    2    0  502  0.13991583714E+01  0.28994080447E+02  0.12966191345E+03  0.13293719775E+03  0.41800000000E+01 0. -1.
        -11    1    1    2    0    0 -0.28376249379E+02 -0.56578893804E+02  0.15596293628E+02  0.65189164190E+02  0.00000000000E+00 0.  1.
         11    1    1    2    0    0 -0.88296570508E+02  0.25764139347E+01  0.10181585593E+03  0.13479388262E+03  0.00000000000E+00 0. -1.
</event>
<event>
 6    1  0.4988969E-006  0.1179186E+03  0.7561462E-02  0.1246571E+00
         -2   -1    0    0    0  501 -0.00000000000E+00  0.00000000000E+00  0.25521201097E+03  0.25521201097E+03  0.00000000000E+00 0.  1.
          2   -1    0    0  501    0  0.00000000000E+00 -0.00000000000E+00 -0.77654126818E+02  0.77654126818E+02  0.00000000000E+00 0. -1.
          5    1    1    2  502    0  0.46080039777E+02 -0.73560878795E+02  0.14195461030E+03  0.16644265301E+03  0.41800000000E+01 0.  1.
         -5    1    1    2    0  502 -0.38327519561E+01  0.44671738036E+02  0.40156672716E+02  0.60334773807E+02  0.41800000000E+01 0.  1.
        -11    1    1    2    0    0  0.20566618035E+01  0.53287104307E+02  0.81351302369E+01  0.53943727042E+02  0.00000000000E+00 0. -1.
         11    1    1    2    0    0 -0.44303949624E+02 -0.24397963548E+02 -0.12688529107E+02  0.52144983925E+02  0.00000000000E+00 0.  1.
</event>
<event>
 6    1  0.4988969E-006  0.1302816E+03  0.7561462E-02  0.1227039E+00
          1   -1    0    0  501    0  0.00000000000E+00  0.00000000000E+00  0.84136666111E+03  0.84136666111E+03  0.00000000000E+00 0. -1.
         -1   -1    0    0    0  501 -0.00000000000E+00 -0.00000000000E+00 -0.21217440960E+02  0.21217440960E+02  0.00000000000E+00 0.  1.
          5    1    1    2  502    0 -0.38474434756E+02 -0.83530904049E+02  0.28496972910E+03  0.29947105530E+03  0.41800000000E+01 0.  1.
         -5    1    1    2    0  502 -0.12412744197E+02  0.44960395728E+02  0.20124305271E+03  0.20661982496E+03  0.41800000000E+01 0.  1.
        -11    1    1    2    0    0 -0.58747488983E+01 -0.31189400035E+02  0.56002426858E+02  0.64370514703E+02  0.00000000000E+00 0.  1.
         11    1    1    2    0    0  0.56761927851E+02  0.69759908356E+02  0.27793401148E+03  0.29212270711E+03  0.00000000000E+00 0. -1.
</event>
<event>
 6    1  0.4988969E-006  0.7956254E+02  0.7561462E-02  0.1330297E+00
          1   -1    0    0  501    0  0.00000000000E+00  0.00000000000E+00  0.86063274096E+02  0.86063274096E+02  0.00000000000E+00 0. -1.
         -1   -1    0    0    0  501 -0.00000000000E+00 -0.00000000000E+00 -0.18305225888E+03  0.18305225888E+03  0.00000000000E+00 0.  1.
          5    1    1    2  502    0  0.16144891748E+02 -0.32290514005E+02  0.79220778995E+01  0.37196324315E+02  0.41800000000E+01 0. -1.
         -5    1    1    2    0  502 -0.26238867519E+02  0.40074171490E+02 -0.12773503561E+03  0.13648490434E+03  0.41800000000E+01 0. -1.
        -11    1    1    2    0    0 -0.25173061619E+02  0.18056710666E+02  0.38114876341E+02  0.49116917959E+02  0.00000000000E+00 0. -1.
         11    1    1    2    0    0  0.35267037390E+02 -0.25840368151E+02 -0.15290903412E+02  0.46317386364E+02  0.00000000000E+00 0.  1.
</event>
<event>
 6    1  0.4988969E-006  0.1308860E+03  0.7561462E-02  0.1226147E+00
          2   -1    0    0  501    0  0.00000000000E+00  0.00000000000E+00  0.13971764032E+03  0.13971764032E+03  0.00000000000E+00 0. -1.
         -2   -1    0    0    0  501 -0.00000000000E+00 -0.00000000000E+00 -0.20772521255E+03  0.20772521255E+03  0.00000000000E+00 0.  1.
          5    1    1    2  502    0  0.75661142283E+02 -0.91366429872E+02 -0.59983468765E+02  0.13299594687E+03  0.41800000000E+01 0. -1.
         -5    1    1    2    0  502 -0.27353182947E+02  0.53875759316E+01 -0.60474420523E+02  0.66722189183E+02  0.41800000000E+01 0. -1.
        -11    1    1    2    0    0 -0.37678951502E+00  0.60682742283E+02  0.68196444265E+02  0.91286867575E+02  0.00000000000E+00 0. -1.
         11    1    1    2    0    0 -0.47931169821E+02  0.25296111657E+02 -0.15746127208E+02  0.56437849245E+02  0.00000000000E+00 0.  1.
</event>
<event>
 6    1  0.4988969E-006  0.1411388E+03  0.7561462E-02  0.1211805E+00
          2   -1    0    0  501    0  0.00000000000E+00  0.00000000000E+00  0.38209614551E+03  0.38209614551E+03  0.00000000000E+00 0. -1.
         -2   -1    0    0    0  501 -0.00000000000E+00 -0.00000000000E+00 -0.14842385301E+03  0.14842385301E+03  0.00000000000E+00 0.  1.
          5    1    1    2  502    0  0.58667477298E+02  0.10621279576E+03 -0.38870158231E+02  0.12748094946E+03  0.41800000000E+01 0. -1.
         -5    1    1    2    0  502 -0.42724586225E+02  0.60354000206E+01 -0.39495082196E+02  0.58644268596E+02  0.41800000000E+01 0. -1.
        -11    1    1    2    0    0  0.82170323175E+01 -0.51306498996E+02  0.24568559903E+03  0.25112007094E+03  0.00000000000E+00 0. -1.
         11    1    1    2    0    0 -0.24159923391E+02 -0.60941696781E+02  0.66351933889E+02  0.93274709518E+02  0.00000000000E+00 0.  1.
</event>
<event>
 6    1  0.4988969E-006  0.1191237E+03  0.7561462E-02  0.1244550E+00
         -1   -1    0    0    0  501 -0.00000000000E+00  0.00000000000E+00  0.45829487568E+02  0.45829487568E+02  0.00000000000E+00 0.  1.
          1   -1    0    0  501    0  0.00000000000E+00 -0.00000000000E+00 -0.43668784712E+03  0.43668784712E+03  0.00000000000E+00 0. -1.
          5    1    1    2  502    0  0.90846422338E+02  0.34965896621E+02 -0.89076744730E+02  0.13201448871E+03  0.41800000000E+01 0. -1.
         -5    1    1    2    0  502 -0.27771054191E+01 -0.50846899668E+02 -0.94930337396E+02  0.10780705394E+03  0.41800000000E+01 0. -1.
        -11    1    1    2    0    0 -0.64738494224E+02  0.87681008813E+01 -0.20825786960E+03  0.21826427210E+03  0.00000000000E+00 0. -1.
         11    1    1    2    0    0 -0.23330822695E+02  0.71129021657E+01  0.14065921730E+01  0.24431519936E+02  0.00000000000E+00 0.  1.
</event>
<event>
 6    1  0.4988969E-006  0.1059286E+03  0.7561462E-02  0.1268301E+00
          1   -1    0    0  501    0  0.00000000000E+00  0.00000000000E+00  0.11378682391E+03  0.11378682391E+03  0.00000000000E+00 0. -1.
         -1   -1    0    0    0  501 -0.00000000000E+00 -0.00000000000E+00 -0.17594789652E+03  0.17594789652E+03  0.00000000000E+00 0.  1.
          5    1    1    2  502    0  0.26332539663E+02  0.32203931999E+02 -0.32188529609E+01  0.41932437274E+02  0.41800000000E+01 0. -1.
         -5    1    1    2    0  502 -0.92223265419E+02 -0.87387786307E+01 -0.88763657929E+02  0.12836649214E+03  0.41800000000E+01 0. -1.
        -11    1    1    2    0    0  0.18815478129E+02  0.82615877557E+01  0.53966002467E+02  0.57746042910E+02  0.00000000000E+00 0. -1.
         11    1    1    2    0    0  0.47075247627E+02 -0.31726741124E+02 -0.24144564181E+02  0.61689748103E+02  0.00000000000E+00 0.  1.
</event>
<event>
 6    1  0.4988969E-006  0.1710061E+03  0.7561462E-02  0.1176803E+00
         -2   -1    0    0    0  501 -0.00000000000E+00  0.00000000000E+00  0.52861548664E+02  0.52861548664E+02  0.00000000000E+00 0.  1.
          2   -1    0    0  501    0  0.00000000000E+00 -0.00000000000E+00 -0.70014888712E+03  0.70014888712E+03  0.00000000000E+00 0. -1.
          5    1    1    2  502    0  0.59002517657E+02 -0.19159855608E+02 -0.21443820942E+02  0.65770107293E+02  0.41800000000E+01 0.  1.
         -5    1    1    2    0  502  0.18090312867E+02 -0.10415442430E+03 -0.20753883695E+03  0.23294901752E+03  0.41800000000E+01 0.  1.
        -11    1    1    2    0    0 -0.36573336033E+02 -0.72913167028E+01 -0.58488977250E+02  0.69366653859E+02  0.00000000000E+00 0.  1.
         11    1    1    2    0    0 -0.40519494491E+02  0.13060559661E+03 -0.35981570331E+03  0.38492465711E+03  0.00000000000E+00 0. -1.
</event>
<event>
 6    1  0.4988969E-006  0.9565881E+02  0.7561462E-02  0.1289699E+00
         -3   -1    0    0    0  501 -0.00000000000E+00  0.00000000000E+00  0.11302406058E+03  0.11302406058E+03  0.00000000000E+00 0.  1.
          3   -1    0    0  501    0  0.00000000000E+00 -0.00000000000E+00 -0.13198176608E+03  0.13198176608E+03  0.00000000000E+00 0. -1.
          5    1    1    2  502    0 -0.11377809681E+02  0.61911956612E+02  0.30767632707E+01  0.63162360603E+02  0.41800000000E+01 0. -1.
         -5    1    1    2    0  502  0.31442277276E+02 -0.49939394201E+02  0.39021561659E+02  0.70871112364E+02  0.41800000000E+01 0. -1.
        -11    1    1    2    0    0 -0.39134120149E+02  0.95817046104E+01  0.33498427812E+01  0.40429072086E+02  0.00000000000E+00 0. -1.
         11    1    1    2    0    0  0.19069652554E+02 -0.21554267022E+02 -0.64405873215E+02  0.70543281607E+02  0.00000000000E+00 0.  1.
</event>
<event>
 6    1  0.4988969E-006  0.1173958E+03  0.7561462E-02  0.1247456E+00
         -3   -1    0    0    0  501 -0.00000000000E+00  0.00000000000E+00  0.39884795117E+03  0.39884795117E+03  0.00000000000E+00 0.  1.
          3   -1    0    0  501    0  0.00000000000E+00 -0.00000000000E+00 -0.45779305973E+02  0.45779305973E+02  0.00000000000E+00 0. -1.
          5    1    1    2  502    0  0.46415235711E+01 -0.35458015658E+02  0.12960405402E+02  0.38265638942E+02  0.41800000000E+01 0. -1.
         -5    1    1    2    0  502  0.57943657341E+02  0.62618406980E+02  0.24130911054E+03  0.25598064682E+03  0.41800000000E+01 0.  1.
        -11    1    1    2    0    0 -0.15268968598E+02  0.33278178153E+02  0.32181125720E+02  0.48746316741E+02  0.00000000000E+00 0.  1.
         11    1    1    2    0    0 -0.47316212315E+02 -0.60438569475E+02  0.66618003537E+02  0.10163465464E+03  0.00000000000E+00 0. -1.
</event>
<event>
 6    1  0.4988969E-006  0.1199274E+03  0.7561462E-02  0.1243217E+00
          1   -1    0    0  501    0  0.00000000000E+00  0.00000000000E+00  0.86506140889E+02  0.86506140889E+02  0.00000000000E+00 0. -1.
         -1   -1    0    0    0  501 -0.00000000000E+00 -0.00000000000E+00 -0.19902282552E+03  0.19902282552E+03  0.00000000000E+00 0.  1.
          5    1    1    2  502    0  0.98289878592E+02  0.11815296391E+02 -0.19803715662E+02  0.10104534139E+03  0.41800000000E+01 0.  1.
         -5    1    1    2    0  502 -0.27141637221E+02 -0.41386998970E+01 -0.54334257558E+02  0.61020334744E+02  0.41800000000E+01 0.  1.
        -11    1    1    2    0    0 -0.19749756599E+01  0.32795002922E+02 -0.26982123233E+02  0.42514088484E+02  0.00000000000E+00 0.  1.
         11    1    1    2    0    0 -0.69173265711E+02 -0.40471599415E+02 -0.11396588177E+02  0.80949201790E+02  0.00000000000E+00 0. -1.
</event>
<event>
 6    1  0.4988969E-006  0.1055298E+03  0.7561462E-02  0.1269079E+00
          2   -1    0    0  501    0  0.00000000000E+00  0.00000000000E+00  0.31160160682E+03  0.31160160682E+03  0.00000000000E+00 0. -1.
         -2   -1    0    0    0  501 -0.00000000000E+00 -0.00000000000E+00 -0.44866811396E+02  0.44866811396E+02  0.00000000000E+00 0.  1.
          5    1    1    2  502    0 -0.66155496742E+02 -0.20266635526E+01  0.26176730385E+02  0.71297620773E+02  0.41800000000E+01 0. -1.
         -5    1    1    2    0  502  0.49064277712E+02  0.25811233856E+02  0.68883655796E+02  0.88520921687E+02  0.41800000000E+01 0. -1.
        -11    1    1    2    0    0  0.55264275191E+01  0.31847331954E+02  0.30384219703E+02  0.44362086974E+02  0.00000000000E+00 0.  1.
         11    1    1    2    0    0  0.11564791511E+02 -0.55631902258E+02  0.14129018954E+03  0.15228778878E+03  0.00000000000E+00 0. -1.
</event>
<event>
 6    1  0.4988969E-006  0.1344861E+03  0.7561462E-02  0.1220947E+00
          2   -1    0    0  501    0  0.00000000000E+00  0.00000000000E+00  0.21085045952E+03  0.21085045952E+03  0.00000000000E+00 0. -1.
         -2   -1    0    0    0  501 -0.00000000000E+00 -0.00000000000E+00 -0.12465359518E+03  0.12465359518E+03  0.00000000000E+00 0.  1.
          5    1    1    2  502    0  0.44888134733E+01  0.95440513626E+01 -0.32005207957E+02  0.33956503047E+02  0.41800000000E+01 0. -1.
         -5    1    1    2    0  502  0.10308323849E+03 -0.65778791496E+02  0.82300871093E+02  0.14745816102E+03  0.41800000000E+01 0. -1.
        -11    1    1    2    0    0 -0.62143940930E+02  0.63976612540E+02  0.54356075164E+02  0.10444835687E+03  0.00000000000E+00 0. -1.
         11    1    1    2    0    0 -0.45428111034E+02 -0.77418724065E+01 -0.18454873963E+02  0.49641033767E+02  0.00000000000E+00 0.  1.
</event>
<event>
 6    1  0.4988969E-006  0.1170520E+03  0.7561462E-02  0.1248041E+00
         -2   -1    0    0    0  501 -0.00000000000E+00  0.00000000000E+00  0.49111130889E+02  0.49111130889E+02  0.00000000000E+00 0. -1.
          2   -1    0    0  501    0  0.00000000000E+00 -0.00000000000E+00 -0.34507350045E+03  0.34507350045E+03  0.00000000000E+00 0.  1.
          5    1    1    2  502    0 -0.44676217790E+02  0.90723267097E+01 -0.27791856159E+02  0.53554936436E+02  0.41800000000E+01 0.  1.
         -5    1    1    2    0  502  0.67051058434E+02 -0.62387947926E+02 -0.72466407044E+02  0.11686296690E+03  0.41800000000E+01 0.  1.
        -11    1    1    2    0    0 -0.25908535336E+02 -0.13854119903E+02 -0.19768145999E+02  0.35411416772E+02  0.00000000000E+00 0. -1.
         11    1    1    2    0    0  0.35336946917E+01  0.67169741120E+02 -0.17593596036E+03  0.18835531123E+03  0.00000000000E+00 0.  1.
</event>
<event>
 6    1  0.4988969E-006  0.8716759E+02  0.7561462E-02  0.1309859E+00
          2   -1    0    0  501    0  0.00000000000E+00  0.00000000000E+00  0.69980983585E+02  0.69980983585E+02  0.00000000000E+00 0. -1.
         -2   -1    0    0    0  501 -0.00000000000E+00 -0.00000000000E+00 -0.17670297734E+03  0.17670297734E+03  0.00000000000E+00 0.  1.
          5    1    1    2  502    0 -0.30423771275E+02 -0.51066332502E+02 -0.11667949860E+03  0.13101509061E+03  0.41800000000E+01 0. -1.
         -5    1    1    2    0  502  0.32049755584E+02  0.27738967847E+02 -0.14456150704E+01  0.42616890702E+02  0.41800000000E+01 0. -1.
        -11    1    1    2    0    0 -0.15787799810E+02  0.44197358241E+02  0.77178523082E+01  0.47562867266E+02  0.00000000000E+00 0.  1.
         11    1    1    2    0    0  0.14161815501E+02 -0.20869993587E+02  0.36852676126E+01  0.25489112342E+02  0.00000000000E+00 0. -1.
</event>
<event>
 6    1  0.4988969E-006  0.9701282E+02  0.7561462E-02  0.1286706E+00
          1   -1    0    0  501    0  0.00000000000E+00  0.00000000000E+00  0.61975127363E+02  0.61975127363E+02  0.00000000000E+00 0. -1.
         -1   -1    0    0    0  501 -0.00000000000E+00 -0.00000000000E+00 -0.29800496012E+03  0.29800496012E+03  0.00000000000E+00 0.  1.
          5    1    1    2  502    0 -0.38658643005E+02  0.32089681097E+02 -0.15819890476E+03  0.16603796005E+03  0.41800000000E+01 0. -1.
         -5    1    1    2    0  502  0.65400460467E+02  0.62850364089E+01 -0.56232323929E+02  0.86580994256E+02  0.41800000000E+01 0. -1.
        -11    1    1    2    0    0 -0.36225648364E+02 -0.50645142657E+02  0.18014171917E+02  0.64820818137E+02  0.00000000000E+00 0. -1.
         11    1    1    2    0    0  0.94838309019E+01  0.12270425151E+02 -0.39612775987E+02  0.42540315036E+02  0.00000000000E+00 0.  1.
</event>
<event>
 6    1  0.4988969E-006  0.1075354E+03  0.7561462E-02  0.1265203E+00
         -1   -1    0    0    0  501 -0.00000000000E+00  0.00000000000E+00  0.29670702636E+02  0.29670702636E+02  0.00000000000E+00 0.  1.
          1   -1    0    0  501    0  0.00000000000E+00 -0.00000000000E+00 -0.47174654656E+03  0.47174654656E+03  0.00000000000E+00 0. -1.
          5    1    1    2  502    0  0.16290857760E+02  0.63562608024E+02 -0.15756741041E+03  0.17073534610E+03  0.41800000000E+01 0.  1.
         -5    1    1    2    0  502 -0.32801649309E+02 -0.40232530893E+02 -0.43842596139E+02  0.68075328685E+02  0.41800000000E+01 0.  1.
        -11    1    1    2    0    0  0.39212365859E+02  0.23135317871E+02 -0.16345257646E+03  0.16967497553E+03  0.00000000000E+00 0. -1.
         11    1    1    2    0    0 -0.22701574310E+02 -0.46465395003E+02 -0.77213260911E+02  0.92931598875E+02  0.00000000000E+00 0.  1.
</event>
<event>
 6    1  0.4988969E-006  0.1880038E+03  0.7561462E-02  0.1160274E+00
         -1   -1    0    0    0  501 -0.00000000000E+00  0.00000000000E+00  0.46675339949E+03  0.46675339949E+03  0.00000000000E+00 0.  1.
          1   -1    0    0  501    0  0.00000000000E+00 -0.00000000000E+00 -0.17235766036E+03  0.17235766036E+03  0.00000000000E+00 0. -1.
          5    1    1    2  502    0  0.66326482888E+01 -0.20167459582E+02  0.11623028537E+02  0.24561873742E+02  0.41800000000E+01 0.  1.
         -5    1    1    2    0  502  0.11313765697E+03  0.13932411917E+03  0.36489368953E+03  0.40666474726E+03  0.41800000000E+01 0.  1.
        -11    1    1    2    0    0  0.27449283303E+01 -0.11269483079E+02  0.14203281547E+02  0.18337641263E+02  0.00000000000E+00 0.  1.
         11    1    1    2    0    0 -0.12251523359E+03 -0.10788717651E+03 -0.96324260478E+02  0.18954679758E+03  0.00000000000E+00 0. -1.
</event>
<event>
 6    1  0.4988969E-006  0.8581160E+02  0.7561462E-02  0.1313324E+00
          1   -1    0    0  501    0  0.00000000000E+00  0.00000000000E+00  0.22353739577E+02  0.22353739577E+02  0.00000000000E+00 0. -1.
         -1   -1    0    0    0  501 -0.00000000000E+00 -0.00000000000E+00 -0.67725066152E+03  0.67725066152E+03  0.00000000000E+00 0.  1.
          5    1    1    2  502    0 -0.16752954825E+02 -0.48002912829E+02 -0.59495451100E+02  0.78371692830E+02  0.41800000000E+01 0.  1.
         -5    1    1    2    0  502 -0.30386062672E+02  0.21346576279E+02 -0.37859284508E+03  0.38043265352E+03  0.41800000000E+01 0.  1.
        -11    1    1    2    0    0  0.36470903030E+02 -0.15593183557E+02 -0.17826393099E+03  0.18262339180E+03  0.00000000000E+00 0.  1.
         11    1    1    2    0    0  0.10668114468E+02  0.42249520107E+02 -0.38544694773E+02  0.58176662939E+02  0.00000000000E+00 0. -1.
</event>
<event>
 6    1  0.4988969E-006  0.1133269E+03  0.7561462E-02  0.1254530E+00
         -2   -1    0    0    0  501 -0.00000000000E+00  0.00000000000E+00  0.52445036433E+03  0.52445036433E+03  0.00000000000E+00 0.  1.
          2   -1    0    0  501    0  0.00000000000E+00 -0.00000000000E+00 -0.36229329993E+02  0.36229329993E+02  0.00000000000E+00 0. -1.
          5    1    1    2  502    0 -0.13704556023E+02 -0.45117950703E+02  0.16152573362E+03  0.16831957508E+03  0.41800000000E+01 0.  1.
         -5    1    1    2    0  502  0.41409028589E+02  0.72436438923E+02  0.26002052236E+03  0.27311149698E+03  0.41800000000E+01 0.  1.
        -11    1    1    2    0    0 -0.36607888760E+02 -0.55350749668E+02  0.31680678431E+02  0.73535762688E+02  0.00000000000E+00 0. -1.
         11    1    1    2    0    0  0.89034161941E+01  0.28032261448E+02  0.34994099926E+02  0.45712859585E+02  0.00000000000E+00 0.  1.
</event>
<event>
 6    1  0.4988969E-006  0.5692284E+02  0.7561462E-02  0.1411218E+00
          2   -1    0    0  501    0  0.00000000000E+00  0.00000000000E+00  0.28286340301E+03  0.28286340301E+03  0.00000000000E+00 0. -1.
         -2   -1    0    0    0  501 -0.00000000000E+00 -0.00000000000E+00 -0.44240243720E+02  0.44240243720E+02  0.00000000000E+00 0.  1.
          5    1    1    2  502    0 -0.49192030675E+01  0.42390917470E+01 -0.29572406563E+02  0.30564163453E+02  0.41800000000E+01 0.  1.
         -5    1    1    2    0  502  0.12717537640E+02  0.11264017225E+02  0.12895782741E+03  0.13013918509E+03  0.41800000000E+01 0.  1.
        -11    1    1    2    0    0  0.39718653290E+02 -0.59918963077E+01  0.44229512537E+02  0.59747167462E+02  0.00000000000E+00 0. -1.
         11    1    1    2    0    0 -0.47516987862E+02 -0.95112126644E+01  0.95008225916E+02  0.10665313073E+03  0.00000000000E+00 0.  1.
</event>
<event>
 6    1  0.4988969E-006  0.7975525E+02  0.7561462E-02  0.1329747E+00
         -2   -1    0    0    0  501 -0.00000000000E+00  0.00000000000E+00  0.41421516672E+02  0.41421516672E+02  0.00000000000E+00 0. -1.
          2   -1    0    0  501    0  0.00000000000E+00 -0.00000000000E+00 -0.29147809536E+03  0.29147809536E+03  0.00000000000E+00 0.  1.
          5    1    1    2  502    0 -0.51229487560E+02  0.36084598467E+02 -0.26332110887E+02  0.68098539676E+02  0.41800000000E+01 0.  1.
         -5    1    1    2    0  502  0.40454474114E+02 -0.17358868889E+02 -0.10810382744E+03  0.11679813660E+03  0.41800000000E+01 0.  1.
        -11    1    1    2    0    0  0.26123440201E+02 -0.24764255479E+02 -0.12427054545E+03  0.12937878861E+03  0.00000000000E+00 0.  1.
         11    1    1    2    0    0 -0.15348426755E+02  0.60385259008E+01  0.86499050872E+01  0.18624147146E+02  0.00000000000E+00 0. -1.
</event>
<event>
 6    1  0.4988969E-006  0.2136851E+03  0.7561462E-02  0.1138681E+00
         -1   -1    0    0    0  501 -0.00000000000E+00  0.00000000000E+00  0.12491885369E+03  0.12491885369E+03  0.00000000000E+00 0.  1.
          1   -1    0    0  501    0  0.00000000000E+00 -0.00000000000E+00 -0.46062292206E+03  0.46062292206E+03  0.00000000000E+00 0. -1.
          5    1    1    2  502    0  0.62322067869E+02  0.67236689180E+02 -0.12056098790E+03  0.15151645692E+03  0.41800000000E+01 0. -1.
         -5    1    1    2    0  502  0.98748706612E+02  0.65341982588E+02  0.32769768657E+01  0.11852886873E+03  0.41800000000E+01 0. -1.
        -11    1    1    2    0    0 -0.14143261181E+03 -0.83476693083E+02 -0.11874772326E+03  0.20266367151E+03  0.00000000000E+00 0.  1.
         11    1    1    2    0    0 -0.19638162671E+02 -0.49101978685E+02 -0.99672334068E+02  0.11283277858E+03  0.00000000000E+00 0. -1.
</event>
<event>
 6    1  0.4988969E-006  0.1061737E+03  0.7561462E-02  0.1267824E+00
          2   -1    0    0  501    0  0.00000000000E+00  0.00000000000E+00  0.84983612111E+03  0.84983612111E+03  0.00000000000E+00 0. -1.
         -2   -1    0    0    0  501 -0.00000000000E+00 -0.00000000000E+00 -0.17940720044E+02  0.17940720044E+02  0.00000000000E+00 0.  1.
          5    1    1    2  502    0  0.25050645448E+02 -0.69752374771E+02  0.10956496664E+03  0.13234380582E+03  0.41800000000E+01 0.  1.
         -5    1    1    2    0  502 -0.20468864186E+02  0.32154950883E+02  0.20062434725E+03  0.20425600695E+03  0.41800000000E+01 0.  1.
        -11    1    1    2    0    0 -0.48069234011E+02  0.12949604612E+02  0.24909975562E+03  0.25402565179E+03  0.00000000000E+00 0.  1.
         11    1    1    2    0    0  0.43487452750E+02  0.24647819276E+02  0.27260633155E+03  0.27715137659E+03  0.00000000000E+00 0. -1.
</event>
<event>
 6    1  0.4988969E-006  0.9531648E+02  0.7561462E-02  0.1290465E+00
          2   -1    0    0  501    0  0.00000000000E+00  0.00000000000E+00  0.85144684700E+03  0.85144684700E+03  0.00000000000E+00 0. -1.
         -2   -1    0    0    0  501 -0.00000000000E+00 -0.00000000000E+00 -0.19153896655E+02  0.19153896655E+02  0.00000000000E+00 0.  1.
          5    1    1    2  502    0 -0.41775197065E+02  0.72985075930E+01  0.27303538642E+02  0.50610185983E+02  0.41800000000E+01 0.  1.
         -5    1    1    2    0  502  0.12015813504E+02  0.39220163624E+02  0.31993966752E+03  0.32258559215E+03  0.41800000000E+01 0.  1.
        -11    1    1    2    0    0  0.47314783499E+02  0.93463648452E+01  0.28140964853E+03  0.28551258039E+03  0.00000000000E+00 0. -1.
         11    1    1    2    0    0 -0.17555399939E+02 -0.55865036062E+02  0.20364009565E+03  0.21189238514E+03  0.00000000000E+00 0.  1.
</event>
<event>
 6    1  0.4988969E-006  0.3702927E+03  0.7561462E-02  0.1054581E+00
          1   -1    0    0  501    0  0.00000000000E+00  0.00000000000E+00  0.11140476412E+04  0.11140476412E+04  0.00000000000E+00 0. -1.
         -1   -1    0    0    0  501 -0.00000000000E+00 -0.00000000000E+00 -0.16395323879E+03  0.16395323879E+03  0.00000000000E+00 0.  1.
          5    1    1    2  502    0  0.92734747540E+01 -0.16317773933E+03  0.10351814574E+03  0.19351085459E+03  0.41800000000E+01 0. -1.
         -5    1    1    2    0  502 -0.11533972876E+03 -0.18148018509E+03  0.74070219788E+02  0.22746907585E+03  0.41800000000E+01 0. -1.
        -11    1    1    2    0    0  0.46777299349E+02  0.10185919357E+03  0.33379209334E+03  0.35210875114E+03  0.00000000000E+00 0.  1.
         11    1    1    2    0    0  0.59288954657E+02  0.24279873085E+03  0.43871394355E+03  0.50491219842E+03  0.00000000000E+00 0. -1.
</event>
<event>
 6    1  0.4988969E-006  0.1315687E+03  0.7561462E-02  0.1225146E+00
         -3   -1    0    0    0  501 -0.00000000000E+00  0.00000000000E+00  0.32531613993E+02  0.32531613993E+02  0.00000000000E+00 0.  1.
          3   -1    0    0  501    0  0.00000000000E+00 -0.00000000000E+00 -0.54318521915E+03  0.54318521915E+03  0.00000000000E+00 0. -1.
          5    1    1    2  502    0  0.79578198799E+01  0.53437085285E+02 -0.10209329357E+03  0.11558270621E+03  0.41800000000E+01 0.  1.
         -5    1    1    2    0  502 -0.81938882290E+02 -0.39564982642E+02 -0.21519680952E+03  0.23368035328E+03  0.41800000000E+01 0.  1.
        -11    1    1    2    0    0  0.94706753809E+02 -0.18810315499E+02 -0.15879973944E+03  0.18585089301E+03  0.00000000000E+00 0.  1.
         11    1    1    2    0    0 -0.20725691398E+02  0.49382128561E+01 -0.34563762626E+02  0.40602880650E+02  0.00000000000E+00 0. -1.
</event>
<event>
 6    1  0.4988969E-006  0.1479055E+03  0.7561462E-02  0.1203071E+00
         -1   -1    0    0    0  501 -0.00000000000E+00  0.00000000000E+00  0.71550916401E+02  0.71550916401E+02  0.00000000000E+00 0.  1.
          1   -1    0    0  501    0  0.00000000000E+00 -0.00000000000E+00 -0.48658731677E+03  0.48658731677E+03  0.00000000000E+00 0. -1.
          5    1    1    2  502    0  0.42143532999E+02  0.68361368284E+01 -0.17117095381E+02  0.46187417059E+02  0.41800000000E+01 0. -1.
         -5    1    1    2    0  502 -0.79542357109E+02  0.85147215728E+02 -0.32092257532E+02  0.12093146949E+03  0.41800000000E+01 0. -1.
        -11    1    1    2    0    0  0.40015473356E+02 -0.11054879011E+03 -0.33390762924E+03  0.35400081634E+03  0.00000000000E+00 0. -1.
         11    1    1    2    0    0 -0.26166492457E+01  0.18565437553E+02 -0.31919418216E+02  0.37018530279E+02  0.00000000000E+00 0.  1.
</event>
<event>
 6    1  0.4988969E-006  0.1070112E+03  0.7561462E-02  0.1266207E+00
         -1   -1    0    0    0  501 -0.00000000000E+00  0.00000000000E+00  0.13327240351E+03  0.13327240351E+03  0.00000000000E+00 0.  1.
          1   -1    0    0  501    0  0.00000000000E+00 -0.00000000000E+00 -0.10779309763E+03  0.10779309763E+03  0.00000000000E+00 0. -1.
          5    1    1    2  502    0 -0.42360009140E+02 -0.47210920317E+02  0.46908588212E+01  0.63739453465E+02  0.41800000000E+01 0. -1.
         -5    1    1    2    0  502  0.71191584687E+02  0.49386153918E+01 -0.63280681482E+00  0.71487792642E+02  0.41800000000E+01 0. -1.
        -11    1    1    2    0    0 -0.22481144261E+02 -0.11204271279E+02 -0.24482818559E+02  0.35076287529E+02  0.00000000000E+00 0. -1.
         11    1    1    2    0    0 -0.63504312860E+01  0.53476576204E+02  0.45904072430E+02  0.70761967509E+02  0.00000000000E+00 0.  1.
</event>
<event>
 6    1  0.4988969E-006  0.1710277E+03  0.7561462E-02  0.1176780E+00
          2   -1    0    0  501    0  0.00000000000E+00  0.00000000000E+00  0.20605084514E+03  0.20605084514E+03  0.00000000000E+00 0. -1.
         -2   -1    0    0    0  501 -0.00000000000E+00 -0.00000000000E+00 -0.24927550080E+03  0.24927550080E+03  0.00000000000E+00 0.  1.
          5    1    1    2  502    0 -0.39098541763E+02  0.10851727605E+03 -0.10426080003E+01  0.11542640340E+03  0.41800000000E+01 0. -1.
         -5    1    1    2    0  502 -0.72553659850E+00  0.40147611310E+02 -0.98555717419E+02  0.10650379774E+03  0.41800000000E+01 0. -1.
        -11    1    1    2    0    0 -0.15100460938E+02 -0.12590799007E+03  0.98466987408E+02  0.16055090624E+03  0.00000000000E+00 0.  1.
         11    1    1    2    0    0  0.54924539299E+02 -0.22756897290E+02 -0.42093317640E+02  0.72845238564E+02  0.00000000000E+00 0. -1.
</event>
<event>
 6    1  0.4988969E-006  0.1004439E+03  0.7561462E-02  0.1279365E+00
          1   -1    0    0  501    0  0.00000000000E+00  0.00000000000E+00  0.46705194278E+03  0.46705194278E+03  0.00000000000E+00 0. -1.
         -1   -1    0    0    0  501 -0.00000000000E+00 -0.00000000000E+00 -0.44706284874E+02  0.44706284874E+02  0.00000000000E+00 0.  1.
          5    1    1    2  502    0  0.46347797885E+02  0.26992425989E+02  0.40482199158E+00  0.53799123696E+02  0.41800000000E+01 0. -1.
         -5    1    1    2    0  502 -0.13660938157E+02  0.52153215927E+02  0.15126508831E+03  0.16063990321E+03  0.41800000000E+01 0. -1.
        -11    1    1    2    0    0 -0.30671369882E+02 -0.27092482044E+02  0.29160789099E+02  0.50250245120E+02  0.00000000000E+00 0.  1.
         11    1    1    2    0    0 -0.20154898460E+01 -0.52053159871E+02  0.24151495851E+03  0.24706895563E+03  0.00000000000E+00 0. -1.
</event>
<event>
 6    1  0.4988969E-006  0.1717356E+03  0.7561462E-02  0.1176050E+00
         -1   -1    0    0    0  501 -0.00000000000E+00  0.00000000000E+00  0.47151073716E+02  0.47151073716E+02  0.00000000000E+00 0.  1.
          1   -1    0    0  501    0  0.00000000000E+00 -0.00000000000E+00 -0.67058162002E+03  0.67058162002E+03  0.00000000000E+00 0. -1.
          5    1    1    2  502    0  0.18057869050E+02  0.37488272674E+00 -0.91085133696E+02  0.92952682328E+02  0.41800000000E+01 0. -1.
         -5    1    1    2    0  502 -0.15223775410E+03 -0.40042078917E+02 -0.22457261494E+03  0.27428093925E+03  0.41800000000E+01 0. -1.
        -11    1    1    2    0    0  0.22113685842E+02  0.50245471888E+02 -0.92142218064E+02  0.10725581987E+03  0.00000000000E+00 0. -1.
         11    1    1    2    0    0  0.11206619920E+03 -0.10578275698E+02 -0.21563057960E+03  0.24324325228E+03  0.00000000000E+00 0.  1.
</event>
<event>
 6    1  0.4988969E-006  0.1249471E+03  0.7561462E-02  0.1235152E+00
          1   -1    0    0  501    0  0.00000000000E+00  0.00000000000E+00  0.11068796331E+03  0.11068796331E+03  0.00000000000E+00 0. -1.
         -1   -1    0    0    0  501 -0.00000000000E+00 -0.00000000000E+00 -0.28524468388E+03  0.28524468388E+03  0.00000000000E+00 0.  1.
          5    1    1    2  502    0  0.54790739814E+02 -0.75063017102E+02 -0.20170232452E+03  0.22212109721E+03  0.41800000000E+01 0.  1.
         -5    1    1    2    0  502  0.54397975365E+01 -0.19963001764E+02  0.17449183990E+02  0.27387209763E+02  0.41800000000E+01 0.  1.
        -11    1    1    2    0    0 -0.72401741082E+02  0.47247671003E+02  0.32162238205E+02  0.92242962296E+02  0.00000000000E+00 0. -1.
         11    1    1    2    0    0  0.12171203731E+02  0.47778347863E+02 -0.22465818236E+02  0.54181377925E+02  0.00000000000E+00 0.  1.
</event>
<event>
 6    1  0.4988969E-006  0.1747541E+03  0.7561462E-02  0.1172979E+00
          1   -1    0    0  501    0  0.00000000000E+00  0.00000000000E+00  0.63678290491E+03  0.63678290491E+03  0.00000000000E+00 0. -1.
         -1   -1    0    0    0  501 -0.00000000000E+00 -0.00000000000E+00 -0.58947310889E+02  0.58947310889E+02  0.00000000000E+00 0.  1.
          5    1    1    2  502    0  0.39301920381E+02  0.59429414575E+02  0.23828208261E+02  0.75244615563E+02  0.41800000000E+01 0.  1.
         -5    1    1    2    0  502  0.99115814408E+02  0.89444205469E+01  0.20430675171E+03  0.22729423336E+03  0.41800000000E+01 0.  1.
        -11    1    1    2    0    0 -0.89260127127E+02  0.59080216771E+01  0.15238097291E+03  0.17669814917E+03  0.00000000000E+00 0. -1.
         11    1    1    2    0    0 -0.49157607663E+02 -0.74281856799E+02  0.19731966114E+03  0.21649321770E+03  0.00000000000E+00 0.  1.
</event>
<event>
 6    1  0.4988969E-006  0.1300385E+03  0.7561462E-02  0.1227399E+00
          2   -1    0    0  501    0  0.00000000000E+00  0.00000000000E+00  0.27813615261E+03  0.27813615261E+03  0.00000000000E+00 0. -1.
         -2   -1    0    0    0  501 -0.00000000000E+00 -0.00000000000E+00 -0.10351301505E+03  0.10351301505E+03  0.00000000000E+00 0.  1.
          5    1    1    2  502    0  0.27538870635E+02  0.89473852163E+01  0.69802272362E+02  0.75685366650E+02  0.41800000000E+01 0.  1.
         -5    1    1    2    0  502  0.70127231347E+02  0.55913338451E+02 -0.40056927799E+02  0.98316630627E+02  0.41800000000E+01 0.  1.
        -11    1    1    2    0    0 -0.63463778095E+02 -0.81258336781E+02  0.13220411386E+03  0.16765588612E+03  0.00000000000E+00 0. -1.
         11    1    1    2    0    0 -0.34202323888E+02  0.16397613114E+02  0.12673679130E+02  0.39991284273E+02  0.00000000000E+00 0.  1.
</event>
<event>
 6    1  0.4988969E-006  0.1653035E+03  0.7561462E-02  0.1182836E+00
         -2   -1    0    0    0  501 -0.00000000000E+00  0.00000000000E+00  0.34487419453E+03  0.34487419453E+03  0.00000000000E+00 0.  1.
          2   -1    0    0  501    0  0.00000000000E+00 -0.00000000000E+00 -0.10577262701E+03  0.10577262701E+03  0.00000000000E+00 0. -1.
          5    1    1    2  502    0  0.18389488330E+02  0.67315476458E+01 -0.57409742760E+01  0.20830703310E+02  0.41800000000E+01 0. -1.
         -5    1    1    2    0  502 -0.10862032258E+03  0.10355530210E+03  0.20657265667E+03  0.25536603132E+03  0.41800000000E+01 0. -1.
        -11    1    1    2    0    0  0.41099987527E+02 -0.10285362694E+03  0.52767232120E+02  0.12268846048E+03  0.00000000000E+00 0.  1.
         11    1    1    2    0    0  0.49130846719E+02 -0.74332228046E+01 -0.14497346984E+02  0.51761626425E+02  0.00000000000E+00 0. -1.
</event>
<event>
 6    1  0.4988969E-006  0.1846118E+03  0.7561462E-02  0.1163413E+00
          2   -1    0    0  501    0  0.00000000000E+00  0.00000000000E+00  0.12753156008E+04  0.12753156008E+04  0.00000000000E+00 0. -1.
         -2   -1    0    0    0  501 -0.00000000000E+00 -0.00000000000E+00 -0.31285082899E+02  0.31285082899E+02  0.00000000000E+00 0.  1.
          5    1    1    2  502    0 -0.57042536237E+02  0.35195020531E+02  0.96151228072E+02  0.11728201682E+03  0.41800000000E+01 0.  1.
         -5    1    1    2    0  502 -0.11051786810E+03 -0.37588228397E+02  0.53523194577E+03  0.54783006695E+03  0.41800000000E+01 0.  1.
        -11    1    1    2    0    0  0.10553960627E+03 -0.36937583466E+02  0.29547453402E+03  0.31592434825E+03  0.00000000000E+00 0.  1.
         11    1    1    2    0    0  0.62020798067E+02  0.39330791332E+02  0.31717281005E+03  0.32556425168E+03  0.00000000000E+00 0. -1.
</event>
<event>
 6    1  0.4988969E-006  0.1092569E+03  0.7561462E-02  0.1261952E+00
          2   -1    0    0  501    0  0.00000000000E+00  0.00000000000E+00  0.16993924696E+03  0.16993924696E+03  0.00000000000E+00 0. -1.
         -2   -1    0    0    0  501 -0.00000000000E+00 -0.00000000000E+00 -0.91236893642E+02  0.91236893642E+02  0.00000000000E+00 0.  1.
          5    1    1    2  502    0 -0.26982824021E+02 -0.22742331087E+02 -0.22073735350E+02  0.41833104208E+02  0.41800000000E+01 0. -1.
         -5    1    1    2    0  502  0.76124702194E+02  0.42878190593E+02  0.36673667091E+02  0.94846928103E+02  0.41800000000E+01 0. -1.
        -11    1    1    2    0    0 -0.64658069694E+02 -0.35424042497E+02  0.21744993496E+02  0.76865945031E+02  0.00000000000E+00 0.  1.
         11    1    1    2    0    0  0.15516191520E+02  0.15288182992E+02  0.42357428083E+02  0.47630163262E+02  0.00000000000E+00 0. -1.
</event>
<event>
 6    1  0.4988969E-006  0.1149141E+03  0.7561462E-02  0.1251731E+00
         -2   -1    0    0    0  501 -0.00000000000E+00  0.00000000000E+00  0.22145215162E+03  0.22145215162E+03  0.00000000000E+00 0.  1.
          2   -1    0    0  501    0  0.00000000000E+00 -0.00000000000E+00 -0.62145792465E+02  0.62145792465E+02  0.00000000000E+00 0. -1.
          5    1    1    2  502    0  0.78321725121E+02 -0.11223882115E+02  0.79292904526E+02  0.11209418033E+03  0.41800000000E+01 0. -1.
         -5    1    1    2    0  502 -0.45227682246E+02  0.18341126264E+02  0.30091141313E+02  0.57488166952E+02  0.41800000000E+01 0. -1.
        -11    1    1    2    0    0 -0.56685835925E+02  0.24840618055E+02  0.37642790547E+02  0.72438387476E+02  0.00000000000E+00 0. -1.
         11    1    1    2    0    0  0.23591793050E+02 -0.31957862205E+02  0.12279522770E+02  0.41577209328E+02  0.00000000000E+00 0.  1.
</event>
<event>
 6    1  0.4988969E-006  0.1371572E+03  0.7561462E-02  0.1217206E+00
         -2   -1    0    0    0  501 -0.00000000000E+00  0.00000000000E+00  0.10441164608E+04  0.10441164608E+04  0.00000000000E+00 0.  1.
          2   -1    0    0  501    0  0.00000000000E+00 -0.00000000000E+00 -0.25951030946E+02  0.25951030946E+02  0.00000000000E+00 0. -1.
          5    1    1    2  502    0  0.86133004964E+02 -0.62270568769E+02  0.16669212059E+03  0.19773784096E+03  0.41800000000E+01 0. -1.
         -5    1    1    2    0  502  0.25805063977E+02  0.25901161063E+02  0.26306050099E+03  0.26562204549E+03  0.41800000000E+01 0.  1.
        -11    1    1    2    0    0 -0.91322230730E+02  0.52169230109E+02  0.55229620353E+03  0.56222101956E+03  0.00000000000E+00 0.  1.
         11    1    1    2    0    0 -0.20615838211E+02 -0.15799822403E+02  0.36116604762E+02  0.44486585761E+02  0.00000000000E+00 0. -1.
</event>
<event>
 6    1  0.4988969E-006  0.1115414E+03  0.7561462E-02  0.1257742E+00
          2   -1    0    0  501    0  0.00000000000E+00  0.00000000000E+00  0.11445301126E+03  0.11445301126E+03  0.00000000000E+00 0. -1.
         -2   -1    0    0    0  501 -0.00000000000E+00 -0.00000000000E+00 -0.29940354241E+03  0.29940354241E+03  0.00000000000E+00 0.  1.
          5    1    1    2  502    0  0.90296996032E+01  0.38707878955E+02 -0.19758695430E+03  0.20158847258E+03  0.41800000000E+01 0. -1.
         -5    1    1    2    0  502  0.15790125212E+02  0.67945776135E+02 -0.20867092139E+02  0.72930545612E+02  0.41800000000E+01 0. -1.
        -11    1    1    2    0    0  0.65559786107E+01 -0.15377012396E+02 -0.22283331219E+02  0.27856421450E+02  0.00000000000E+00 0.  1.
         11    1    1    2    0    0 -0.31375803426E+02 -0.91276642695E+02  0.55786846509E+02  0.11148111403E+03  0.00000000000E+00 0. -1.
</event>
<event>
 6    1  0.4988969E-006  0.1352273E+03  0.7561462E-02  0.1219899E+00
         -2   -1    0    0    0  501 -0.00000000000E+00  0.00000000000E+00  0.18232511560E+02  0.18232511560E+02  0.00000000000E+00 0.  1.
          2   -1    0    0  501    0  0.00000000000E+00 -0.00000000000E+00 -0.12504465593E+04  0.12504465593E+04  0.00000000000E+00 0. -1.
          5    1    1    2  502    0 -0.74872642562E+02  0.27893455656E+01 -0.14030575353E+03  0.15911275852E+03  0.41800000000E+01 0. -1.
         -5    1    1    2    0  502 -0.32750612311E+01  0.60536014275E+02 -0.39807060096E+03  0.40268227029E+03  0.41800000000E+01 0. -1.
        -11    1    1    2    0    0  0.89679590888E+02 -0.22830207311E+02 -0.44662510765E+03  0.45611142736E+03  0.00000000000E+00 0.  1.
         11    1    1    2    0    0 -0.11531887096E+02 -0.40495152529E+02 -0.24721258564E+03  0.25077261473E+03  0.00000000000E+00 0. -1.
</event>
<event>
 6    1  0.4988969E-006  0.1989796E+03  0.7561462E-02  0.1150603E+00
          2   -1    0    0  501    0  0.00000000000E+00  0.00000000000E+00  0.71287118305E+03  0.71287118305E+03  0.00000000000E+00 0. -1.
         -2   -1    0    0    0  501 -0.00000000000E+00 -0.00000000000E+00 -0.74688640499E+02  0.74688640499E+02  0.00000000000E+00 0.  1.
          5    1    1    2  502    0  0.13859804360E+02 -0.27559225063E+01  0.97124287307E+02  0.98235883824E+02  0.41800000000E+01 0. -1.
         -5    1    1    2    0  502  0.13404649757E+03 -0.11673105679E+03  0.10714081985E+03  0.20758427399E+03  0.41800000000E+01 0. -1.
        -11    1    1    2    0    0 -0.13416130011E+02 -0.11512991118E+02  0.17124397700E+02  0.24612730559E+02  0.00000000000E+00 0.  1.
         11    1    1    2    0    0 -0.13449017192E+03  0.13099997042E+03  0.41679303770E+03  0.45712693518E+03  0.00000000000E+00 0. -1.
</event>
<event>
 6    1  0.4988969E-006  0.2670710E+03  0.7561462E-02  0.1102968E+00
          3   -1    0    0  501    0  0.00000000000E+00  0.00000000000E+00  0.49167172359E+03  0.49167172359E+03  0.00000000000E+00 0. -1.
         -3   -1    0    0    0  501 -0.00000000000E+00 -0.00000000000E+00 -0.17204838414E+03  0.17204838414E+03  0.00000000000E+00 0.  1.
          5    1    1    2  502    0  0.49524763454E+02 -0.23139087348E+02 -0.15512735527E+02  0.56975757319E+02  0.41800000000E+01 0.  1.
         -5    1    1    2    0  502  0.17497736858E+03  0.12557849087E+03  0.56472013596E+02  0.22269620025E+03  0.41800000000E+01 0.  1.
        -11    1    1    2    0    0 -0.13106540824E+03 -0.83984478517E+01  0.12852976355E+03  0.18376227927E+03  0.00000000000E+00 0.  1.
         11    1    1    2    0    0 -0.93436723796E+02 -0.94040955672E+02  0.15013429783E+03  0.20028587090E+03  0.00000000000E+00 0. -1.
</event>
<event>
 6    1  0.4988969E-006  0.8118786E+02  0.7561462E-02  0.1325714E+00
          2   -1    0    0  501    0  0.00000000000E+00  0.00000000000E+00  0.10107086547E+03  0.10107086547E+03  0.00000000000E+00 0. -1.
         -2   -1    0    0    0  501 -0.00000000000E+00 -0.00000000000E+00 -0.12672039502E+03  0.12672039502E+03  0.00000000000E+00 0.  1.
          5    1    1    2  502    0  0.39332820023E+02 -0.29280346418E+01  0.35610748134E+02  0.53303301028E+02  0.41800000000E+01 0. -1.
         -5    1    1    2    0  502 -0.29404891133E+02 -0.20879177824E+02 -0.70168413630E+02  0.79004217359E+02  0.41800000000E+01 0. -1.
        -11    1    1    2    0    0  0.28879518539E+02 -0.14118567748E+02  0.22873541342E+02  0.39453256391E+02  0.00000000000E+00 0. -1.
         11    1    1    2    0    0 -0.38807447429E+02  0.37925780214E+02 -0.13965405398E+02  0.56030485709E+02  0.00000000000E+00 0.  1.
</event>
<event>
 6    1  0.4988969E-006  0.1150146E+03  0.7561462E-02  0.1251556E+00
         -2   -1    0    0    0  501 -0.00000000000E+00  0.00000000000E+00  0.30140048526E+02  0.30140048526E+02  0.00000000000E+00 0.  1.
          2   -1    0    0  501    0  0.00000000000E+00 -0.00000000000E+00 -0.74558255023E+03  0.74558255023E+03  0.00000000000E+00 0. -1.
          5    1    1    2  502    0 -0.50219290180E+02 -0.73277623522E+01 -0.11966527645E+03  0.13004969818E+03  0.41800000000E+01 0. -1.
         -5    1    1    2    0  502  0.51343484426E+02 -0.50314649154E+02 -0.46226944146E+02  0.85569387503E+02  0.41800000000E+01 0. -1.
        -11    1    1    2    0    0 -0.45691730840E+02  0.28721359723E+02 -0.31701449656E+03  0.32157556157E+03  0.00000000000E+00 0.  1.
         11    1    1    2    0    0  0.44567536593E+02  0.28921051784E+02 -0.23253578455E+03  0.23852795151E+03  0.00000000000E+00 0. -1.
</event>
<event>
 6    1  0.4988969E-006  0.1361395E+03  0.7561462E-02  0.1218620E+00
          2   -1    0    0  501    0  0.00000000000E+00  0.00000000000E+00  0.67543316688E+03  0.67543316688E+03  0.00000000000E+00 0. -1.
         -2   -1    0    0    0  501 -0.00000000000E+00 -0.00000000000E+00 -0.35804106012E+02  0.35804106012E+02  0.00000000000E+00 0.  1.
          5    1    1    2  502    0 -0.12548697638E+03 -0.13878370447E+02  0.15686297378E+03  0.20140271932E+03  0.41800000000E+01 0. -1.
         -5    1    1    2    0  502  0.23423996638E+02  0.90410678164E+01  0.90530301240E+02  0.94040588941E+02  0.41800000000E+01 0. -1.
        -11    1    1    2    0    0  0.10392278993E+03 -0.11049592020E+02  0.38367087152E+03  0.39764981756E+03  0.00000000000E+00 0. -1.
         11    1    1    2    0    0 -0.18598101877E+01  0.15886894650E+02  0.85649143245E+01  0.18144147071E+02  0.00000000000E+00 0.  1.
</event>
<event>
 6    1  0.4988969E-006  0.1295431E+03  0.7561462E-02  0.1228135E+00
         -2   -1    0    0    0  501 -0.00000000000E+00  0.00000000000E+00  0.75882799865E+02  0.75882799865E+02  0.00000000000E+00 0.  1.
          2   -1    0    0  501    0  0.00000000000E+00 -0.00000000000E+00 -0.28192537874E+03  0.28192537874E+03  0.00000000000E+00 0. -1.
          5    1    1    2  502    0  0.62256971183E+01 -0.45174816787E+02  0.69816010263E+01  0.46322117063E+02  0.41800000000E+01 0.  1.
         -5    1    1    2    0  502  0.66094583226E+02  0.68128585160E+02 -0.43349599450E+02  0.10443494731E+03  0.41800000000E+01 0.  1.
        -11    1    1    2    0    0 -0.70567739144E+02  0.21516759678E+02 -0.97653864067E+02  0.12238894526E+03  0.00000000000E+00 0.  1.
         11    1    1    2    0    0 -0.17525412005E+01 -0.44470528051E+02 -0.72020716380E+02  0.84662168964E+02  0.00000000000E+00 0. -1.
</event>
<event>
 6    1  0.4988969E-006  0.1912773E+03  0.7561462E-02  0.1157314E+00
          1   -1    0    0  501    0  0.00000000000E+00  0.00000000000E+00  0.11274977105E+04  0.11274977105E+04  0.00000000000E+00 0. -1.
         -1   -1    0    0    0  501 -0.00000000000E+00 -0.00000000000E+00 -0.37346714962E+02  0.37346714962E+02  0.00000000000E+00 0.  1.
          5    1    1    2  502    0  0.57387371652E+02 -0.37501867010E+02  0.24299183460E+03  0.25251179088E+03  0.41800000000E+01 0. -1.
         -5    1    1    2    0  502 -0.38135600107E+02 -0.13493275981E+03  0.35043509547E+03  0.37746973681E+03  0.41800000000E+01 0.  1.
        -11    1    1    2    0    0 -0.15634238718E+02  0.11701926563E+03  0.43966894093E+03  0.45524357828E+03  0.00000000000E+00 0. -1.
         11    1    1    2    0    0 -0.36175328264E+01  0.55415361185E+02  0.57055124524E+02  0.79619319474E+02  0.00000000000E+00 0.  1.
</event>
<event>
 6    1  0.4988969E-006  0.7280453E+02  0.7561462E-02  0.1350808E+00
         -1   -1    0    0    0  501 -0.00000000000E+00  0.00000000000E+00  0.11490367899E+03  0.11490367899E+03  0.00000000000E+00 0.  1.
          1   -1    0    0  501    0  0.00000000000E+00 -0.00000000000E+00 -0.14696425851E+03  0.14696425851E+03  0.00000000000E+00 0. -1.
          5    1    1    2  502    0  0.89365755210E+01 -0.60600019034E+02 -0.30215022613E+02  0.68429852261E+02  0.41800000000E+01 0. -1.
         -5    1    1    2    0  502  0.17013581972E+02  0.19373423646E+02  0.65301025860E+02  0.70331272515E+02  0.41800000000E+01 0. -1.
        -11    1    1    2    0    0 -0.30450325430E+02  0.20089734204E+02 -0.86637726856E+02  0.94004869310E+02  0.00000000000E+00 0. -1.
         11    1    1    2    0    0  0.45001679367E+01  0.21136861184E+02  0.19491144089E+02  0.29101943407E+02  0.00000000000E+00 0.  1.
</event>
<event>
 6    1  0.4988969E-006  0.9373806E+02  0.7561462E-02  0.1294044E+00
          1   -1    0    0  501    0  0.00000000000E+00  0.00000000000E+00  0.29980560101E+02  0.29980560101E+02  0.00000000000E+00 0. -1.
         -1   -1    0    0    0  501 -0.00000000000E+00 -0.00000000000E+00 -0.77523978523E+03  0.77523978523E+03  0.00000000000E+00 0.  1.
          5    1    1    2  502    0  0.17303479177E+02 -0.48561427052E+02 -0.21569504153E+03  0.22180948115E+03  0.41800000000E+01 0. -1.
         -5    1    1    2    0  502 -0.44202959416E+02  0.59893407200E+02 -0.45656620901E+03  0.46261355088E+03  0.41800000000E+01 0. -1.
        -11    1    1    2    0    0 -0.84385395618E+01  0.14944342199E+02  0.14743231169E+02  0.22625321633E+02  0.00000000000E+00 0. -1.
         11    1    1    2    0    0  0.35338019800E+02 -0.26276322348E+02 -0.87741205758E+02  0.98171991665E+02  0.00000000000E+00 0.  1.
</event>
<event>
 6    1  0.4988969E-006  0.1341041E+03  0.7561462E-02  0.1221490E+00
          3   -1    0    0  501    0  0.00000000000E+00  0.00000000000E+00  0.16442836114E+03  0.16442836114E+03  0.00000000000E+00 0. -1.
         -3   -1    0    0    0  501 -0.00000000000E+00 -0.00000000000E+00 -0.12587710625E+03  0.12587710625E+03  0.00000000000E+00 0.  1.
          5    1    1    2  502    0 -0.11909692023E+02 -0.30801100060E+02 -0.23423846492E+02  0.40702549226E+02  0.41800000000E+01 0.  1.
         -5    1    1    2    0  502 -0.56401808758E+02  0.94800732248E+02  0.35672910321E+02  0.11601022281E+03  0.41800000000E+01 0.  1.
        -11    1    1    2    0    0 -0.15101250020E+02 -0.31645715722E+02  0.26784410225E+02  0.44123731787E+02  0.00000000000E+00 0.  1.
         11    1    1    2    0    0  0.83412750801E+02 -0.32353916465E+02 -0.48221916643E+00  0.89468963569E+02  0.00000000000E+00 0. -1.
</event>
<event>
 6    1  0.4988969E-006  0.7829543E+02  0.7561462E-02  0.1333960E+00
         -1   -1    0    0    0  501 -0.00000000000E+00  0.00000000000E+00  0.18470780414E+03  0.18470780414E+03  0.00000000000E+00 0.  1.
          1   -1    0    0  501    0  0.00000000000E+00 -0.00000000000E+00 -0.82374178320E+02  0.82374178320E+02  0.00000000000E+00 0. -1.
          5    1    1    2  502    0  0.26423076789E+02 -0.39745503846E+02 -0.33380480125E+02  0.58391890844E+02  0.41800000000E+01 0. -1.
         -5    1    1    2    0  502 -0.57199992320E+00  0.25284709304E+02  0.10371869451E+03  0.10683952312E+03  0.41800000000E+01 0.  1.
        -11    1    1    2    0    0 -0.50225371696E+02  0.25455038774E+02  0.45034476501E+02  0.72101671511E+02  0.00000000000E+00 0.  1.
         11    1    1    2    0    0  0.24374294830E+02 -0.10994244232E+02 -0.13039065062E+02  0.29748896994E+02  0.00000000000E+00 0. -1.
</event>
<event>
 6    1  0.4988969E-006  0.1552117E+03  0.7561462E-02  0.1194211E+00
         -1   -1    0    0    0  501 -0.00000000000E+00  0.00000000000E+00  0.25869550980E+02  0.25869550980E+02  0.00000000000E+00 0. -1.
          1   -1    0    0  501    0  0.00000000000E+00 -0.00000000000E+00 -0.99465790875E+03  0.99465790875E+03  0.00000000000E+00 0.  1.
          5    1    1    2  502    0  0.96792131175E+02  0.59264550893E+02 -0.37454753851E+03  0.39138770376E+03  0.41800000000E+01 0. -1.
         -5    1    1    2    0  502  0.25584080109E+02 -0.49710834685E+02 -0.10247525383E+03  0.11680908478E+03  0.41800000000E+01 0. -1.
        -11    1    1    2    0    0 -0.15874074444E+02  0.24308025250E+02 -0.14914939636E+03  0.15194870439E+03  0.00000000000E+00 0.  1.
         11    1    1    2    0    0 -0.10650213684E+03 -0.33861741459E+02 -0.34261616908E+03  0.36038196681E+03  0.00000000000E+00 0. -1.
</event>
<event>
 6    1  0.4988969E-006  0.1931694E+03  0.7561462E-02  0.1155633E+00
          1   -1    0    0  501    0  0.00000000000E+00  0.00000000000E+00  0.14798990291E+03  0.14798990291E+03  0.00000000000E+00 0. -1.
         -1   -1    0    0    0  501 -0.00000000000E+00 -0.00000000000E+00 -0.76932737431E+03  0.76932737431E+03  0.00000000000E+00 0.  1.
          5    1    1    2  502    0 -0.11141079854E+02  0.85267886450E+01 -0.13748721057E+03  0.13826436727E+03  0.41800000000E+01 0. -1.
         -5    1    1    2    0  502  0.78868913575E+02 -0.16750537158E+03 -0.54387644250E+03  0.57454104479E+03  0.41800000000E+01 0.  1.
        -11    1    1    2    0    0 -0.81143499982E+02  0.11658963088E+03  0.70873463248E+02  0.15874651937E+03  0.00000000000E+00 0. -1.
         11    1    1    2    0    0  0.13415666261E+02  0.42388952056E+02 -0.10847281577E+02  0.45765345790E+02  0.00000000000E+00 0.  1.
</event>
<event>
 6    1  0.4988969E-006  0.1160734E+03  0.7561462E-02  0.1249719E+00
          1   -1    0    0  501    0  0.00000000000E+00  0.00000000000E+00  0.25564979795E+03  0.25564979795E+03  0.00000000000E+00 0. -1.
         -1   -1    0    0    0  501 -0.00000000000E+00 -0.00000000000E+00 -0.93742093543E+02  0.93742093543E+02  0.00000000000E+00 0.  1.
          5    1    1    2  502    0 -0.35257437928E+02  0.46212025991E+02  0.14697209616E+00  0.58276344054E+02  0.41800000000E+01 0. -1.
         -5    1    1    2    0  502  0.63017116394E+02 -0.41532155229E+02 -0.21291415213E+02  0.78529444404E+02  0.41800000000E+01 0.  1.
        -11    1    1    2    0    0 -0.62743363716E+02  0.14799124229E+01  0.15532026144E+03  0.16752105373E+03  0.00000000000E+00 0. -1.
         11    1    1    2    0    0  0.34983685249E+02 -0.61597831850E+01  0.27731886085E+02  0.45065049299E+02  0.00000000000E+00 0.  1.
</event>
<event>
 6    1  0.4988969E-006  0.1968443E+03  0.7561462E-02  0.1152429E+00
          2   -1    0    0  501    0  0.00000000000E+00  0.00000000000E+00  0.14389236096E+04  0.14389236096E+04  0.00000000000E+00 0. -1.
         -2   -1    0    0    0  501 -0.00000000000E+00 -0.00000000000E+00 -0.33175806806E+02  0.33175806806E+02  0.00000000000E+00 0.  1.
          5    1    1    2  502    0  0.62260919889E+02 -0.77704770852E+02  0.21484618666E+03  0.23683498449E+03  0.41800000000E+01 0.  1.
         -5    1    1    2    0  502  0.87465471252E+02 -0.31509666200E+02  0.64176258766E+03  0.64847494866E+03  0.41800000000E+01 0.  1.
        -11    1    1    2    0    0 -0.99497796907E+02  0.11304205253E+03  0.46441776053E+03  0.48822348727E+03  0.00000000000E+00 0. -1.
         11    1    1    2    0    0 -0.50228594234E+02 -0.38276154767E+01  0.84721267905E+02  0.98565995933E+02  0.00000000000E+00 0.  1.
</event>
<event>
 6    1  0.4988969E-006  0.1549247E+03  0.7561462E-02  0.1194549E+00
         -1   -1    0    0    0  501 -0.00000000000E+00  0.00000000000E+00  0.36804678408E+02  0.36804678408E+02  0.00000000000E+00 0.  1.
          1   -1    0    0  501    0  0.00000000000E+00 -0.00000000000E+00 -0.68929718207E+03  0.68929718207E+03  0.00000000000E+00 0. -1.
          5    1    1    2  502    0  0.89455122549E+02  0.30438256444E+01 -0.25796621280E+03  0.27308519398E+03  0.41800000000E+01 0.  1.
         -5    1    1    2    0  502 -0.24585476965E+01  0.73281695836E+02 -0.10790937021E+03  0.13053028760E+03  0.41800000000E+01 0.  1.
        -11    1    1    2    0    0 -0.94124300007E+02 -0.90728545962E+02 -0.26558512874E+03  0.29601775877E+03  0.00000000000E+00 0. -1.
         11    1    1    2    0    0  0.71277251548E+01  0.14403024481E+02 -0.21031791910E+02  0.26468620120E+02  0.00000000000E+00 0.  1.
</event>
<event>
 6    1  0.4988969E-006  0.1710587E+03  0.7561462E-02  0.1176748E+00
         -2   -1    0    0    0  501 -0.00000000000E+00  0.00000000000E+00  0.13669274413E+03  0.13669274413E+03  0.00000000000E+00 0.  1.
          2   -1    0    0  501    0  0.00000000000E+00 -0.00000000000E+00 -0.28610153330E+03  0.28610153330E+03  0.00000000000E+00 0. -1.
          5    1    1    2  502    0  0.17561745492E+02  0.14422271107E+02  0.27085030049E+02  0.35601798569E+02  0.41800000000E+01 0. -1.
         -5    1    1    2    0  502  0.44903465020E+02 -0.14887718196E+03 -0.29855428463E+02  0.15839682916E+03  0.41800000000E+01 0. -1.
        -11    1    1    2    0    0 -0.32961356038E+02  0.84313896120E+01 -0.11151731951E+01  0.34040900897E+02  0.00000000000E+00 0.  1.
         11    1    1    2    0    0 -0.29503854474E+02  0.12602352124E+03 -0.14552321756E+03  0.19475474881E+03  0.00000000000E+00 0. -1.
</event>
<event>
 6    1  0.4988969E-006  0.1056556E+03  0.7561462E-02  0.1268833E+00
         -2   -1    0    0    0  501 -0.00000000000E+00  0.00000000000E+00  0.71967285341E+02  0.71967285341E+02  0.00000000000E+00 0.  1.
          2   -1    0    0  501    0  0.00000000000E+00 -0.00000000000E+00 -0.20100066184E+03  0.20100066184E+03  0.00000000000E+00 0. -1.
          5    1    1    2  502    0  0.46562407704E+02  0.26873297213E+02 -0.29554535059E+02  0.61491258378E+02  0.41800000000E+01 0.  1.
         -5    1    1    2    0  502 -0.74804268490E+02  0.70524946731E+01 -0.41050359302E+01  0.75364049689E+02  0.41800000000E+01 0.  1.
        -11    1    1    2    0    0  0.16725185574E+02  0.20527234303E+02 -0.70198388684E+02  0.75026081828E+02  0.00000000000E+00 0. -1.
         11    1    1    2    0    0  0.11516675212E+02 -0.54453026189E+02 -0.25175416831E+02  0.61086557291E+02  0.00000000000E+00 0.  1.
</event>
<event>
 6    1  0.4988969E-006  0.1904680E+03  0.7561462E-02  0.1158040E+00
         -2   -1    0    0    0  501 -0.00000000000E+00  0.00000000000E+00  0.14439687619E+03  0.14439687619E+03  0.00000000000E+00 0.  1.
          2   -1    0    0  501    0  0.00000000000E+00 -0.00000000000E+00 -0.37772689588E+03  0.37772689588E+03  0.00000000000E+00 0. -1.
          5    1    1    2  502    0 -0.16340251534E+03  0.83826675474E+02 -0.50868708322E+01  0.18376790306E+03  0.41800000000E+01 0. -1.
         -5    1    1    2    0  502  0.21377500726E+02  0.11101349174E+02  0.13947371623E+02  0.28146741658E+02  0.41800000000E+01 0. -1.
        -11    1    1    2    0    0  0.77400346838E+02 -0.67070849328E+02 -0.69615349330E+02  0.12383702751E+03  0.00000000000E+00 0.  1.
         11    1    1    2    0    0  0.64624667776E+02 -0.27857175319E+02 -0.17257517115E+03  0.18637209984E+03  0.00000000000E+00 0. -1.
</event>
<event>
 6    1  0.5447721E-006  0.1162994E+03  0.7561462E-02  0.1249330E+00
         -1   -1    0    0    0  501 -0.00000000000E+00  0.00000000000E+00  0.36135490168E+02  0.36135490168E+02  0.00000000000E+00 0.  1.
          1   -1    0    0  501    0  0.00000000000E+00 -0.00000000000E+00 -0.50908405213E+03  0.50908405213E+03  0.00000000000E+00 0. -1.
          5    1    1    2  502    0 -0.18286242380E+02 -0.43161153926E+02 -0.18153348370E+03  0.18753439677E+03  0.41800000000E+01 0. -1.
         -5    1    1    2    0  502  0.67124401531E+02 -0.24867077009E+02 -0.45673543508E+02  0.85015303190E+02  0.41800000000E+01 0. -1.
        -11    1    1    2    0    0 -0.50213176597E+01  0.69800290800E+02 -0.11342909451E+03  0.13327960724E+03  0.00000000000E+00 0.  1.
         11    1    1    2    0    0 -0.43816841491E+02 -0.17720598639E+01 -0.13231244025E+03  0.13939023509E+03  0.00000000000E+00 0. -1.
</event>
<event>
 6    1  0.4988969E-006  0.1630115E+03  0.7561462E-02  0.1185338E+00
         -1   -1    0    0    0  501 -0.00000000000E+00  0.00000000000E+00  0.27865378698E+03  0.27865378698E+03  0.00000000000E+00 0.  1.
          1   -1    0    0  501    0  0.00000000000E+00 -0.00000000000E+00 -0.11150632863E+03  0.11150632863E+03  0.00000000000E+00 0. -1.
          5    1    1    2  502    0  0.47633538173E+01 -0.65786817254E+02  0.26566134197E+02  0.71230799168E+02  0.41800000000E+01 0.  1.
         -5    1    1    2    0  502 -0.11915002129E+03 -0.12589423908E+02  0.74179701624E+02  0.14097986275E+03  0.41800000000E+01 0.  1.
        -11    1    1    2    0    0  0.32078449475E+02  0.33152597462E+02  0.70151824589E+02  0.83960705883E+02  0.00000000000E+00 0.  1.
         11    1    1    2    0    0  0.82308217997E+02  0.45223643700E+02 -0.37502020510E+01  0.93988747809E+02  0.00000000000E+00 0. -1.
</event>
<event>
 6    1  0.4988969E-006  0.1427376E+03  0.7561462E-02  0.1209692E+00
         -1   -1    0    0    0  501 -0.00000000000E+00  0.00000000000E+00  0.49113350449E+02  0.49113350449E+02  0.00000000000E+00 0.  1.
          1   -1    0    0  501    0  0.00000000000E+00 -0.00000000000E+00 -0.57188357248E+03  0.57188357248E+03  0.00000000000E+00 0. -1.
          5    1    1    2  502    0  0.14804223514E+01 -0.21159011113E+02  0.29684731860E+01  0.21821540612E+02  0.41800000000E+01 0. -1.
         -5    1    1    2    0  502 -0.12247098806E+03  0.40213422372E+02 -0.24518329779E+03  0.27703534823E+03  0.41800000000E+01 0. -1.
        -11    1    1    2    0    0  0.11084467934E+03  0.27033208025E+01 -0.27635505699E+03  0.29776831330E+03  0.00000000000E+00 0. -1.
         11    1    1    2    0    0  0.10145886364E+02 -0.21757732061E+02 -0.42003404445E+01  0.24371720793E+02  0.00000000000E+00 0.  1.
</event>
<event>
 6    1  0.4988969E-006  0.2083115E+03  0.7561462E-02  0.1142910E+00
         -2   -1    0    0    0  501 -0.00000000000E+00  0.00000000000E+00  0.24267863181E+03  0.24267863181E+03  0.00000000000E+00 0.  1.
          2   -1    0    0  501    0  0.00000000000E+00 -0.00000000000E+00 -0.21741523079E+03  0.21741523079E+03  0.00000000000E+00 0. -1.
          5    1    1    2  502    0 -0.19581808333E+03 -0.11658598299E+02  0.10177145615E+03  0.22103290786E+03  0.41800000000E+01 0.  1.
         -5    1    1    2    0  502 -0.13593179570E+00  0.22388795175E+02 -0.15077082008E+02  0.27314234910E+02  0.41800000000E+01 0.  1.
        -11    1    1    2    0    0  0.16261160904E+03 -0.13306010763E-02 -0.31413981714E+02  0.16561815614E+03  0.00000000000E+00 0.  1.
         11    1    1    2    0    0  0.33342406085E+02 -0.10728866275E+02 -0.30016991397E+02  0.46128563685E+02  0.00000000000E+00 0. -1.
</event>
<event>
 6    1  0.4988969E-006  0.1033116E+03  0.7561462E-02  0.1273482E+00
          2   -1    0    0  501    0  0.00000000000E+00  0.00000000000E+00  0.19553915459E+03  0.19553915459E+03  0.00000000000E+00 0. -1.
         -2   -1    0    0    0  501 -0.00000000000E+00 -0.00000000000E+00 -0.89520297453E+02  0.89520297453E+02  0.00000000000E+00 0.  1.
          5    1    1    2  502    0 -0.25264784543E+02 -0.25760251434E+02 -0.17474444537E+02  0.40307921105E+02  0.41800000000E+01 0.  1.
         -5    1    1    2    0  502 -0.70193138579E+01  0.92418907469E+02  0.62515463523E+02  0.11187573823E+03  0.41800000000E+01 0.  1.
        -11    1    1    2    0    0  0.21864139957E+02 -0.19733119560E+02 -0.22149211436E+02  0.36851379769E+02  0.00000000000E+00 0.  1.
         11    1    1    2    0    0  0.10419958444E+02 -0.46925536474E+02  0.83127049590E+02  0.96024412942E+02  0.00000000000E+00 0. -1.
</event>
<event>
 6    1  0.4988969E-006  0.8816892E+02  0.7561462E-02  0.1307347E+00
         -1   -1    0    0    0  501 -0.00000000000E+00  0.00000000000E+00  0.45125733889E+02  0.45125733889E+02  0.00000000000E+00 0.  1.
          1   -1    0    0  501    0  0.00000000000E+00 -0.00000000000E+00 -0.32391549219E+03  0.32391549219E+03  0.00000000000E+00 0. -1.
          5    1    1    2  502    0 -0.18341910796E+02  0.56910113518E+02 -0.82488892367E+01  0.60503746049E+02  0.41800000000E+01 0. -1.
         -5    1    1    2    0  502  0.31358691425E+02 -0.86271875243E+01 -0.12405548947E+03  0.12831614380E+03  0.41800000000E+01 0. -1.
        -11    1    1    2    0    0 -0.40267945823E+02 -0.34713179003E+02 -0.13907377129E+03  0.14888930827E+03  0.00000000000E+00 0.  1.
         11    1    1    2    0    0  0.27251165195E+02 -0.13569746991E+02 -0.74116082972E+01  0.31332027949E+02  0.00000000000E+00 0. -1.
</event>
<event>
 6    1  0.4988969E-006  0.1068359E+03  0.7561462E-02  0.1266544E+00
         -1   -1    0    0    0  501 -0.00000000000E+00  0.00000000000E+00  0.22447100827E+02  0.22447100827E+02  0.00000000000E+00 0.  1.
          1   -1    0    0  501    0  0.00000000000E+00 -0.00000000000E+00 -0.52661946137E+03  0.52661946137E+03  0.00000000000E+00 0. -1.
          5    1    1    2  502    0 -0.12217369719E+02 -0.61487759083E+02 -0.14617500828E+03  0.15910566956E+03  0.41800000000E+01 0. -1.
         -5    1    1    2    0  502 -0.27705056242E+01  0.62953544869E+02 -0.14223022078E+03  0.15562047621E+03  0.41800000000E+01 0. -1.
        -11    1    1    2    0    0  0.31928809412E+00 -0.43329527789E+02 -0.13989929836E+03  0.14645601252E+03  0.00000000000E+00 0. -1.
         11    1    1    2    0    0  0.14668587249E+02  0.41863742003E+02 -0.75867833122E+02  0.87884403901E+02  0.00000000000E+00 0.  1.
</event>
<event>
 6    1  0.4988969E-006  0.1238131E+03  0.7561462E-02  0.1236936E+00
         -1   -1    0    0    0  501 -0.00000000000E+00  0.00000000000E+00  0.10012604729E+03  0.10012604729E+03  0.00000000000E+00 0.  1.
          1   -1    0    0  501    0  0.00000000000E+00 -0.00000000000E+00 -0.21619297492E+03  0.21619297492E+03  0.00000000000E+00 0. -1.
          5    1    1    2  502    0 -0.92391372478E+02 -0.46508447562E+02 -0.11067123249E+02  0.10411126270E+03  0.41800000000E+01 0.  1.
         -5    1    1    2    0  502  0.97543629945E+01  0.43865598786E+02  0.81642090416E+01  0.45863548310E+02  0.41800000000E+01 0.  1.
        -11    1    1    2    0    0  0.31883963041E+02  0.27823823393E+02 -0.99410092693E+02  0.10804220831E+03  0.00000000000E+00 0. -1.
         11    1    1    2    0    0  0.50753046443E+02 -0.25180974617E+02 -0.13753920731E+02  0.58302002893E+02  0.00000000000E+00 0.  1.
</event>
<event>
 6    1  0.4988969E-006  0.1055040E+03  0.7561462E-02  0.1269130E+00
          1   -1    0    0  501    0  0.00000000000E+00  0.00000000000E+00  0.38257853675E+02  0.38257853675E+02  0.00000000000E+00 0. -1.
         -1   -1    0    0    0  501 -0.00000000000E+00 -0.00000000000E+00 -0.46121242987E+03  0.46121242987E+03  0.00000000000E+00 0.  1.
          5    1    1    2  502    0 -0.45483696813E+02  0.22655519124E+02 -0.23454403951E+03  0.24002170337E+03  0.41800000000E+01 0.  1.
         -5    1    1    2    0  502  0.50730906872E+02 -0.43937839452E+02 -0.13675032787E+03  0.15238859282E+03  0.41800000000E+01 0.  1.
        -11    1    1    2    0    0 -0.47751950550E+02  0.12784660085E+02 -0.19741071512E+02  0.53229749382E+02  0.00000000000E+00 0. -1.
         11    1    1    2    0    0  0.42504740491E+02  0.84976602425E+01 -0.31919137305E+02  0.53830237972E+02  0.00000000000E+00 0.  1.
</event>
<event>
 6    1  0.4988969E-006  0.1099190E+03  0.7561462E-02  0.1260720E+00
          3   -1    0    0  501    0  0.00000000000E+00  0.00000000000E+00  0.14877871237E+03  0.14877871237E+03  0.00000000000E+00 0. -1.
         -3   -1    0    0    0  501 -0.00000000000E+00 -0.00000000000E+00 -0.97953995223E+02  0.97953995223E+02  0.00000000000E+00 0.  1.
          5    1    1    2  502    0  0.57870171532E+02 -0.49173958532E+02 -0.86066942339E+01  0.76541377937E+02  0.41800000000E+01 0.  1.
         -5    1    1    2    0  502 -0.85788260050E+01  0.54162372279E+02  0.19840332682E+02  0.58465973244E+02  0.41800000000E+01 0.  1.
        -11    1    1    2    0    0 -0.10673015246E+02 -0.37072499497E+02  0.47183587256E+02  0.60947308223E+02  0.00000000000E+00 0.  1.
         11    1    1    2    0    0 -0.38618330281E+02  0.32084085750E+02 -0.75925085522E+01  0.50778048193E+02  0.00000000000E+00 0. -1.
</event>
<event>
 6    1  0.4988969E-006  0.1191152E+03  0.7561462E-02  0.1244564E+00
         -2   -1    0    0    0  501 -0.00000000000E+00  0.00000000000E+00  0.20040320508E+03  0.20040320508E+03  0.00000000000E+00 0.  1.
          2   -1    0    0  501    0  0.00000000000E+00 -0.00000000000E+00 -0.12353695165E+03  0.12353695165E+03  0.00000000000E+00 0. -1.
          5    1    1    2  502    0  0.58820966354E+01  0.10326740516E+02  0.76884833324E+02  0.77910144562E+02  0.41800000000E+01 0. -1.
         -5    1    1    2    0  502 -0.51245563683E+02 -0.99179051531E+02  0.34060641477E+02  0.11679123151E+03  0.41800000000E+01 0. -1.
        -11    1    1    2    0    0  0.65377763742E+01  0.70799350290E+02 -0.46134366104E+02  0.84756535189E+02  0.00000000000E+00 0. -1.
         11    1    1    2    0    0  0.38825690673E+02  0.18052960725E+02  0.12055144741E+02  0.44482245468E+02  0.00000000000E+00 0.  1.
</event>
<event>
 6    1  0.4988969E-006  0.1122284E+03  0.7561462E-02  0.1256498E+00
          1   -1    0    0  501    0  0.00000000000E+00  0.00000000000E+00  0.22717421151E+03  0.22717421151E+03  0.00000000000E+00 0. -1.
         -1   -1    0    0    0  501 -0.00000000000E+00 -0.00000000000E+00 -0.77929225219E+02  0.77929225219E+02  0.00000000000E+00 0.  1.
          5    1    1    2  502    0  0.38332925472E+02  0.44745103767E+02  0.56974934174E+02  0.82067977984E+02  0.41800000000E+01 0.  1.
         -5    1    1    2    0  502 -0.73499977697E+02  0.20681121211E+02  0.67763458976E+01  0.76768136357E+02  0.41800000000E+01 0.  1.
        -11    1    1    2    0    0  0.14964229602E+02  0.49030884275E+01 -0.15138651814E+02  0.21843699834E+02  0.00000000000E+00 0.  1.
         11    1    1    2    0    0  0.20202822624E+02 -0.70329313405E+02  0.10063235804E+03  0.12442362256E+03  0.00000000000E+00 0. -1.
</event>
<event>
 6    1  0.4988969E-006  0.9786348E+02  0.7561462E-02  0.1284854E+00
          1   -1    0    0  501    0  0.00000000000E+00  0.00000000000E+00  0.44982959137E+03  0.44982959137E+03  0.00000000000E+00 0. -1.
         -1   -1    0    0    0  501 -0.00000000000E+00 -0.00000000000E+00 -0.38578302606E+02  0.38578302606E+02  0.00000000000E+00 0.  1.
          5    1    1    2  502    0  0.10954983868E+02 -0.74441525161E+02  0.27473769102E+02  0.80211175833E+02  0.41800000000E+01 0.  1.
         -5    1    1    2    0  502  0.13644487519E+02  0.13139490204E+02  0.13012095063E+03  0.13155893142E+03  0.41800000000E+01 0.  1.
        -11    1    1    2    0    0  0.18619464409E+02  0.54023212182E+02  0.19633210851E+03  0.20447857771E+03  0.00000000000E+00 0.  1.
         11    1    1    2    0    0 -0.43218935796E+02  0.72788227756E+01  0.57324460525E+02  0.72159209023E+02  0.00000000000E+00 0. -1.
</event>
<event>
 6    1  0.4988969E-006  0.1196476E+03  0.7561462E-02  0.1243679E+00
          1   -1    0    0  501    0  0.00000000000E+00  0.00000000000E+00  0.15731750170E+03  0.15731750170E+03  0.00000000000E+00 0. -1.
         -1   -1    0    0    0  501 -0.00000000000E+00 -0.00000000000E+00 -0.14887805644E+03  0.14887805644E+03  0.00000000000E+00 0.  1.
          5    1    1    2  502    0  0.65318836860E+02  0.59772708487E+02 -0.46767604681E+02  0.10021980032E+03  0.41800000000E+01 0.  1.
         -5    1    1    2    0  502  0.29701188838E+02 -0.92405542595E+01  0.57049611757E+02  0.65112817962E+02  0.41800000000E+01 0.  1.
        -11    1    1    2    0    0 -0.94781503345E+02 -0.30977169128E+02  0.29440129163E+02  0.10397037842E+03  0.00000000000E+00 0. -1.
         11    1    1    2    0    0 -0.23852235267E+00 -0.19554985100E+02 -0.31282690971E+02  0.36892561439E+02  0.00000000000E+00 0.  1.
</event>
<event>
 6    1  0.4988969E-006  0.1327159E+03  0.7561462E-02  0.1223481E+00
         -4   -1    0    0    0  501 -0.00000000000E+00  0.00000000000E+00  0.56892732805E+03  0.56892732805E+03  0.00000000000E+00 0.  1.
          4   -1    0    0  501    0  0.00000000000E+00 -0.00000000000E+00 -0.56421195105E+02  0.56421195105E+02  0.00000000000E+00 0. -1.
          5    1    1    2  502    0 -0.17348381755E+02 -0.45280551275E+01  0.41101199622E+01  0.18863592417E+02  0.41800000000E+01 0.  1.
         -5    1    1    2    0  502  0.96795356133E+02 -0.77081176167E+02  0.41589456897E+03  0.43393157708E+03  0.41800000000E+01 0.  1.
        -11    1    1    2    0    0 -0.71922193809E+02  0.42825226415E+02  0.10197050450E+03  0.13192719874E+03  0.00000000000E+00 0.  1.
         11    1    1    2    0    0 -0.75247805693E+01  0.38784004879E+02 -0.94690604852E+01  0.40626154919E+02  0.00000000000E+00 0. -1.
</event>
<event>
 6    1  0.4988969E-006  0.1163169E+03  0.7561462E-02  0.1249300E+00
         -1   -1    0    0    0  501 -0.00000000000E+00  0.00000000000E+00  0.90656408392E+02  0.90656408392E+02  0.00000000000E+00 0.  1.
          1   -1    0    0  501    0  0.00000000000E+00 -0.00000000000E+00 -0.21691777850E+03  0.21691777850E+03  0.00000000000E+00 0. -1.
          5    1    1    2  502    0 -0.43964523773E+01 -0.48318522478E+02 -0.35542014039E+02  0.60288602322E+02  0.41800000000E+01 0. -1.
         -5    1    1    2    0  502  0.68100548136E+02  0.33422977786E+02  0.28270451462E+02  0.81064609580E+02  0.41800000000E+01 0. -1.
        -11    1    1    2    0    0 -0.43590754616E+02  0.50718787869E+02 -0.42046931767E+02  0.78996796150E+02  0.00000000000E+00 0.  1.
         11    1    1    2    0    0 -0.20113341142E+02 -0.35823243176E+02 -0.76942875764E+02  0.87224178841E+02  0.00000000000E+00 0. -1.
</event>
<event>
 6    1  0.4988969E-006  0.1066510E+03  0.7561462E-02  0.1266901E+00
         -2   -1    0    0    0  501 -0.00000000000E+00  0.00000000000E+00  0.12350044532E+03  0.12350044532E+03  0.00000000000E+00 0.  1.
          2   -1    0    0  501    0  0.00000000000E+00 -0.00000000000E+00 -0.10633657077E+03  0.10633657077E+03  0.00000000000E+00 0. -1.
          5    1    1    2  502    0 -0.65208216997E+02  0.30867693600E+02 -0.29211160619E+01  0.72325178127E+02  0.41800000000E+01 0.  1.
         -5    1    1    2    0  502  0.40012583882E+02 -0.24727743948E+02  0.36673922539E+02  0.59790611169E+02  0.41800000000E+01 0.  1.
        -11    1    1    2    0    0  0.59363840955E+02 -0.20246871982E+01 -0.21050357534E+02  0.63018112662E+02  0.00000000000E+00 0. -1.
         11    1    1    2    0    0 -0.34168207840E+02 -0.41152624537E+01  0.44614256075E+01  0.34703114133E+02  0.00000000000E+00 0.  1.
</event>
<event>
 6    1  0.4988969E-006  0.1238588E+03  0.7561462E-02  0.1236864E+00
          4   -1    0    0  501    0  0.00000000000E+00  0.00000000000E+00  0.81779019343E+03  0.81779019343E+03  0.00000000000E+00 0.  1.
         -4   -1    0    0    0  501 -0.00000000000E+00 -0.00000000000E+00 -0.20516254011E+02  0.20516254011E+02  0.00000000000E+00 0. -1.
          5    1    1    2  502    0  0.21260638623E+01 -0.91842500406E+02  0.41390314673E+03  0.42399628808E+03  0.41800000000E+01 0. -1.
         -5    1    1    2    0  502 -0.24367953399E+02  0.31013897535E+02  0.75617735621E+02  0.85388367672E+02  0.41800000000E+01 0. -1.
        -11    1    1    2    0    0 -0.34543992232E+02  0.24182318082E+01  0.91409349440E+02  0.97748679835E+02  0.00000000000E+00 0.  1.
         11    1    1    2    0    0  0.56785881769E+02  0.58410371063E+02  0.21634370762E+03  0.23117311185E+03  0.00000000000E+00 0. -1.
</event>
<event>
 6    1  0.4988969E-006  0.1121062E+03  0.7561462E-02  0.1256718E+00
          2   -1    0    0  501    0  0.00000000000E+00  0.00000000000E+00  0.42447888257E+03  0.42447888257E+03  0.00000000000E+00 0.  1.
         -2   -1    0    0    0  501 -0.00000000000E+00 -0.00000000000E+00 -0.38291248247E+02  0.38291248247E+02  0.00000000000E+00 0. -1.
          5    1    1    2  502    0 -0.17346966999E+02  0.22901697774E+02  0.37737381496E+01  0.29276586628E+02  0.41800000000E+01 0. -1.
         -5    1    1    2    0  502  0.38716592399E+02 -0.82816263471E+02  0.13151565842E+03  0.16022280996E+03  0.41800000000E+01 0.  1.
        -11    1    1    2    0    0  0.29869865047E+01 -0.19948337982E+02  0.87275622612E+02  0.89576183101E+02  0.00000000000E+00 0. -1.
         11    1    1    2    0    0 -0.24356611905E+02  0.79862903679E+02  0.16362261515E+03  0.18369455113E+03  0.00000000000E+00 0.  1.
</event>
<event>
 6    1  0.8219739E-006  0.3345973E+03  0.7561462E-02  0.1069121E+00
          1   -1    0    0  501    0  0.00000000000E+00  0.00000000000E+00  0.21068499315E+04  0.21068499315E+04  0.00000000000E+00 0. -1.
         -1   -1    0    0    0  501 -0.00000000000E+00 -0.00000000000E+00 -0.84581557361E+02  0.84581557361E+02  0.00000000000E+00 0.  1.
          5    1    1    2  502    0  0.98716678470E+01  0.10953508892E+03  0.66645172002E+02  0.12866404658E+03  0.41800000000E+01 0. -1.
         -5    1    1    2    0  502  0.13343618341E+03  0.18633181136E+03  0.32559982482E+03  0.39819276399E+03  0.41800000000E+01 0. -1.
        -11    1    1    2    0    0 -0.31163035008E+02 -0.93443335619E+02  0.34092151162E+03  0.35486655071E+03  0.00000000000E+00 0. -1.
         11    1    1    2    0    0 -0.11214481625E+03 -0.20242356466E+03  0.12891018657E+04  0.13097081276E+04  0.00000000000E+00 0.  1.
</event>
<event>
 6    1  0.4988969E-006  0.1186506E+03  0.7561462E-02  0.1245340E+00
         -1   -1    0    0    0  501 -0.00000000000E+00  0.00000000000E+00  0.28132932214E+02  0.28132932214E+02  0.00000000000E+00 0.  1.
          1   -1    0    0  501    0  0.00000000000E+00 -0.00000000000E+00 -0.66350638825E+03  0.66350638825E+03  0.00000000000E+00 0. -1.
          5    1    1    2  502    0  0.52886773961E+02  0.15253252183E+02 -0.21227657361E+03  0.21933647364E+03  0.41800000000E+01 0. -1.
         -5    1    1    2    0  502  0.30163941490E+01 -0.72013839844E+02 -0.75845842784E+02  0.10471464095E+03  0.41800000000E+01 0. -1.
        -11    1    1    2    0    0 -0.73655856797E+02  0.55270726864E+02 -0.33066191840E+03  0.34324530990E+03  0.00000000000E+00 0. -1.
         11    1    1    2    0    0  0.17752688687E+02  0.14898607978E+01 -0.16589121235E+02  0.24342895969E+02  0.00000000000E+00 0.  1.
</event>
<event>
 6    1  0.4988969E-006  0.7141250E+02  0.7561462E-02  0.1355355E+00
          2   -1    0    0  501    0  0.00000000000E+00  0.00000000000E+00  0.40472954076E+02  0.40472954076E+02  0.00000000000E+00 0. -1.
         -2   -1    0    0    0  501 -0.00000000000E+00 -0.00000000000E+00 -0.66371426807E+03  0.66371426807E+03  0.00000000000E+00 0.  1.
          5    1    1    2  502    0 -0.24270667660E+02 -0.44595065576E+02 -0.10668820874E+03  0.11822703357E+03  0.41800000000E+01 0. -1.
         -5    1    1    2    0  502  0.47208909971E+02  0.28911051428E+02 -0.53981948744E+03  0.54266663938E+03  0.41800000000E+01 0.  1.
        -11    1    1    2    0    0 -0.18155669351E+02 -0.17948686100E+01  0.97460902934E+01  0.20684200708E+02  0.00000000000E+00 0.  1.
         11    1    1    2    0    0 -0.47825729600E+01  0.17478882758E+02  0.13520291888E+02  0.22609348494E+02  0.00000000000E+00 0. -1.
</event>
<event>
 6    1  0.4988969E-006  0.1328096E+03  0.7561462E-02  0.1223345E+00
          2   -1    0    0  501    0  0.00000000000E+00  0.00000000000E+00  0.24049628993E+03  0.24049628993E+03  0.00000000000E+00 0. -1.
         -2   -1    0    0    0  501 -0.00000000000E+00 -0.00000000000E+00 -0.11328183436E+03  0.11328183436E+03  0.00000000000E+00 0.  1.
          5    1    1    2  502    0 -0.37044455381E+02  0.10688060999E+03 -0.37136144400E+02  0.11913153271E+03  0.41800000000E+01 0.  1.
         -5    1    1    2    0  502  0.97317603736E+01 -0.30845090302E+02  0.55827566701E+01  0.33087253252E+02  0.41800000000E+01 0.  1.
        -11    1    1    2    0    0 -0.28289683300E+02 -0.52079881703E+02  0.10507338908E+03  0.12063597039E+03  0.00000000000E+00 0.  1.
         11    1    1    2    0    0  0.55602378307E+02 -0.23955637983E+02  0.53694454220E+02  0.80923367939E+02  0.00000000000E+00 0. -1.
</event>
<event>
 6    1  0.4988969E-006  0.1031353E+03  0.7561462E-02  0.1273838E+00
         -2   -1    0    0    0  501 -0.00000000000E+00  0.00000000000E+00  0.16274319416E+03  0.16274319416E+03  0.00000000000E+00 0.  1.
          2   -1    0    0  501    0  0.00000000000E+00 -0.00000000000E+00 -0.10280475769E+03  0.10280475769E+03  0.00000000000E+00 0. -1.
          5    1    1    2  502    0  0.81231688667E+02 -0.76901841052E+00  0.59886033623E+02  0.10100984138E+03  0.41800000000E+01 0. -1.
         -5    1    1    2    0  502 -0.36689582000E+02 -0.40265396883E+02  0.14034243889E+02  0.56407978292E+02  0.41800000000E+01 0. -1.
        -11    1    1    2    0    0 -0.65523245065E+01  0.30037938105E+02 -0.47302269426E+02  0.56415559688E+02  0.00000000000E+00 0. -1.
         11    1    1    2    0    0 -0.37989782160E+02  0.10996477188E+02  0.33320428388E+02  0.51714572483E+02  0.00000000000E+00 0.  1.
</event>
<event>
 6    1  0.4988969E-006  0.8697936E+02  0.7561462E-02  0.1310336E+00
         -2   -1    0    0    0  501 -0.00000000000E+00  0.00000000000E+00  0.52892104562E+02  0.52892104562E+02  0.00000000000E+00 0.  1.
          2   -1    0    0  501    0  0.00000000000E+00 -0.00000000000E+00 -0.24676155700E+03  0.24676155700E+03  0.00000000000E+00 0. -1.
          5    1    1    2  502    0 -0.27758139537E+00 -0.53946672022E+02  0.57097522834E+01  0.54409504177E+02  0.41800000000E+01 0. -1.
         -5    1    1    2    0  502  0.12684513899E+02  0.48654361037E+02 -0.71686104795E+02  0.87661358428E+02  0.41800000000E+01 0. -1.
        -11    1    1    2    0    0  0.27642349165E+02 -0.48913743067E+01 -0.10824509252E+03  0.11182586939E+03  0.00000000000E+00 0. -1.
         11    1    1    2    0    0 -0.40049281668E+02  0.10183685291E+02 -0.19648007402E+02  0.45756929564E+02  0.00000000000E+00 0.  1.
</event>
<event>
 6    1  0.4988969E-006  0.1407052E+03  0.7561462E-02  0.1212383E+00
         -1   -1    0    0    0  501 -0.00000000000E+00  0.00000000000E+00  0.14833449798E+03  0.14833449798E+03  0.00000000000E+00 0.  1.
          1   -1    0    0  501    0  0.00000000000E+00 -0.00000000000E+00 -0.16050261299E+03  0.16050261299E+03  0.00000000000E+00 0. -1.
          5    1    1    2  502    0  0.15092740861E+02 -0.27919259866E+02 -0.23921789539E+01  0.32100947312E+02  0.41800000000E+01 0.  1.
         -5    1    1    2    0  502  0.14363007633E+02  0.13245720629E+03  0.12120774832E+02  0.13384914295E+03  0.41800000000E+01 0.  1.
        -11    1    1    2    0    0  0.40254952737E+01 -0.61212442583E+02  0.29248761929E+02  0.67960707865E+02  0.00000000000E+00 0.  1.
         11    1    1    2    0    0 -0.33481243767E+02 -0.43325503842E+02 -0.51145472813E+02  0.74926312846E+02  0.00000000000E+00 0. -1.
</event>
<event>
 6    1  0.5308519E-006  0.2202552E+03  0.7561462E-02  0.1133693E+00
          1   -1    0    0  501    0  0.00000000000E+00  0.00000000000E+00  0.51618794743E+03  0.51618794743E+03  0.00000000000E+00 0. -1.
         -1   -1    0    0    0  501 -0.00000000000E+00 -0.00000000000E+00 -0.11178405561E+03  0.11178405561E+03  0.00000000000E+00 0.  1.
          5    1    1    2  502    0  0.26647288307E+01  0.26285201559E+02 -0.45405719179E+01  0.27131195957E+02  0.41800000000E+01 0.  1.
         -5    1    1    2    0  502  0.19626265488E+03 -0.54549818967E+02  0.11642919141E+03  0.23466559497E+03  0.41800000000E+01 0.  1.
        -11    1    1    2    0    0 -0.80444474659E+02  0.41985330040E+02  0.73447925593E+02  0.11674193426E+03  0.00000000000E+00 0.  1.
         11    1    1    2    0    0 -0.11848290905E+03 -0.13720712632E+02  0.21906734674E+03  0.24943327786E+03  0.00000000000E+00 0. -1.
</event>
<event>
 6    1  0.4988969E-006  0.2286333E+03  0.7561462E-02  0.1127605E+00
         -2   -1    0    0    0  501 -0.00000000000E+00  0.00000000000E+00  0.95320567709E+03  0.95320567709E+03  0.00000000000E+00 0.  1.
          2   -1    0    0  501    0  0.00000000000E+00 -0.00000000000E+00 -0.70892831927E+02  0.70892831927E+02  0.00000000000E+00 0. -1.
          5    1    1    2  502    0  0.35632970123E+02 -0.37221839076E+02  0.16899947601E+03  0.17672993282E+03  0.41800000000E+01 0. -1.
         -5    1    1    2    0  502  0.15712067022E+03  0.99153596537E+02  0.51840745743E+03  0.55071054560E+03  0.41800000000E+01 0. -1.
        -11    1    1    2    0    0 -0.15307521933E+03 -0.86788825713E+01  0.10919886336E+03  0.18823319987E+03  0.00000000000E+00 0. -1.
         11    1    1    2    0    0 -0.39678421010E+02 -0.53252874890E+02  0.85707048365E+02  0.10842483072E+03  0.00000000000E+00 0.  1.
</event>
<event>
 6    1  0.4988969E-006  0.8677177E+02  0.7561462E-02  0.1310863E+00
          2   -1    0    0  501    0  0.00000000000E+00  0.00000000000E+00  0.25252339560E+03  0.25252339560E+03  0.00000000000E+00 0. -1.
         -2   -1    0    0    0  501 -0.00000000000E+00 -0.00000000000E+00 -0.64594878381E+02  0.64594878381E+02  0.00000000000E+00 0.  1.
          5    1    1    2  502    0 -0.62266075129E+02  0.39009748892E+02  0.68289527818E+02  0.10039799117E+03  0.41800000000E+01 0. -1.
         -5    1    1    2    0  502  0.22881188756E+02 -0.44433372209E+02 -0.28252144471E+02  0.57563264605E+02  0.41800000000E+01 0.  1.
        -11    1    1    2    0    0  0.35872762628E+02 -0.72891408346E+01  0.13771935565E+03  0.14250125471E+03  0.00000000000E+00 0. -1.
         11    1    1    2    0    0  0.35121237455E+01  0.12712764151E+02  0.10171778215E+02  0.16655763496E+02  0.00000000000E+00 0.  1.
</event>
<event>
 6    1  0.4988969E-006  0.1951482E+03  0.7561462E-02  0.1153898E+00
          1   -1    0    0  501    0  0.00000000000E+00  0.00000000000E+00  0.33683133125E+02  0.33683133125E+02  0.00000000000E+00 0. -1.
         -1   -1    0    0    0  501 -0.00000000000E+00 -0.00000000000E+00 -0.14131094433E+04  0.14131094433E+04  0.00000000000E+00 0.  1.
          5    1    1    2  502    0 -0.13929369495E+03  0.97698378666E+01 -0.70108998834E+03  0.71487259518E+03  0.41800000000E+01 0. -1.
         -5    1    1    2    0  502 -0.19444643296E+02  0.70007111498E+02 -0.23028764904E+03  0.24151389922E+03  0.41800000000E+01 0. -1.
        -11    1    1    2    0    0  0.69113897166E+02 -0.38967460202E+02 -0.94464552773E+02  0.12336427954E+03  0.00000000000E+00 0. -1.
         11    1    1    2    0    0  0.89624441085E+02 -0.40809489162E+02 -0.35358412002E+03  0.36704180249E+03  0.00000000000E+00 0.  1.
</event>
<event>
 6    1  0.4988969E-006  0.1283118E+03  0.7561462E-02  0.1229982E+00
         -1   -1    0    0    0  501 -0.00000000000E+00  0.00000000000E+00  0.14691529457E+03  0.14691529457E+03  0.00000000000E+00 0.  1.
          1   -1    0    0  501    0  0.00000000000E+00 -0.00000000000E+00 -0.11881263328E+03  0.11881263328E+03  0.00000000000E+00 0. -1.
          5    1    1    2  502    0  0.95607162208E+02  0.41341356361E+02  0.54756219645E+01  0.10439009554E+03  0.41800000000E+01 0.  1.
         -5    1    1    2    0  502 -0.35922658362E+02  0.44982778097E+00  0.23819865370E+02  0.43307021544E+02  0.41800000000E+01 0.  1.
        -11    1    1    2    0    0 -0.47688230808E+02 -0.70489056885E+02 -0.10033565590E+02  0.85694497703E+02  0.00000000000E+00 0. -1.
         11    1    1    2    0    0 -0.11996273038E+02  0.28697872743E+02  0.88407395386E+01  0.32336313061E+02  0.00000000000E+00 0.  1.
</event>
<event>
 6    1  0.4988969E-006  0.8765553E+02  0.7561462E-02  0.1308631E+00
         -1   -1    0    0    0  501 -0.00000000000E+00  0.00000000000E+00  0.74615656072E+02  0.74615656072E+02  0.00000000000E+00 0.  1.
          1   -1    0    0  501    0  0.00000000000E+00 -0.00000000000E+00 -0.17799717454E+03  0.17799717454E+03  0.00000000000E+00 0. -1.
          5    1    1    2  502    0 -0.43968684226E+02 -0.40547005046E+02  0.20954009385E+02  0.63512579227E+02  0.41800000000E+01 0.  1.
         -5    1    1    2    0  502  0.74406676518E+01  0.57892263576E+02 -0.36258359914E+02  0.68840531526E+02  0.41800000000E+01 0.  1.
        -11    1    1    2    0    0  0.39825948462E+02 -0.66292519156E+00 -0.10990863460E+02  0.41320028077E+02  0.00000000000E+00 0.  1.
         11    1    1    2    0    0 -0.32979318881E+01 -0.16682333338E+02 -0.77086304476E+02  0.78939691779E+02  0.00000000000E+00 0. -1.
</event>
<event>
 6    1  0.4988969E-006  0.9115577E+02  0.7561462E-02  0.1300077E+00
         -3   -1    0    0    0  501 -0.00000000000E+00  0.00000000000E+00  0.47168677757E+03  0.47168677757E+03  0.00000000000E+00 0.  1.
          3   -1    0    0  501    0  0.00000000000E+00 -0.00000000000E+00 -0.23577088407E+02  0.23577088407E+02  0.00000000000E+00 0. -1.
          5    1    1    2  502    0 -0.40562440877E+02  0.38214062676E+02  0.13978265936E+03  0.15053999619E+03  0.41800000000E+01 0. -1.
         -5    1    1    2    0  502  0.51480763136E+02 -0.21748446781E+02  0.16078346124E+03  0.17027054272E+03  0.41800000000E+01 0.  1.
        -11    1    1    2    0    0  0.28164016038E+02 -0.50422041066E+00  0.12178303130E+03  0.12499829099E+03  0.00000000000E+00 0.  1.
         11    1    1    2    0    0 -0.39082338296E+02 -0.15961395484E+02  0.25760537256E+02  0.49455036065E+02  0.00000000000E+00 0. -1.
</event>
<event>
 6    1  0.4988969E-006  0.3571498E+03  0.7561462E-02  0.1059718E+00
          1   -1    0    0  501    0  0.00000000000E+00  0.00000000000E+00  0.19134085297E+04  0.19134085297E+04  0.00000000000E+00 0. -1.
         -1   -1    0    0    0  501 -0.00000000000E+00 -0.00000000000E+00 -0.74339652599E+02  0.74339652599E+02  0.00000000000E+00 0.  1.
          5    1    1    2  502    0  0.46906467614E+02 -0.18659494798E+03  0.27743997343E+03  0.33765115515E+03  0.41800000000E+01 0. -1.
         -5    1    1    2    0  502  0.12557634256E+03 -0.11112017022E+03  0.36718211291E+03  0.40367968301E+03  0.41800000000E+01 0. -1.
        -11    1    1    2    0    0 -0.10090446689E+03  0.24577537243E+03  0.95055828711E+03  0.98698951480E+03  0.00000000000E+00 0. -1.
         11    1    1    2    0    0 -0.71578343286E+02  0.51939745779E+02  0.24388850364E+03  0.25942782933E+03  0.00000000000E+00 0.  1.
</event>
<event>
 6    1  0.4988969E-006  0.2019421E+03  0.7561462E-02  0.1148111E+00
          2   -1    0    0  501    0  0.00000000000E+00  0.00000000000E+00  0.17067651399E+03  0.17067651399E+03  0.00000000000E+00 0. -1.
         -2   -1    0    0    0  501 -0.00000000000E+00 -0.00000000000E+00 -0.25333979360E+03  0.25333979360E+03  0.00000000000E+00 0.  1.
          5    1    1    2  502    0 -0.11109505486E+03  0.84898537428E+01  0.34212250032E+01  0.11154983645E+03  0.41800000000E+01 0. -1.
         -5    1    1    2    0  502  0.17824783401E+03 -0.17255562929E+02 -0.83980741670E+02  0.19783903092E+03  0.41800000000E+01 0.  1.
        -11    1    1    2    0    0 -0.17667264387E+01 -0.34698073225E+02  0.74547990571E+01  0.35533809771E+02  0.00000000000E+00 0.  1.
         11    1    1    2    0    0 -0.65386052713E+02  0.43463782411E+02 -0.95585620055E+01  0.79093630454E+02  0.00000000000E+00 0. -1.
</event>
<event>
 6    1  0.4988969E-006  0.1102608E+03  0.7561462E-02  0.1260088E+00
          3   -1    0    0  501    0  0.00000000000E+00  0.00000000000E+00  0.15817750293E+02  0.15817750293E+02  0.00000000000E+00 0. -1.
         -3   -1    0    0    0  501 -0.00000000000E+00 -0.00000000000E+00 -0.92110562318E+03  0.92110562318E+03  0.00000000000E+00 0.  1.
          5    1    1    2  502    0  0.56598656928E+01 -0.63427244540E+02 -0.16547757344E+03  0.17735655934E+03  0.41800000000E+01 0.  1.
         -5    1    1    2    0  502  0.35014953944E+02  0.45619311530E+02 -0.36217980975E+03  0.36674085616E+03  0.41800000000E+01 0.  1.
        -11    1    1    2    0    0 -0.62328180067E+02  0.34922794085E+02 -0.33114103038E+03  0.33876066121E+03  0.00000000000E+00 0.  1.
         11    1    1    2    0    0  0.21653360430E+02 -0.17114861076E+02 -0.46489459314E+02  0.54065296771E+02  0.00000000000E+00 0. -1.
</event>
<event>
 6    1  0.4988969E-006  0.1080443E+03  0.7561462E-02  0.1264235E+00
          1   -1    0    0  501    0  0.00000000000E+00  0.00000000000E+00  0.20576468420E+03  0.20576468420E+03  0.00000000000E+00 0. -1.
         -1   -1    0    0    0  501 -0.00000000000E+00 -0.00000000000E+00 -0.10446957581E+03  0.10446957581E+03  0.00000000000E+00 0.  1.
          5    1    1    2  502    0 -0.43166995272E+02 -0.79242350694E+02 -0.41006331515E+02  0.99205500093E+02  0.41800000000E+01 0. -1.
         -5    1    1    2    0  502 -0.13371733575E+02  0.12688539123E+02  0.50178663531E+02  0.53620639288E+02  0.41800000000E+01 0. -1.
        -11    1    1    2    0    0  0.94327378137E+01  0.58264712514E+02  0.92323221732E+02  0.10957796557E+03  0.00000000000E+00 0. -1.
         11    1    1    2    0    0  0.47105991034E+02  0.82890990569E+01 -0.20044535426E+00  0.47830155057E+02  0.00000000000E+00 0.  1.
</event>
<event>
 6    1  0.4988969E-006  0.1190045E+03  0.7561462E-02  0.1244748E+00
         -2   -1    0    0    0  501 -0.00000000000E+00  0.00000000000E+00  0.67305009463E+02  0.67305009463E+02  0.00000000000E+00 0.  1.
          2   -1    0    0  501    0  0.00000000000E+00 -0.00000000000E+00 -0.22420732812E+03  0.22420732812E+03  0.00000000000E+00 0. -1.
          5    1    1    2  502    0 -0.45248704870E+02  0.83562668889E+02 -0.84180726872E+02  0.12701980988E+03  0.41800000000E+01 0. -1.
         -5    1    1    2    0  502  0.17295592203E+02 -0.32691589599E+02 -0.58728031944E+01  0.37680761106E+02  0.41800000000E+01 0. -1.
        -11    1    1    2    0    0  0.17647944678E+02  0.24168335301E+02 -0.82368365876E+01  0.31038747712E+02  0.00000000000E+00 0. -1.
         11    1    1    2    0    0  0.10305167989E+02 -0.75039414591E+02 -0.58611952006E+02  0.95773018890E+02  0.00000000000E+00 0.  1.
</event>
<event>
 6    1  0.4988969E-006  0.1428121E+03  0.7561462E-02  0.1209594E+00
         -1   -1    0    0    0  501 -0.00000000000E+00  0.00000000000E+00  0.18725818341E+03  0.18725818341E+03  0.00000000000E+00 0.  1.
          1   -1    0    0  501    0  0.00000000000E+00 -0.00000000000E+00 -0.14023790094E+03  0.14023790094E+03  0.00000000000E+00 0. -1.
          5    1    1    2  502    0 -0.21939396070E+02 -0.44577843123E+02  0.27328041316E+02  0.56857852928E+02  0.41800000000E+01 0. -1.
         -5    1    1    2    0  502  0.11717950140E+03 -0.22131172115E+02  0.26715406302E+02  0.12227841045E+03  0.41800000000E+01 0. -1.
        -11    1    1    2    0    0 -0.10374442322E+02  0.50378135890E+01 -0.37404365371E+02  0.39141987278E+02  0.00000000000E+00 0. -1.
         11    1    1    2    0    0 -0.84865663008E+02  0.61671201649E+02  0.30381200223E+02  0.10921783370E+03  0.00000000000E+00 0.  1.
</event>
<event>
 6    1  0.4988969E-006  0.1206483E+03  0.7561462E-02  0.1242031E+00
          2   -1    0    0  501    0  0.00000000000E+00  0.00000000000E+00  0.49912173132E+03  0.49912173132E+03  0.00000000000E+00 0. -1.
         -2   -1    0    0    0  501 -0.00000000000E+00 -0.00000000000E+00 -0.49734416006E+02  0.49734416006E+02  0.00000000000E+00 0.  1.
          5    1    1    2  502    0  0.39233413801E+02 -0.72660362296E+02  0.38517393529E+02  0.91213217309E+02  0.41800000000E+01 0. -1.
         -5    1    1    2    0  502 -0.25818201999E+01 -0.28264463903E+02  0.18127591989E+03  0.18353195157E+03  0.41800000000E+01 0. -1.
        -11    1    1    2    0    0 -0.57828294453E+02  0.57173961033E+02  0.20305027800E+03  0.21872903067E+03  0.00000000000E+00 0. -1.
         11    1    1    2    0    0  0.21176700852E+02  0.43750865166E+02  0.26543723892E+02  0.55381947779E+02  0.00000000000E+00 0.  1.
</event>
<event>
 6    1  0.4988969E-006  0.5189912E+02  0.7561462E-02  0.1435359E+00
          3   -1    0    0  501    0  0.00000000000E+00  0.00000000000E+00  0.13374538982E+03  0.13374538982E+03  0.00000000000E+00 0. -1.
         -3   -1    0    0    0  501 -0.00000000000E+00 -0.00000000000E+00 -0.93714123759E+02  0.93714123759E+02  0.00000000000E+00 0.  1.
          5    1    1    2  502    0  0.39118526228E+01 -0.98930772950E+00 -0.64601287270E+02  0.64862007660E+02  0.41800000000E+01 0.  1.
         -5    1    1    2    0  502 -0.20384324043E+01  0.41088870801E+01  0.60049240641E+02  0.60369047211E+02  0.41800000000E+01 0.  1.
        -11    1    1    2    0    0 -0.29608673185E+02 -0.37391026207E+02  0.19700143453E+02  0.51602887716E+02  0.00000000000E+00 0.  1.
         11    1    1    2    0    0  0.27735252966E+02  0.34271446856E+02  0.24883169236E+02  0.50625570989E+02  0.00000000000E+00 0. -1.
</event>
<event>
 6    1  0.4988969E-006  0.9093854E+02  0.7561462E-02  0.1300595E+00
         -1   -1    0    0    0  501 -0.00000000000E+00  0.00000000000E+00  0.38655916099E+03  0.38655916099E+03  0.00000000000E+00 0.  1.
          1   -1    0    0  501    0  0.00000000000E+00 -0.00000000000E+00 -0.47328081324E+02  0.47328081324E+02  0.00000000000E+00 0. -1.
          5    1    1    2  502    0 -0.21467526167E+01 -0.19058016809E+02 -0.94270490414E+01  0.21775174055E+02  0.41800000000E+01 0. -1.
         -5    1    1    2    0  502  0.80907997913E+02  0.13924006078E+02  0.22600182419E+03  0.24048758597E+03  0.41800000000E+01 0. -1.
        -11    1    1    2    0    0 -0.22599165053E+02  0.75598987027E+01  0.11187584914E+03  0.11438566322E+03  0.00000000000E+00 0.  1.
         11    1    1    2    0    0 -0.56162080243E+02 -0.24258879717E+01  0.10780455380E+02  0.57238819065E+02  0.00000000000E+00 0. -1.
</event>
<event>
 6    1  0.4988969E-006  0.1174712E+03  0.7561462E-02  0.1247328E+00
         -4   -1    0    0    0  501 -0.00000000000E+00  0.00000000000E+00  0.46896105456E+03  0.46896105456E+03  0.00000000000E+00 0.  1.
          4   -1    0    0  501    0  0.00000000000E+00 -0.00000000000E+00 -0.42443861933E+02  0.42443861933E+02  0.00000000000E+00 0. -1.
          5    1    1    2  502    0  0.96707435602E+02  0.34826122590E+02  0.21899622102E+03  0.24195454974E+03  0.41800000000E+01 0.  1.
         -5    1    1    2    0  502 -0.21924575057E+02 -0.36375427753E+02  0.10301691774E+03  0.11150702434E+03  0.41800000000E+01 0.  1.
        -11    1    1    2    0    0 -0.92973995463E+01 -0.18670363947E+02  0.83787918629E+02  0.86344886568E+02  0.00000000000E+00 0.  1.
         11    1    1    2    0    0 -0.65485460999E+02  0.20219669111E+02  0.20716135231E+02  0.71598455850E+02  0.00000000000E+00 0. -1.
</event>
<event>
 6    1  0.4988969E-006  0.8557345E+02  0.7561462E-02  0.1313940E+00
         -1   -1    0    0    0  501 -0.00000000000E+00  0.00000000000E+00  0.62430978700E+02  0.62430978700E+02  0.00000000000E+00 0.  1.
          1   -1    0    0  501    0  0.00000000000E+00 -0.00000000000E+00 -0.20841703255E+03  0.20841703255E+03  0.00000000000E+00 0. -1.
          5    1    1    2  502    0  0.14195215589E+02 -0.21512748039E+02 -0.82417882109E+02  0.86455087561E+02  0.41800000000E+01 0. -1.
         -5    1    1    2    0  502 -0.41587307962E+02  0.26884412927E+02  0.23061822916E+02  0.54786822487E+02  0.41800000000E+01 0. -1.
        -11    1    1    2    0    0 -0.16997990611E+02 -0.37078194615E+02 -0.46687579549E+02  0.61995598915E+02  0.00000000000E+00 0.  1.
         11    1    1    2    0    0  0.44390082984E+02  0.31706529727E+02 -0.39942415105E+02  0.67610502284E+02  0.00000000000E+00 0. -1.
</event>
<event>
 6    1  0.4988969E-006  0.1322940E+03  0.7561462E-02  0.1224091E+00
         -1   -1    0    0    0  501 -0.00000000000E+00  0.00000000000E+00  0.33146676165E+02  0.33146676165E+02  0.00000000000E+00 0.  1.
          1   -1    0    0  501    0  0.00000000000E+00 -0.00000000000E+00 -0.60076417927E+03  0.60076417927E+03  0.00000000000E+00 0. -1.
          5    1    1    2  502    0 -0.88771643400E+02 -0.40362526607E+01 -0.13632745606E+03  0.16278619009E+03  0.41800000000E+01 0.  1.
         -5    1    1    2    0  502  0.25438873164E+02  0.53941475752E+02 -0.85016599958E+02  0.10393321771E+03  0.41800000000E+01 0.  1.
        -11    1    1    2    0    0  0.22265020147E+02 -0.67563709850E+02 -0.15173855593E+03  0.16758632214E+03  0.00000000000E+00 0.  1.
         11    1    1    2    0    0  0.41067750089E+02  0.17658486759E+02 -0.19453489115E+03  0.19960512550E+03  0.00000000000E+00 0. -1.
</event>
<event>
 6    1  0.4988969E-006  0.1562820E+03  0.7561462E-02  0.1192959E+00
         -1   -1    0    0    0  501 -0.00000000000E+00  0.00000000000E+00  0.59379892794E+02  0.59379892794E+02  0.00000000000E+00 0.  1.
          1   -1    0    0  501    0  0.00000000000E+00 -0.00000000000E+00 -0.43113933779E+03  0.43113933779E+03  0.00000000000E+00 0. -1.
          5    1    1    2  502    0  0.73198815430E+02 -0.70121972721E+02 -0.12365838213E+03  0.15995007193E+03  0.41800000000E+01 0. -1.
         -5    1    1    2    0  502  0.28940499894E+02  0.52802789428E+02 -0.57371660260E+02  0.83274647441E+02  0.41800000000E+01 0. -1.
        -11    1    1    2    0    0 -0.86818645822E+02 -0.36955899709E+02 -0.15191135737E+03  0.17883030024E+03  0.00000000000E+00 0. -1.
         11    1    1    2    0    0 -0.15320669502E+02  0.54275083002E+02 -0.38818045242E+02  0.68464210981E+02  0.00000000000E+00 0.  1.
</event>
<event>
 6    1  0.4988969E-006  0.1445728E+03  0.7561462E-02  0.1207305E+00
          1   -1    0    0  501    0  0.00000000000E+00  0.00000000000E+00  0.59180402371E+03  0.59180402371E+03  0.00000000000E+00 0. -1.
         -1   -1    0    0    0  501 -0.00000000000E+00 -0.00000000000E+00 -0.13705970723E+03  0.13705970723E+03  0.00000000000E+00 0.  1.
          5    1    1    2  502    0 -0.19012978490E+02 -0.42571455684E+02  0.42320439032E+02  0.63105579389E+02  0.41800000000E+01 0. -1.
         -5    1    1    2    0  502 -0.47704219241E+02 -0.85283837264E+02 -0.91728430351E+02  0.13409176994E+03  0.41800000000E+01 0. -1.
        -11    1    1    2    0    0  0.54696723251E+02  0.11186618126E+03  0.49357127684E+03  0.50903671711E+03  0.00000000000E+00 0. -1.
         11    1    1    2    0    0  0.12020474480E+02  0.15989111691E+02  0.10581030956E+02  0.22629664503E+02  0.00000000000E+00 0.  1.
</event>
<event>
 6    1  0.4988969E-006  0.2070933E+03  0.7561462E-02  0.1143889E+00
          2   -1    0    0  501    0  0.00000000000E+00  0.00000000000E+00  0.77076663216E+03  0.77076663216E+03  0.00000000000E+00 0.  1.
         -2   -1    0    0    0  501 -0.00000000000E+00 -0.00000000000E+00 -0.59010087452E+02  0.59010087452E+02  0.00000000000E+00 0. -1.
          5    1    1    2  502    0  0.10036328992E+03 -0.12213871916E+03  0.23849584583E+03  0.28616148860E+03  0.41800000000E+01 0.  1.
         -5    1    1    2    0  502  0.51422817201E+02  0.26953272107E+02  0.58187160915E+02  0.82304332216E+02  0.41800000000E+01 0.  1.
        -11    1    1    2    0    0 -0.34232584351E+02  0.69555596338E+02  0.20579628294E+03  0.21991353047E+03  0.00000000000E+00 0.  1.
         11    1    1    2    0    0 -0.11755352277E+03  0.25629850710E+02  0.20927725502E+03  0.24139736832E+03  0.00000000000E+00 0. -1.
</event>
<event>
 6    1  0.4988969E-006  0.1178512E+03  0.7561462E-02  0.1246685E+00
         -1   -1    0    0    0  501 -0.00000000000E+00  0.00000000000E+00  0.93991696256E+02  0.93991696256E+02  0.00000000000E+00 0.  1.
          1   -1    0    0  501    0  0.00000000000E+00 -0.00000000000E+00 -0.22838122115E+03  0.22838122115E+03  0.00000000000E+00 0. -1.
          5    1    1    2  502    0  0.31583229594E+02  0.50869718758E+02 -0.10109758729E+03  0.11757305488E+03  0.41800000000E+01 0.  1.
         -5    1    1    2    0  502 -0.46043131934E+02  0.44618742577E+02  0.96951535561E+01  0.64979001146E+02  0.41800000000E+01 0.  1.
        -11    1    1    2    0    0  0.35839758211E+02 -0.55109743439E+02 -0.61971619292E+02  0.90344084965E+02  0.00000000000E+00 0. -1.
         11    1    1    2    0    0 -0.21379855871E+02 -0.40378717896E+02  0.18984528132E+02  0.49476776414E+02  0.00000000000E+00 0.  1.
</event>
<event>
 6    1  0.4988969E-006  0.1165872E+03  0.7561462E-02  0.1248836E+00
         -2   -1    0    0    0  501 -0.00000000000E+00  0.00000000000E+00  0.46918980737E+02  0.46918980737E+02  0.00000000000E+00 0.  1.
          2   -1    0    0  501    0  0.00000000000E+00 -0.00000000000E+00 -0.48099929592E+03  0.48099929592E+03  0.00000000000E+00 0. -1.
          5    1    1    2  502    0  0.35442626731E+02 -0.69397187340E+02 -0.12118690694E+03  0.14413843420E+03  0.41800000000E+01 0. -1.
         -5    1    1    2    0  502  0.32554456625E+02  0.27197475085E+02  0.69847592227E+01  0.43194381099E+02  0.41800000000E+01 0. -1.
        -11    1    1    2    0    0 -0.78315640847E+02  0.10305556261E+02 -0.26255739537E+03  0.27418229329E+03  0.00000000000E+00 0.  1.
         11    1    1    2    0    0  0.10318557491E+02  0.31894155994E+02 -0.57320772094E+02  0.66403168062E+02  0.00000000000E+00 0. -1.
</event>
<event>
 6    1  0.4988969E-006  0.1707088E+03  0.7561462E-02  0.1177111E+00
          2   -1    0    0  501    0  0.00000000000E+00  0.00000000000E+00  0.26299769178E+03  0.26299769178E+03  0.00000000000E+00 0. -1.
         -2   -1    0    0    0  501 -0.00000000000E+00 -0.00000000000E+00 -0.12470764603E+03  0.12470764603E+03  0.00000000000E+00 0.  1.
          5    1    1    2  502    0  0.73602626964E+01  0.26697035459E+02  0.15232321114E+02  0.31881047282E+02  0.41800000000E+01 0. -1.
         -5    1    1    2    0  502  0.54070978175E+02 -0.14332464522E+03  0.12011551221E+03  0.19470704477E+03  0.41800000000E+01 0. -1.
        -11    1    1    2    0    0  0.20542244707E+01  0.92079966374E+02  0.10197025262E+02  0.92665632085E+02  0.00000000000E+00 0. -1.
         11    1    1    2    0    0 -0.63485465342E+02  0.24547643391E+02 -0.72548128375E+01  0.68451613678E+02  0.00000000000E+00 0.  1.
</event>
<event>
 6    1  0.4988969E-006  0.1487943E+03  0.7561462E-02  0.1201962E+00
         -1   -1    0    0    0  501 -0.00000000000E+00  0.00000000000E+00  0.78152114989E+02  0.78152114989E+02  0.00000000000E+00 0.  1.
          1   -1    0    0  501    0  0.00000000000E+00 -0.00000000000E+00 -0.34990481820E+03  0.34990481820E+03  0.00000000000E+00 0. -1.
          5    1    1    2  502    0  0.84605064189E+02 -0.61534320378E+02 -0.83670878797E+02  0.13402528802E+03  0.41800000000E+01 0. -1.
         -5    1    1    2    0  502  0.25436119220E+02  0.41435487936E+02  0.90482365753E+01  0.49631026653E+02  0.41800000000E+01 0. -1.
        -11    1    1    2    0    0 -0.39669606219E+01 -0.27529237118E+02 -0.31371257404E+02  0.41925546675E+02  0.00000000000E+00 0.  1.
         11    1    1    2    0    0 -0.10607422279E+03  0.47628069560E+02 -0.16575880358E+03  0.20247507184E+03  0.00000000000E+00 0. -1.
</event>
<event>
 6    1  0.4988969E-006  0.1439349E+03  0.7561462E-02  0.1208130E+00
         -1   -1    0    0    0  501 -0.00000000000E+00  0.00000000000E+00  0.32247470049E+03  0.32247470049E+03  0.00000000000E+00 0.  1.
          1   -1    0    0  501    0  0.00000000000E+00 -0.00000000000E+00 -0.75927945202E+02  0.75927945202E+02  0.00000000000E+00 0. -1.
          5    1    1    2  502    0  0.44723218723E+02  0.85752531788E+01  0.36716932288E+02  0.58645603217E+02  0.41800000000E+01 0.  1.
         -5    1    1    2    0  502 -0.27784128816E+02 -0.11632584767E+03  0.12620600322E+03  0.17392265034E+03  0.41800000000E+01 0.  1.
        -11    1    1    2    0    0  0.11265335270E+02  0.86306869658E+02  0.94786804096E+02  0.12868691371E+03  0.00000000000E+00 0. -1.
         11    1    1    2    0    0 -0.28204425177E+02  0.21443724834E+02 -0.11162984325E+02  0.37147478426E+02  0.00000000000E+00 0.  1.
</event>
<event>
 6    1  0.4988969E-006  0.1392046E+03  0.7561462E-02  0.1214403E+00
          2   -1    0    0  501    0  0.00000000000E+00  0.00000000000E+00  0.35652004862E+03  0.35652004862E+03  0.00000000000E+00 0. -1.
         -2   -1    0    0    0  501 -0.00000000000E+00 -0.00000000000E+00 -0.66016623502E+02  0.66016623502E+02  0.00000000000E+00 0.  1.
          5    1    1    2  502    0  0.94918178864E+02  0.76788418552E+02  0.96131418616E+02  0.15544981167E+03  0.41800000000E+01 0.  1.
         -5    1    1    2    0  502 -0.11777356110E+02 -0.24979374648E+02 -0.39978473774E+01  0.28215783853E+02  0.41800000000E+01 0.  1.
        -11    1    1    2    0    0 -0.17559871013E+02  0.22931940181E+02  0.21644439707E+02  0.36093000993E+02  0.00000000000E+00 0.  1.
         11    1    1    2    0    0 -0.65580951741E+02 -0.74740984084E+02  0.17672541418E+03  0.20277807561E+03  0.00000000000E+00 0. -1.
</event>
<event>
 6    1  0.4988969E-006  0.1271560E+03  0.7561462E-02  0.1231738E+00
          1   -1    0    0  501    0  0.00000000000E+00  0.00000000000E+00  0.37538379495E+02  0.37538379495E+02  0.00000000000E+00 0. -1.
         -1   -1    0    0    0  501 -0.00000000000E+00 -0.00000000000E+00 -0.67372393484E+03  0.67372393484E+03  0.00000000000E+00 0.  1.
          5    1    1    2  502    0  0.42788611069E+02 -0.80264567079E+02 -0.37684636815E+03  0.38769049969E+03  0.41800000000E+01 0.  1.
         -5    1    1    2    0  502 -0.50026721557E+02  0.11295414507E+02 -0.17724066198E+03  0.18455889011E+03  0.41800000000E+01 0.  1.
        -11    1    1    2    0    0  0.28337799187E+02  0.82166183392E+02 -0.58920998873E+02  0.10500474591E+03  0.00000000000E+00 0.  1.
         11    1    1    2    0    0 -0.21099688699E+02 -0.13197030820E+02 -0.23177526340E+02  0.34008178618E+02  0.00000000000E+00 0. -1.
</event>
<event>
 6    1  0.4988969E-006  0.1064750E+03  0.7561462E-02  0.1267240E+00
         -2   -1    0    0    0  501 -0.00000000000E+00  0.00000000000E+00  0.17405319913E+02  0.17405319913E+02  0.00000000000E+00 0. -1.
          2   -1    0    0  501    0  0.00000000000E+00 -0.00000000000E+00 -0.78680877208E+03  0.78680877208E+03  0.00000000000E+00 0.  1.
          5    1    1    2  502    0  0.46500082005E+02 -0.10312701447E+02 -0.66089009980E+02  0.81571067651E+02  0.41800000000E+01 0.  1.
         -5    1    1    2    0  502 -0.68151212491E+02 -0.86552796540E+01 -0.25768842249E+03  0.26672138481E+03  0.41800000000E+01 0.  1.
        -11    1    1    2    0    0  0.26836591695E+02  0.54316490362E+02 -0.27462861476E+03  0.28123186132E+03  0.00000000000E+00 0.  1.
         11    1    1    2    0    0 -0.51854612086E+01 -0.35348509261E+02 -0.17099740494E+03  0.17468977821E+03  0.00000000000E+00 0. -1.
</event>
<event>
 6    1  0.5033902E-006  0.1926334E+03  0.7561462E-02  0.1156107E+00
          1   -1    0    0  501    0  0.00000000000E+00  0.00000000000E+00  0.48186718859E+03  0.48186718859E+03  0.00000000000E+00 0. -1.
         -1   -1    0    0    0  501 -0.00000000000E+00 -0.00000000000E+00 -0.86219148267E+02  0.86219148267E+02  0.00000000000E+00 0.  1.
          5    1    1    2  502    0  0.86490321925E+02  0.99612177433E+02  0.78253158939E+02  0.15344116450E+03  0.41800000000E+01 0. -1.
         -5    1    1    2    0  502  0.67427365289E+02 -0.31512031497E+02  0.79432590562E+02  0.10893331245E+03  0.41800000000E+01 0. -1.
        -11    1    1    2    0    0 -0.11586764026E+03 -0.20288958491E+02  0.20482802050E+03  0.23620218009E+03  0.00000000000E+00 0.  1.
         11    1    1    2    0    0 -0.38050046949E+02 -0.47811187446E+02  0.33134270323E+02  0.69509679812E+02  0.00000000000E+00 0. -1.
</event>
<event>
 6    1  0.4988969E-006  0.1266629E+03  0.7561462E-02  0.1232493E+00
          3   -1    0    0  501    0  0.00000000000E+00  0.00000000000E+00  0.38168840831E+03  0.38168840831E+03  0.00000000000E+00 0. -1.
         -3   -1    0    0    0  501 -0.00000000000E+00 -0.00000000000E+00 -0.51082600873E+02  0.51082600873E+02  0.00000000000E+00 0.  1.
          5    1    1    2  502    0 -0.49924758376E+02  0.27575665824E+02  0.11642003587E+03  0.12970734750E+03  0.41800000000E+01 0. -1.
         -5    1    1    2    0  502 -0.19420089007E+02 -0.73165129434E+02  0.34968155124E+02  0.83489641842E+02  0.41800000000E+01 0. -1.
        -11    1    1    2    0    0  0.32396515863E+02  0.69247707615E+02  0.14505421157E+03  0.16396799549E+03  0.00000000000E+00 0. -1.
         11    1    1    2    0    0  0.36948331519E+02 -0.23658244005E+02  0.34163404875E+02  0.55606024351E+02  0.00000000000E+00 0.  1.
</event>
<event>
 6    1  0.4988969E-006  0.8706337E+02  0.7561462E-02  0.1310123E+00
          2   -1    0    0  501    0  0.00000000000E+00  0.00000000000E+00  0.27859498212E+03  0.27859498212E+03  0.00000000000E+00 0. -1.
         -2   -1    0    0    0  501 -0.00000000000E+00 -0.00000000000E+00 -0.89711212724E+02  0.89711212724E+02  0.00000000000E+00 0.  1.
          5    1    1    2  502    0 -0.17674221486E+02  0.10570272453E+01 -0.66270308813E+02  0.68722060809E+02  0.41800000000E+01 0.  1.
         -5    1    1    2    0  502 -0.33626548701E+02 -0.25089982432E+02  0.54723821769E+02  0.69082711766E+02  0.41800000000E+01 0.  1.
        -11    1    1    2    0    0  0.15509135336E+02 -0.38618754752E+02  0.77091588895E+02  0.87607388820E+02  0.00000000000E+00 0.  1.
         11    1    1    2    0    0  0.35791634851E+02  0.62651709939E+02  0.12333866755E+03  0.14289403345E+03  0.00000000000E+00 0. -1.
</event>
<event>
 6    1  0.4988969E-006  0.1183167E+03  0.7561462E-02  0.1245900E+00
         -3   -1    0    0    0  501 -0.00000000000E+00  0.00000000000E+00  0.24052695316E+03  0.24052695316E+03  0.00000000000E+00 0.  1.
          3   -1    0    0  501    0  0.00000000000E+00 -0.00000000000E+00 -0.69344167327E+02  0.69344167327E+02  0.00000000000E+00 0. -1.
          5    1    1    2  502    0 -0.44534906409E+02 -0.84018490313E+02  0.10377831319E+03  0.14081859001E+03  0.41800000000E+01 0.  1.
         -5    1    1    2    0  502 -0.30477511574E+01  0.34972822659E+02 -0.24004685135E+00  0.35354167143E+02  0.41800000000E+01 0.  1.
        -11    1    1    2    0    0  0.29906974599E+02  0.71509872980E+02  0.70749715626E+02  0.10494575420E+03  0.00000000000E+00 0.  1.
         11    1    1    2    0    0  0.17675682967E+02 -0.22464205326E+02 -0.31051961295E+01  0.28752609139E+02  0.00000000000E+00 0. -1.
</event>
<event>
 6    1  0.4988969E-006  0.2677113E+03  0.7561462E-02  0.1102597E+00
          2   -1    0    0  501    0  0.00000000000E+00  0.00000000000E+00  0.57266866673E+03  0.57266866673E+03  0.00000000000E+00 0. -1.
         -2   -1    0    0    0  501 -0.00000000000E+00 -0.00000000000E+00 -0.13800641822E+03  0.13800641822E+03  0.00000000000E+00 0.  1.
          5    1    1    2  502    0  0.81567877835E+02 -0.16955536512E+03  0.10500078681E+03  0.21551096994E+03  0.41800000000E+01 0.  1.
         -5    1    1    2    0  502 -0.16102578172E+02 -0.81085210275E+02  0.13864691617E+03  0.16147614100E+03  0.41800000000E+01 0.  1.
        -11    1    1    2    0    0 -0.60275086254E+02  0.12576031093E+03  0.14314104077E+03  0.19984518854E+03  0.00000000000E+00 0. -1.
         11    1    1    2    0    0 -0.51902134087E+01  0.12488026446E+03  0.47873504761E+02  0.13384278548E+03  0.00000000000E+00 0.  1.
</event>
<event>
 6    1  0.4988969E-006  0.1594630E+03  0.7561462E-02  0.1189304E+00
          2   -1    0    0  501    0  0.00000000000E+00  0.00000000000E+00  0.13165970942E+04  0.13165970942E+04  0.00000000000E+00 0. -1.
         -2   -1    0    0    0  501 -0.00000000000E+00 -0.00000000000E+00 -0.21542656510E+02  0.21542656510E+02  0.00000000000E+00 0.  1.
          5    1    1    2  502    0 -0.43037743763E+02  0.45679641729E+02  0.41861203704E+03  0.42331121768E+03  0.41800000000E+01 0. -1.
         -5    1    1    2    0  502 -0.85342673141E+02 -0.52214624879E+02  0.26035227592E+03  0.27894536900E+03  0.41800000000E+01 0. -1.
        -11    1    1    2    0    0  0.16022898657E+02  0.36281508304E+02  0.12106683314E+03  0.12739803457E+03  0.00000000000E+00 0.  1.
         11    1    1    2    0    0  0.11235751825E+03 -0.29746525155E+02  0.49502329158E+03  0.50848512945E+03  0.00000000000E+00 0. -1.
</event>
<event>
 6    1  0.4988969E-006  0.1848023E+03  0.7561462E-02  0.1163235E+00
         -2   -1    0    0    0  501 -0.00000000000E+00  0.00000000000E+00  0.16995361331E+03  0.16995361331E+03  0.00000000000E+00 0.  1.
          2   -1    0    0  501    0  0.00000000000E+00 -0.00000000000E+00 -0.32428577799E+03  0.32428577799E+03  0.00000000000E+00 0. -1.
          5    1    1    2  502    0  0.15359507457E+03 -0.10606508128E+02 -0.25748407568E+02  0.15615504424E+03  0.41800000000E+01 0. -1.
         -5    1    1    2    0  502  0.24133102942E+02  0.24442615179E+01  0.58913157029E+02  0.63848363668E+02  0.41800000000E+01 0. -1.
        -11    1    1    2    0    0 -0.24404150191E+02 -0.24092333577E+02 -0.71472562571E+02  0.79273767944E+02  0.00000000000E+00 0. -1.
         11    1    1    2    0    0 -0.15332402733E+03  0.32254580187E+02 -0.11602435156E+03  0.19496221545E+03  0.00000000000E+00 0.  1.
</event>
<event>
 6    1  0.4988969E-006  0.1031578E+03  0.7561462E-02  0.1273792E+00
          1   -1    0    0  501    0  0.00000000000E+00  0.00000000000E+00  0.16340073186E+03  0.16340073186E+03  0.00000000000E+00 0. -1.
         -1   -1    0    0    0  501 -0.00000000000E+00 -0.00000000000E+00 -0.75351752278E+02  0.75351752278E+02  0.00000000000E+00 0.  1.
          5    1    1    2  502    0 -0.31601909269E+02  0.38516482892E+02  0.92617964460E+01  0.50847353887E+02  0.41800000000E+01 0. -1.
         -5    1    1    2    0  502  0.49559608976E+02 -0.58217251618E+02  0.38255676192E+02  0.85594231048E+02  0.41800000000E+01 0. -1.
        -11    1    1    2    0    0 -0.68145065857E+01 -0.29000102096E+02 -0.98327176689E+01  0.31370778734E+02  0.00000000000E+00 0.  1.
         11    1    1    2    0    0 -0.11143193121E+02  0.48700870822E+02  0.50364224617E+02  0.70940120475E+02  0.00000000000E+00 0. -1.
</event>
<event>
 6    1  0.4988969E-006  0.1287257E+03  0.7561462E-02  0.1229359E+00
         -2   -1    0    0    0  501 -0.00000000000E+00  0.00000000000E+00  0.95827608226E+02  0.95827608226E+02  0.00000000000E+00 0. -1.
          2   -1    0    0  501    0  0.00000000000E+00 -0.00000000000E+00 -0.29978188475E+03  0.29978188475E+03  0.00000000000E+00 0.  1.
          5    1    1    2  502    0  0.54594960081E+02 -0.12059680033E+02 -0.85481100701E+02  0.10222786570E+03  0.41800000000E+01 0.  1.
         -5    1    1    2    0  502  0.58266913949E+02 -0.19463015981E+02  0.42083341063E+02  0.74580977785E+02  0.41800000000E+01 0.  1.
        -11    1    1    2    0    0 -0.10128337060E+02 -0.21818357525E+02 -0.44561105146E+01  0.24463868411E+02  0.00000000000E+00 0.  1.
         11    1    1    2    0    0 -0.10273353697E+03  0.53341053539E+02 -0.15610040637E+03  0.19433678108E+03  0.00000000000E+00 0. -1.
</event>
<event>
 6    1  0.4988969E-006  0.3017343E+03  0.7561462E-02  0.1084377E+00
         -2   -1    0    0    0  501 -0.00000000000E+00  0.00000000000E+00  0.13122358498E+03  0.13122358498E+03  0.00000000000E+00 0.  1.
          2   -1    0    0  501    0  0.00000000000E+00 -0.00000000000E+00 -0.75369793913E+03  0.75369793913E+03  0.00000000000E+00 0. -1.
          5    1    1    2  502    0  0.46337964525E+02  0.41104926569E+01 -0.40907023147E+01  0.46886131763E+02  0.41800000000E+01 0. -1.
         -5    1    1    2    0  502  0.18365367381E+03  0.18010674378E+03 -0.29214284486E+03  0.38927114620E+03  0.41800000000E+01 0. -1.
        -11    1    1    2    0    0 -0.14095647290E+03 -0.14495555765E+03 -0.26672706538E+03  0.33470011705E+03  0.00000000000E+00 0.  1.
         11    1    1    2    0    0 -0.89035165443E+02 -0.39261678786E+02 -0.59513741591E+02  0.11406412909E+03  0.00000000000E+00 0. -1.
</event>
<event>
 6    1  0.4988969E-006  0.1395224E+03  0.7561462E-02  0.1213973E+00
          2   -1    0    0  501    0  0.00000000000E+00  0.00000000000E+00  0.57611106626E+03  0.57611106626E+03  0.00000000000E+00 0. -1.
         -2   -1    0    0    0  501 -0.00000000000E+00 -0.00000000000E+00 -0.43794685070E+02  0.43794685070E+02  0.00000000000E+00 0.  1.
          5    1    1    2  502    0 -0.93111043129E+02 -0.79625057991E+02  0.20971307926E+03  0.24291328540E+03  0.41800000000E+01 0. -1.
         -5    1    1    2    0  502  0.29802981216E+01  0.20314650123E+02 -0.35659148005E+01  0.21254536807E+02  0.41800000000E+01 0. -1.
        -11    1    1    2    0    0 -0.69825109714E+01  0.34600525581E+02  0.13922786075E+03  0.14363268792E+03  0.00000000000E+00 0. -1.
         11    1    1    2    0    0  0.97113255978E+02  0.24709882287E+02  0.18694135598E+03  0.21210524120E+03  0.00000000000E+00 0.  1.
</event>
<event>
 6    1  0.4988969E-006  0.1029485E+03  0.7561462E-02  0.1274215E+00
         -1   -1    0    0    0  501 -0.00000000000E+00  0.00000000000E+00  0.10889767896E+03  0.10889767896E+03  0.00000000000E+00 0.  1.
          1   -1    0    0  501    0  0.00000000000E+00 -0.00000000000E+00 -0.11730742130E+03  0.11730742130E+03  0.00000000000E+00 0. -1.
          5    1    1    2  502    0  0.47139148609E+02  0.44961178518E+02 -0.50002408508E+01  0.65468173290E+02  0.41800000000E+01 0.  1.
         -5    1    1    2    0  502 -0.40894723468E+02 -0.36266359002E+02  0.30184417927E+02  0.62579538895E+02  0.41800000000E+01 0.  1.
        -11    1    1    2    0    0 -0.64669627404E+01 -0.47026461003E+02 -0.43150579408E+00  0.47470999977E+02  0.00000000000E+00 0.  1.
         11    1    1    2    0    0  0.22253759888E+00  0.38331641487E+02 -0.33162413619E+02  0.50686388104E+02  0.00000000000E+00 0. -1.
</event>
<event>
 6    1  0.4988969E-006  0.2673741E+03  0.7561462E-02  0.1102792E+00
         -1   -1    0    0    0  501 -0.00000000000E+00  0.00000000000E+00  0.13349142984E+03  0.13349142984E+03  0.00000000000E+00 0.  1.
          1   -1    0    0  501    0  0.00000000000E+00 -0.00000000000E+00 -0.88415485733E+03  0.88415485733E+03  0.00000000000E+00 0. -1.
          5    1    1    2  502    0 -0.10383389638E+03  0.13526192423E+03 -0.42885734029E+02  0.17588042747E+03  0.41800000000E+01 0. -1.
         -5    1    1    2    0  502  0.37647661290E+02  0.10209885748E+03 -0.26803601995E+02  0.11214913544E+03  0.41800000000E+01 0.  1.
        -11    1    1    2    0    0  0.51448286703E+02 -0.67965476742E+02 -0.15569585481E+03  0.17750332796E+03  0.00000000000E+00 0.  1.
         11    1    1    2    0    0  0.14737948386E+02 -0.16939530497E+03 -0.52527823666E+03  0.55211339630E+03  0.00000000000E+00 0. -1.
</event>
<event>
 6    1  0.4988969E-006  0.1236853E+03  0.7561462E-02  0.1237138E+00
          2   -1    0    0  501    0  0.00000000000E+00  0.00000000000E+00  0.58885435842E+02  0.58885435842E+02  0.00000000000E+00 0. -1.
         -2   -1    0    0    0  501 -0.00000000000E+00 -0.00000000000E+00 -0.29183737534E+03  0.29183737534E+03  0.00000000000E+00 0.  1.
          5    1    1    2  502    0  0.84207792414E+02  0.24946940312E+01 -0.79277171382E+02  0.11575628753E+03  0.41800000000E+01 0.  1.
         -5    1    1    2    0  502 -0.30561564877E+02 -0.52042725677E+02 -0.57207031594E+02  0.83262064636E+02  0.41800000000E+01 0.  1.
        -11    1    1    2    0    0  0.15477085073E+02 -0.29121875903E+01 -0.51731077443E+02  0.54075182591E+02  0.00000000000E+00 0.  1.
         11    1    1    2    0    0 -0.69123312610E+02  0.52460219236E+02 -0.44736659077E+02  0.97629276418E+02  0.00000000000E+00 0. -1.
</event>
<event>
 6    1  0.4988969E-006  0.1758859E+03  0.7561462E-02  0.1171845E+00
          2   -1    0    0  501    0  0.00000000000E+00  0.00000000000E+00  0.39000395568E+03  0.39000395568E+03  0.00000000000E+00 0. -1.
         -2   -1    0    0    0  501 -0.00000000000E+00 -0.00000000000E+00 -0.88577596734E+02  0.88577596734E+02  0.00000000000E+00 0.  1.
          5    1    1    2  502    0  0.16483199277E+03 -0.23960218758E+02  0.16051151585E+03  0.23135491576E+03  0.41800000000E+01 0.  1.
         -5    1    1    2    0  502 -0.18390390416E+02 -0.22781673620E+02  0.14072507034E+02  0.32752388719E+02  0.41800000000E+01 0.  1.
        -11    1    1    2    0    0 -0.54520112553E+02  0.29724516853E+02  0.70102123017E+01  0.62491060572E+02  0.00000000000E+00 0.  1.
         11    1    1    2    0    0 -0.91921489805E+02  0.17017375525E+02  0.11983212376E+03  0.15198318737E+03  0.00000000000E+00 0. -1.
</event>
<event>
 6    1  0.4988969E-006  0.9352299E+02  0.7561462E-02  0.1294538E+00
          2   -1    0    0  501    0  0.00000000000E+00  0.00000000000E+00  0.32620535182E+03  0.32620535182E+03  0.00000000000E+00 0. -1.
         -2   -1    0    0    0  501 -0.00000000000E+00 -0.00000000000E+00 -0.45664515078E+02  0.45664515078E+02  0.00000000000E+00 0.  1.
          5    1    1    2  502    0 -0.29669715674E+02 -0.81178378201E+01 -0.12752526780E+02  0.33560254146E+02  0.41800000000E+01 0.  1.
         -5    1    1    2    0  502  0.33006088452E+01  0.56986309318E+02  0.14880052456E+03  0.15942836002E+03  0.41800000000E+01 0.  1.
        -11    1    1    2    0    0  0.16462586990E+02 -0.71866240315E+02  0.13128526083E+03  0.15057089021E+03  0.00000000000E+00 0. -1.
         11    1    1    2    0    0  0.99065198390E+01  0.22997768817E+02  0.13207578122E+02  0.28310362515E+02  0.00000000000E+00 0.  1.
</event>
<event>
 6    1  0.4988969E-006  0.1412386E+03  0.7561462E-02  0.1211672E+00
          3   -1    0    0  501    0  0.00000000000E+00  0.00000000000E+00  0.78765913135E+02  0.78765913135E+02  0.00000000000E+00 0. -1.
         -3   -1    0    0    0  501 -0.00000000000E+00 -0.00000000000E+00 -0.33269858788E+03  0.33269858788E+03  0.00000000000E+00 0.  1.
          5    1    1    2  502    0  0.62293694792E+02 -0.90310962975E+02 -0.16329350012E+03  0.19677096846E+03  0.41800000000E+01 0.  1.
         -5    1    1    2    0  502 -0.39542950535E+02 -0.23934949265E+02 -0.11721459110E+02  0.47868483755E+02  0.41800000000E+01 0.  1.
        -11    1    1    2    0    0  0.12681593173E+02  0.61089416181E+02 -0.81798080801E+02  0.10287694395E+03  0.00000000000E+00 0.  1.
         11    1    1    2    0    0 -0.35432337430E+02  0.53156496060E+02  0.28803652953E+01  0.63948104845E+02  0.00000000000E+00 0. -1.
</event>
<event>
 6    1  0.4988969E-006  0.1269323E+03  0.7561462E-02  0.1232080E+00
         -3   -1    0    0    0  501 -0.00000000000E+00  0.00000000000E+00  0.18237119546E+02  0.18237119546E+02  0.00000000000E+00 0.  1.
          3   -1    0    0  501    0  0.00000000000E+00 -0.00000000000E+00 -0.96891332532E+03  0.96891332532E+03  0.00000000000E+00 0. -1.
          5    1    1    2  502    0 -0.44501048005E+02  0.93345989075E+01 -0.10507401542E+03  0.11456657072E+03  0.41800000000E+01 0.  1.
         -5    1    1    2    0  502  0.58918228662E+02 -0.75088817196E+02 -0.28251070409E+03  0.29822719269E+03  0.41800000000E+01 0.  1.
        -11    1    1    2    0    0 -0.27929027010E+02  0.84819494814E+02 -0.42220370698E+03  0.43154414309E+03  0.00000000000E+00 0.  1.
         11    1    1    2    0    0  0.13511846354E+02 -0.19065276526E+02 -0.14088777928E+03  0.14281253836E+03  0.00000000000E+00 0. -1.
</event>
<event>
 6    1  0.4988969E-006  0.8637593E+02  0.7561462E-02  0.1311873E+00
          2   -1    0    0  501    0  0.00000000000E+00  0.00000000000E+00  0.41592935032E+03  0.41592935032E+03  0.00000000000E+00 0. -1.
         -2   -1    0    0    0  501 -0.00000000000E+00 -0.00000000000E+00 -0.52218992896E+02  0.52218992896E+02  0.00000000000E+00 0.  1.
          5    1    1    2  502    0 -0.20310853095E+02  0.35629667879E+02 -0.21069840408E+02  0.46297025406E+02  0.41800000000E+01 0. -1.
         -5    1    1    2    0  502  0.53306936725E+02 -0.23159574499E+02  0.74713721539E+02  0.94750240001E+02  0.41800000000E+01 0. -1.
        -11    1    1    2    0    0 -0.41337212813E+02 -0.31832755093E+02  0.29855645957E+03  0.30308092815E+03  0.00000000000E+00 0. -1.
         11    1    1    2    0    0  0.83411291825E+01  0.19362661714E+02  0.11510016729E+02  0.24020149662E+02  0.00000000000E+00 0.  1.
</event>
<event>
 6    1  0.4988969E-006  0.1483355E+03  0.7561462E-02  0.1202533E+00
          1   -1    0    0  501    0  0.00000000000E+00  0.00000000000E+00  0.85245618922E+03  0.85245618922E+03  0.00000000000E+00 0. -1.
         -1   -1    0    0    0  501 -0.00000000000E+00 -0.00000000000E+00 -0.28495111764E+02  0.28495111764E+02  0.00000000000E+00 0.  1.
          5    1    1    2  502    0  0.27807841653E+02  0.62400435152E+02  0.11431757117E+03  0.13324064636E+03  0.41800000000E+01 0.  1.
         -5    1    1    2    0  502  0.82959249313E+02 -0.41664094807E+02  0.29718271459E+03  0.31137304330E+03  0.41800000000E+01 0.  1.
        -11    1    1    2    0    0 -0.10250734956E+03  0.10448930042E+02  0.24479757694E+03  0.26559892795E+03  0.00000000000E+00 0.  1.
         11    1    1    2    0    0 -0.82597414043E+01 -0.31185270387E+02  0.16766321476E+03  0.17073868338E+03  0.00000000000E+00 0. -1.
</event>
<event>
 6    1  0.4988969E-006  0.1125069E+03  0.7561462E-02  0.1255997E+00
         -3   -1    0    0    0  501 -0.00000000000E+00  0.00000000000E+00  0.54537563765E+03  0.54537563765E+03  0.00000000000E+00 0.  1.
          3   -1    0    0  501    0  0.00000000000E+00 -0.00000000000E+00 -0.34649145916E+02  0.34649145916E+02  0.00000000000E+00 0. -1.
          5    1    1    2  502    0  0.39520994724E+02 -0.68727473182E+02  0.32135637982E+03  0.33101777875E+03  0.41800000000E+01 0. -1.
         -5    1    1    2    0  502 -0.32867655184E+01  0.48346492742E+02  0.11430350789E+03  0.12422137700E+03  0.41800000000E+01 0.  1.
        -11    1    1    2    0    0 -0.65526553283E+02  0.13903896386E+02  0.64467850675E+02  0.92968550007E+02  0.00000000000E+00 0.  1.
         11    1    1    2    0    0  0.29292324077E+02  0.64770840530E+01  0.10598753340E+02  0.31817077804E+02  0.00000000000E+00 0. -1.
</event>
<event>
 6    1  0.4988969E-006  0.1915294E+03  0.7561462E-02  0.1157089E+00
          2   -1    0    0  501    0  0.00000000000E+00  0.00000000000E+00  0.25412607130E+03  0.25412607130E+03  0.00000000000E+00 0.  1.
         -2   -1    0    0    0  501 -0.00000000000E+00 -0.00000000000E+00 -0.19347921848E+03  0.19347921848E+03  0.00000000000E+00 0. -1.
          5    1    1    2  502    0 -0.12005617536E+03  0.66259008083E+02  0.67223158770E+00  0.13719207590E+03  0.41800000000E+01 0.  1.
         -5    1    1    2    0  502 -0.47897970890E+02 -0.32851330389E+02 -0.58672380653E+02  0.82664056126E+02  0.41800000000E+01 0.  1.
        -11    1    1    2    0    0  0.16107398750E+03 -0.79545107036E+01  0.12050138066E+03  0.20131737737E+03  0.00000000000E+00 0.  1.
         11    1    1    2    0    0  0.68801587498E+01 -0.25453166990E+02 -0.18543787780E+01  0.26431780396E+02  0.00000000000E+00 0. -1.
</event>
<event>
 6    1  0.4988969E-006  0.1248172E+03  0.7561462E-02  0.1235355E+00
         -1   -1    0    0    0  501 -0.00000000000E+00  0.00000000000E+00  0.56972683445E+02  0.56972683445E+02  0.00000000000E+00 0.  1.
          1   -1    0    0  501    0  0.00000000000E+00 -0.00000000000E+00 -0.29959588578E+03  0.29959588578E+03  0.00000000000E+00 0. -1.
          5    1    1    2  502    0 -0.17636060107E+02  0.39660883835E+02 -0.34788338334E+02  0.55782768008E+02  0.41800000000E+01 0.  1.
         -5    1    1    2    0  502 -0.26889664415E+02 -0.97067829320E+02 -0.97306855965E+02  0.14011179165E+03  0.41800000000E+01 0.  1.
        -11    1    1    2    0    0  0.52884673399E+02  0.61005797397E+01 -0.21158962951E+02  0.57286189145E+02  0.00000000000E+00 0.  1.
         11    1    1    2    0    0 -0.83589488772E+01  0.51306365746E+02 -0.89369045088E+02  0.10338782043E+03  0.00000000000E+00 0. -1.
</event>
<event>
 6    1  0.4988969E-006  0.9849480E+02  0.7561462E-02  0.1283493E+00
         -2   -1    0    0    0  501 -0.00000000000E+00  0.00000000000E+00  0.48796870148E+02  0.48796870148E+02  0.00000000000E+00 0.  1.
          2   -1    0    0  501    0  0.00000000000E+00 -0.00000000000E+00 -0.34568040111E+03  0.34568040111E+03  0.00000000000E+00 0. -1.
          5    1    1    2  502    0  0.27371145972E+02  0.28248995410E+02 -0.77027849032E+02  0.86590688299E+02  0.41800000000E+01 0. -1.
         -5    1    1    2    0  502 -0.86684232314E+02 -0.50637818368E+01 -0.37944015138E+02  0.94852615689E+02  0.41800000000E+01 0. -1.
        -11    1    1    2    0    0  0.35377801851E+02  0.24080961870E+01 -0.17337963039E+03  0.17696859616E+03  0.00000000000E+00 0. -1.
         11    1    1    2    0    0  0.23935284491E+02 -0.25593309760E+02 -0.85320363949E+01  0.36065371108E+02  0.00000000000E+00 0.  1.
</event>
<event>
 6    1  0.4988969E-006  0.1093786E+03  0.7561462E-02  0.1261725E+00
         -1   -1    0    0    0  501 -0.00000000000E+00  0.00000000000E+00  0.49440737065E+03  0.49440737065E+03  0.00000000000E+00 0.  1.
          1   -1    0    0  501    0  0.00000000000E+00 -0.00000000000E+00 -0.28065921141E+02  0.28065921141E+02  0.00000000000E+00 0. -1.
          5    1    1    2  502    0  0.14121439807E+02 -0.66102092522E+02  0.22047867831E+03  0.23064522906E+03  0.41800000000E+01 0.  1.
         -5    1    1    2    0  502 -0.44358008628E+02  0.40572560112E+02  0.12108724029E+03  0.13525293980E+03  0.41800000000E+01 0.  1.
        -11    1    1    2    0    0  0.50741476407E+02  0.40880030611E+02  0.10740879760E+03  0.12562851640E+03  0.00000000000E+00 0.  1.
         11    1    1    2    0    0 -0.20504907586E+02 -0.15350498201E+02  0.17366733310E+02  0.30946606535E+02  0.00000000000E+00 0. -1.
</event>
<event>
 6    1  0.4988969E-006  0.9069314E+02  0.7561462E-02  0.1301182E+00
         -3   -1    0    0    0  501 -0.00000000000E+00  0.00000000000E+00  0.80227892440E+03  0.80227892440E+03  0.00000000000E+00 0.  1.
          3   -1    0    0  501    0  0.00000000000E+00 -0.00000000000E+00 -0.17827354539E+02  0.17827354539E+02  0.00000000000E+00 0. -1.
          5    1    1    2  502    0 -0.57494961910E+02  0.78690578832E+01  0.41920050468E+03  0.42321877113E+03  0.41800000000E+01 0.  1.
         -5    1    1    2    0  502  0.53073229537E+02 -0.24807694995E+02  0.18723721777E+03  0.19623312040E+03  0.41800000000E+01 0.  1.
        -11    1    1    2    0    0  0.23425583890E+02  0.32393541318E+02  0.17036596252E+03  0.17499331612E+03  0.00000000000E+00 0.  1.
         11    1    1    2    0    0 -0.19003851518E+02 -0.15454904207E+02  0.76478848988E+01  0.25661071294E+02  0.00000000000E+00 0. -1.
</event>
<event>
 6    1  0.4988969E-006  0.1318685E+03  0.7561462E-02  0.1224709E+00
         -1   -1    0    0    0  501 -0.00000000000E+00  0.00000000000E+00  0.22890008509E+03  0.22890008509E+03  0.00000000000E+00 0.  1.
          1   -1    0    0  501    0  0.00000000000E+00 -0.00000000000E+00 -0.95824174236E+02  0.95824174236E+02  0.00000000000E+00 0. -1.
          5    1    1    2  502    0  0.27848434739E+02 -0.10753882170E+03  0.30908483392E+02  0.11538171535E+03  0.41800000000E+01 0.  1.
         -5    1    1    2    0  502 -0.52474671824E+01  0.16909510538E+02  0.65783631211E+02  0.68252662906E+02  0.41800000000E+01 0.  1.
        -11    1    1    2    0    0  0.29975098447E+02  0.73021436209E+02  0.96080329071E+01  0.79516985413E+02  0.00000000000E+00 0. -1.
         11    1    1    2    0    0 -0.52576066004E+02  0.17607874957E+02  0.26775763341E+02  0.61572895656E+02  0.00000000000E+00 0.  1.
</event>
<event>
 6    1  0.4988969E-006  0.6737274E+02  0.7561462E-02  0.1369262E+00
         -2   -1    0    0    0  501 -0.00000000000E+00  0.00000000000E+00  0.16755692571E+03  0.16755692571E+03  0.00000000000E+00 0.  1.
          2   -1    0    0  501    0  0.00000000000E+00 -0.00000000000E+00 -0.92071246583E+02  0.92071246583E+02  0.00000000000E+00 0. -1.
          5    1    1    2  502    0 -0.23960742738E+01 -0.25756111994E+01 -0.32633319684E+02  0.33087473439E+02  0.41800000000E+01 0.  1.
         -5    1    1    2    0  502 -0.28790999976E+01  0.53185327547E+02  0.11065164095E+03  0.12287484009E+03  0.41800000000E+01 0.  1.
        -11    1    1    2    0    0  0.27130075004E+02 -0.85314717905E+01  0.33623320959E+02  0.44038105011E+02  0.00000000000E+00 0.  1.
         11    1    1    2    0    0 -0.21854900733E+02 -0.42078244557E+02 -0.36155963092E+02  0.59627753757E+02  0.00000000000E+00 0. -1.
</event>
<event>
 6    1  0.4988969E-006  0.1151080E+03  0.7561462E-02  0.1251393E+00
         -1   -1    0    0    0  501 -0.00000000000E+00  0.00000000000E+00  0.12126874152E+02  0.12126874152E+02  0.00000000000E+00 0.  1.
          1   -1    0    0  501    0  0.00000000000E+00 -0.00000000000E+00 -0.11224339000E+04  0.11224339000E+04  0.00000000000E+00 0. -1.
          5    1    1    2  502    0 -0.88641077362E+02  0.37655770090E+02 -0.47608692506E+03  0.48574831985E+03  0.41800000000E+01 0.  1.
         -5    1    1    2    0  502  0.27992911654E+02 -0.30738368885E+02 -0.15734780705E+03  0.16280127520E+03  0.41800000000E+01 0.  1.
        -11    1    1    2    0    0  0.46038167647E+02 -0.36689528851E+02 -0.34776599531E+03  0.35271351251E+03  0.00000000000E+00 0. -1.
         11    1    1    2    0    0  0.14609998060E+02  0.29772127646E+02 -0.12910629843E+03  0.13329766661E+03  0.00000000000E+00 0.  1.
</event>
<event>
 6    1  0.4988969E-006  0.1672269E+03  0.7561462E-02  0.1180771E+00
          4   -1    0    0  501    0  0.00000000000E+00  0.00000000000E+00  0.21954790610E+02  0.21954790610E+02  0.00000000000E+00 0. -1.
         -4   -1    0    0    0  501 -0.00000000000E+00 -0.00000000000E+00 -0.13585906360E+04  0.13585906360E+04  0.00000000000E+00 0.  1.
          5    1    1    2  502    0 -0.78319473141E+01  0.15643055739E+03 -0.56663760626E+03  0.58790093376E+03  0.41800000000E+01 0. -1.
         -5    1    1    2    0  502  0.92502885491E+01 -0.22312978111E+02 -0.14113727058E+03  0.14325026484E+03  0.41800000000E+01 0. -1.
        -11    1    1    2    0    0 -0.35689042426E+02 -0.42835290062E+02 -0.13606736539E+03  0.14704726365E+03  0.00000000000E+00 0. -1.
         11    1    1    2    0    0  0.34270701191E+02 -0.91282289216E+02 -0.49279360320E+03  0.50234696440E+03  0.00000000000E+00 0.  1.
</event>
<event>
 6    1  0.4988969E-006  0.1236653E+03  0.7561462E-02  0.1237170E+00
         -1   -1    0    0    0  501 -0.00000000000E+00  0.00000000000E+00  0.15002403388E+03  0.15002403388E+03  0.00000000000E+00 0.  1.
          1   -1    0    0  501    0  0.00000000000E+00 -0.00000000000E+00 -0.11678116230E+03  0.11678116230E+03  0.00000000000E+00 0. -1.
          5    1    1    2  502    0 -0.55235894648E+02 -0.15893316509E+02  0.14220192527E+02  0.59357289718E+02  0.41800000000E+01 0. -1.
         -5    1    1    2    0  502  0.64791562789E+02 -0.57979592125E+02  0.12882490081E+01  0.87055796459E+02  0.41800000000E+01 0. -1.
        -11    1    1    2    0    0 -0.26307611738E+02 -0.60729660895E+00  0.33338807135E+02  0.42472759572E+02  0.00000000000E+00 0.  1.
         11    1    1    2    0    0  0.16751943597E+02  0.74480205243E+02 -0.15604377092E+02  0.77919350432E+02  0.00000000000E+00 0. -1.
</event>
<event>
 6    1  0.4988969E-006  0.1639385E+03  0.7561462E-02  0.1184321E+00
          1   -1    0    0  501    0  0.00000000000E+00  0.00000000000E+00  0.13429488691E+03  0.13429488691E+03  0.00000000000E+00 0. -1.
         -1   -1    0    0    0  501 -0.00000000000E+00 -0.00000000000E+00 -0.33657501742E+03  0.33657501742E+03  0.00000000000E+00 0.  1.
          5    1    1    2  502    0  0.48824193916E+02  0.91901376518E+02 -0.43065218709E+02  0.11270204248E+03  0.41800000000E+01 0.  1.
         -5    1    1    2    0  502 -0.12094843832E+02  0.61369054300E+02 -0.16610620378E+03  0.17754207785E+03  0.41800000000E+01 0.  1.
        -11    1    1    2    0    0 -0.92966449706E+01 -0.10582898937E+03 -0.34774729307E+02  0.11178320266E+03  0.00000000000E+00 0.  1.
         11    1    1    2    0    0 -0.27432705113E+02 -0.47441441453E+02  0.41666021280E+02  0.68842581345E+02  0.00000000000E+00 0. -1.
</event>
<event>
 6    1  0.4988969E-006  0.1523337E+03  0.7561462E-02  0.1197634E+00
         -1   -1    0    0    0  501 -0.00000000000E+00  0.00000000000E+00  0.82877741507E+02  0.82877741507E+02  0.00000000000E+00 0.  1.
          1   -1    0    0  501    0  0.00000000000E+00 -0.00000000000E+00 -0.33194867041E+03  0.33194867041E+03  0.00000000000E+00 0. -1.
          5    1    1    2  502    0  0.65504446076E+01 -0.12859228358E+03 -0.12615245469E+03  0.18030750940E+03  0.41800000000E+01 0.  1.
         -5    1    1    2    0  502 -0.43284291781E+02  0.11116612001E+02 -0.25449714295E+02  0.51597183402E+02  0.41800000000E+01 0.  1.
        -11    1    1    2    0    0  0.40270951428E+02  0.53901251479E+02 -0.98445107106E+02  0.11924149258E+03  0.00000000000E+00 0. -1.
         11    1    1    2    0    0 -0.35371042548E+01  0.63574420098E+02  0.97634719355E+00  0.63680226532E+02  0.00000000000E+00 0.  1.
</event>
<event>
 6    1  0.4988969E-006  0.1085751E+03  0.7561462E-02  0.1263232E+00
         -1   -1    0    0    0  501 -0.00000000000E+00  0.00000000000E+00  0.38497101650E+02  0.38497101650E+02  0.00000000000E+00 0.  1.
          1   -1    0    0  501    0  0.00000000000E+00 -0.00000000000E+00 -0.39793651559E+03  0.39793651559E+03  0.00000000000E+00 0. -1.
          5    1    1    2  502    0 -0.48397156121E+02  0.29789146753E+02 -0.72378856521E+02  0.92118669422E+02  0.41800000000E+01 0. -1.
         -5    1    1    2    0  502  0.69195453815E+02 -0.25141867410E+01 -0.43995577281E+02  0.82142651430E+02  0.41800000000E+01 0. -1.
        -11    1    1    2    0    0  0.32091690254E+02 -0.19287211659E+01 -0.13946855553E+03  0.14312607915E+03  0.00000000000E+00 0. -1.
         11    1    1    2    0    0 -0.52889987949E+02 -0.25346238846E+02 -0.10359642460E+03  0.11904621724E+03  0.00000000000E+00 0.  1.
</event>
<event>
 6    1  0.4988969E-006  0.2338183E+03  0.7561462E-02  0.1123981E+00
         -1   -1    0    0    0  501 -0.00000000000E+00  0.00000000000E+00  0.34000222570E+03  0.34000222570E+03  0.00000000000E+00 0.  1.
          1   -1    0    0  501    0  0.00000000000E+00 -0.00000000000E+00 -0.16430021935E+03  0.16430021935E+03  0.00000000000E+00 0. -1.
          5    1    1    2  502    0  0.10806602784E+03 -0.38420278274E+02  0.38011258315E+02  0.12089959600E+03  0.41800000000E+01 0. -1.
         -5    1    1    2    0  502  0.94902417558E+02  0.86268352585E+02  0.49654054855E+02  0.13759249645E+03  0.41800000000E+01 0. -1.
        -11    1    1    2    0    0 -0.12388236094E+03 -0.70165115565E+02  0.30797695088E+02  0.14566564734E+03  0.00000000000E+00 0. -1.
         11    1    1    2    0    0 -0.79086084459E+02  0.22317041254E+02  0.57238998095E+02  0.10014470524E+03  0.00000000000E+00 0.  1.
</event>
<event>
 6    1  0.4988969E-006  0.1091067E+03  0.7561462E-02  0.1262233E+00
          1   -1    0    0  501    0  0.00000000000E+00  0.00000000000E+00  0.17556018573E+03  0.17556018573E+03  0.00000000000E+00 0. -1.
         -1   -1    0    0    0  501 -0.00000000000E+00 -0.00000000000E+00 -0.10817295297E+03  0.10817295297E+03  0.00000000000E+00 0.  1.
          5    1    1    2  502    0 -0.85796929756E+00 -0.52276026269E+02 -0.41639333637E+02  0.66968840064E+02  0.41800000000E+01 0.  1.
         -5    1    1    2    0  502  0.52974876986E+02 -0.12666633137E+02  0.65298544557E+02  0.85136088164E+02  0.41800000000E+01 0.  1.
        -11    1    1    2    0    0 -0.32581672748E+02 -0.96868231054E+01 -0.12447118704E+02  0.36198490369E+02  0.00000000000E+00 0.  1.
         11    1    1    2    0    0 -0.19535234940E+02  0.74629482511E+02  0.56175140546E+02  0.95429720106E+02  0.00000000000E+00 0. -1.
</event>
<event>
 6    1  0.4988969E-006  0.1469224E+03  0.7561462E-02  0.1204306E+00
         -1   -1    0    0    0  501 -0.00000000000E+00  0.00000000000E+00  0.56279194047E+02  0.56279194047E+02  0.00000000000E+00 0.  1.
          1   -1    0    0  501    0  0.00000000000E+00 -0.00000000000E+00 -0.48893219834E+03  0.48893219834E+03  0.00000000000E+00 0. -1.
          5    1    1    2  502    0  0.61549993872E+02 -0.36496486436E+01 -0.19961049082E+02  0.64943341162E+02  0.41800000000E+01 0. -1.
         -5    1    1    2    0  502  0.39093970154E+02  0.76567195330E+02 -0.19456126406E+03  0.21274969277E+03  0.41800000000E+01 0. -1.
        -11    1    1    2    0    0 -0.41629495465E+02  0.11301227050E+02 -0.11066877283E+03  0.11877840673E+03  0.00000000000E+00 0. -1.
         11    1    1    2    0    0 -0.59014468561E+02 -0.84218773737E+02 -0.10746191833E+03  0.14873995173E+03  0.00000000000E+00 0.  1.
</event>
<event>
 6    1  0.4988969E-006  0.1467958E+03  0.7561462E-02  0.1204467E+00
         -2   -1    0    0    0  501 -0.00000000000E+00  0.00000000000E+00  0.10086644582E+03  0.10086644582E+03  0.00000000000E+00 0.  1.
          2   -1    0    0  501    0  0.00000000000E+00 -0.00000000000E+00 -0.38877102318E+03  0.38877102318E+03  0.00000000000E+00 0. -1.
          5    1    1    2  502    0 -0.44239516621E+01 -0.18829080737E+02  0.37305992655E+02  0.42229315856E+02  0.41800000000E+01 0. -1.
         -5    1    1    2    0  502 -0.12515411587E+03  0.12164804948E+01 -0.64201114478E+02  0.14072770887E+03  0.41800000000E+01 0. -1.
        -11    1    1    2    0    0  0.67481702516E+02  0.44576462963E+02 -0.81446014338E+02  0.11477932948E+03  0.00000000000E+00 0.  1.
         11    1    1    2    0    0  0.62096365018E+02 -0.26963862721E+02 -0.17956344120E+03  0.19190111478E+03  0.00000000000E+00 0. -1.
</event>
<event>
 6    1  0.4988969E-006  0.1972209E+03  0.7561462E-02  0.1152105E+00
         -2   -1    0    0    0  501 -0.00000000000E+00  0.00000000000E+00  0.45339141321E+02  0.45339141321E+02  0.00000000000E+00 0.  1.
          2   -1    0    0  501    0  0.00000000000E+00 -0.00000000000E+00 -0.11262483425E+04  0.11262483425E+04  0.00000000000E+00 0. -1.
          5    1    1    2  502    0  0.17928472337E+03  0.66167833122E+02 -0.46542870698E+03  0.50315260892E+03  0.41800000000E+01 0.  1.
         -5    1    1    2    0  502  0.53673965687E+01 -0.55894520621E+01  0.63250907319E+01  0.10841129694E+02  0.41800000000E+01 0.  1.
        -11    1    1    2    0    0 -0.73390638797E+02 -0.20140457920E+02 -0.12066067498E+03  0.14265630864E+03  0.00000000000E+00 0. -1.
         11    1    1    2    0    0 -0.11126148114E+03 -0.40437923140E+02 -0.50114490992E+03  0.51493743654E+03  0.00000000000E+00 0.  1.
</event>
<event>
 6    1  0.4988969E-006  0.1541532E+03  0.7561462E-02  0.1195460E+00
          1   -1    0    0  501    0  0.00000000000E+00  0.00000000000E+00  0.11221314431E+04  0.11221314431E+04  0.00000000000E+00 0. -1.
         -1   -1    0    0    0  501 -0.00000000000E+00 -0.00000000000E+00 -0.24729012981E+02  0.24729012981E+02  0.00000000000E+00 0.  1.
          5    1    1    2  502    0  0.46655435962E+02  0.11665062126E+03  0.25270463194E+03  0.28224315855E+03  0.41800000000E+01 0.  1.
         -5    1    1    2    0  502 -0.12588667469E+02 -0.18717630094E+02  0.15429948275E+03  0.15599559930E+03  0.41800000000E+01 0.  1.
        -11    1    1    2    0    0 -0.14553928140E+02  0.28356330797E+02  0.14103777977E+03  0.14459444541E+03  0.00000000000E+00 0. -1.
         11    1    1    2    0    0 -0.19512840353E+02 -0.12628932196E+03  0.54936053564E+03  0.56402725280E+03  0.00000000000E+00 0.  1.
</event>
<event>
 6    1  0.4988969E-006  0.1053973E+03  0.7561462E-02  0.1269339E+00
         -4   -1    0    0    0  501 -0.00000000000E+00  0.00000000000E+00  0.37918916745E+02  0.37918916745E+02  0.00000000000E+00 0. -1.
          4   -1    0    0  501    0  0.00000000000E+00 -0.00000000000E+00 -0.31909353492E+03  0.31909353492E+03  0.00000000000E+00 0.  1.
          5    1    1    2  502    0  0.16862603739E+02  0.61314963849E+02 -0.83895446549E+02  0.10535554351E+03  0.41800000000E+01 0.  1.
         -5    1    1    2    0  502 -0.18383387499E+02 -0.55254317463E+02 -0.39671207272E+02  0.70585165727E+02  0.41800000000E+01 0.  1.
        -11    1    1    2    0    0  0.25386066325E+02 -0.39890475233E+02 -0.93147807937E+02  0.10446155513E+03  0.00000000000E+00 0.  1.
         11    1    1    2    0    0 -0.23865282564E+02  0.33829828847E+02 -0.64460156417E+02  0.76610187292E+02  0.00000000000E+00 0. -1.
</event>
<event>
 6    1  0.4988969E-006  0.2703937E+03  0.7561462E-02  0.1101054E+00
         -1   -1    0    0    0  501 -0.00000000000E+00  0.00000000000E+00  0.86599845817E+03  0.86599845817E+03  0.00000000000E+00 0.  1.
          1   -1    0    0  501    0  0.00000000000E+00 -0.00000000000E+00 -0.86426281017E+02  0.86426281017E+02  0.00000000000E+00 0. -1.
          5    1    1    2  502    0  0.49563678192E+02 -0.57737229655E+02  0.12473622153E+03  0.14617367494E+03  0.41800000000E+01 0.  1.
         -5    1    1    2    0  502 -0.68314304412E+02 -0.18878899342E+03  0.34510944978E+03  0.39928202182E+03  0.41800000000E+01 0.  1.
        -11    1    1    2    0    0 -0.37435214809E+02  0.10660068033E+03  0.14106597537E+03  0.18073380913E+03  0.00000000000E+00 0.  1.
         11    1    1    2    0    0  0.56185841029E+02  0.13992554274E+03  0.16866053047E+03  0.22623523329E+03  0.00000000000E+00 0. -1.
</event>
<event>
 6    1  0.4988969E-006  0.1119549E+03  0.7561462E-02  0.1256992E+00
          1   -1    0    0  501    0  0.00000000000E+00  0.00000000000E+00  0.24765331845E+03  0.24765331845E+03  0.00000000000E+00 0. -1.
         -1   -1    0    0    0  501 -0.00000000000E+00 -0.00000000000E+00 -0.56792125996E+02  0.56792125996E+02  0.00000000000E+00 0.  1.
          5    1    1    2  502    0  0.28709867209E+02 -0.44725682710E+02  0.18875562654E+02  0.56554420115E+02  0.41800000000E+01 0. -1.
         -5    1    1    2    0  502 -0.92139465239E+01  0.74998776364E+02  0.50119106819E+02  0.90769546297E+02  0.41800000000E+01 0. -1.
        -11    1    1    2    0    0  0.17999940834E+01  0.30484948593E+02  0.19633543802E+02  0.36304932333E+02  0.00000000000E+00 0.  1.
         11    1    1    2    0    0 -0.21295914768E+02 -0.60758042247E+02  0.10223297918E+03  0.12081654570E+03  0.00000000000E+00 0. -1.
</event>
<event>
 6    1  0.4988969E-006  0.7837888E+02  0.7561462E-02  0.1333716E+00
         -2   -1    0    0    0  501 -0.00000000000E+00  0.00000000000E+00  0.10123324512E+03  0.10123324512E+03  0.00000000000E+00 0.  1.
          2   -1    0    0  501    0  0.00000000000E+00 -0.00000000000E+00 -0.29456668409E+03  0.29456668409E+03  0.00000000000E+00 0. -1.
          5    1    1    2  502    0  0.24189505484E+02  0.18402168428E+02 -0.20612259906E+02  0.36960920401E+02  0.41800000000E+01 0. -1.
         -5    1    1    2    0  502 -0.12637940597E+02 -0.46284085597E+02  0.77060693883E+02  0.90872201821E+02  0.41800000000E+01 0.  1.
        -11    1    1    2    0    0 -0.38014228501E+02 -0.19200983988E+01 -0.43202639468E+02  0.57578089612E+02  0.00000000000E+00 0.  1.
         11    1    1    2    0    0  0.26462663614E+02  0.29802015568E+02 -0.20657923348E+03  0.21038871738E+03  0.00000000000E+00 0. -1.
</event>
<event>
 6    1  0.4988969E-006  0.1830736E+03  0.7561462E-02  0.1164861E+00
          1   -1    0    0  501    0  0.00000000000E+00  0.00000000000E+00  0.31722928807E+03  0.31722928807E+03  0.00000000000E+00 0. -1.
         -1   -1    0    0    0  501 -0.00000000000E+00 -0.00000000000E+00 -0.15129413612E+03  0.15129413612E+03  0.00000000000E+00 0.  1.
          5    1    1    2  502    0  0.53122964678E+01  0.24906336839E+02 -0.34905586068E+02  0.43409888818E+02  0.41800000000E+01 0.  1.
         -5    1    1    2    0  502 -0.15958082447E+03  0.32781443659E+02  0.18729335002E+02  0.16403939459E+03  0.41800000000E+01 0.  1.
        -11    1    1    2    0    0  0.11824917585E+03 -0.11508728437E+02  0.79586820249E+02  0.14300132998E+03  0.00000000000E+00 0.  1.
         11    1    1    2    0    0  0.36019352156E+02 -0.46179052060E+02  0.10252458276E+03  0.11807281080E+03  0.00000000000E+00 0. -1.
</event>
<event>
 6    1  0.4988969E-006  0.1041773E+03  0.7561462E-02  0.1271749E+00
          1   -1    0    0  501    0  0.00000000000E+00  0.00000000000E+00  0.16868070067E+02  0.16868070067E+02  0.00000000000E+00 0. -1.
         -1   -1    0    0    0  501 -0.00000000000E+00 -0.00000000000E+00 -0.84327862425E+03  0.84327862425E+03  0.00000000000E+00 0.  1.
          5    1    1    2  502    0  0.67384380480E+02  0.41299774632E+02 -0.26588701905E+03  0.27741612321E+03  0.41800000000E+01 0. -1.
         -5    1    1    2    0  502 -0.47442772818E+02 -0.42476753624E+01 -0.29069485619E+03  0.29460113926E+03  0.41800000000E+01 0. -1.
        -11    1    1    2    0    0  0.23653765765E+02  0.78915617958E+00 -0.17906531644E+02  0.29677723596E+02  0.00000000000E+00 0. -1.
         11    1    1    2    0    0 -0.43595373426E+02 -0.37841255450E+02 -0.25192214730E+03  0.25845170825E+03  0.00000000000E+00 0.  1.
</event>
<event>
 6    1  0.4988969E-006  0.1331890E+03  0.7561462E-02  0.1222799E+00
          3   -1    0    0  501    0  0.00000000000E+00  0.00000000000E+00  0.20582102508E+03  0.20582102508E+03  0.00000000000E+00 0. -1.
         -3   -1    0    0    0  501 -0.00000000000E+00 -0.00000000000E+00 -0.12193609093E+03  0.12193609093E+03  0.00000000000E+00 0.  1.
          5    1    1    2  502    0  0.21864312245E+02 -0.13334892690E+02 -0.26039652350E+02  0.36761439138E+02  0.41800000000E+01 0.  1.
         -5    1    1    2    0  502 -0.99368752242E+02  0.70378844474E+02  0.79273484452E+01  0.12209687107E+03  0.41800000000E+01 0.  1.
        -11    1    1    2    0    0  0.89440054170E+02 -0.58025997289E+02  0.11100666552E+03  0.15391237586E+03  0.00000000000E+00 0. -1.
         11    1    1    2    0    0 -0.11935614174E+02  0.98204550499E+00 -0.90094274745E+01  0.14986429945E+02  0.00000000000E+00 0.  1.
</event>
<event>
 6    1  0.4988969E-006  0.1105315E+03  0.7561462E-02  0.1259589E+00
         -2   -1    0    0    0  501 -0.00000000000E+00  0.00000000000E+00  0.69746295105E+02  0.69746295105E+02  0.00000000000E+00 0.  1.
          2   -1    0    0  501    0  0.00000000000E+00 -0.00000000000E+00 -0.21294395435E+03  0.21294395435E+03  0.00000000000E+00 0. -1.
          5    1    1    2  502    0 -0.11338686574E+02  0.38635183244E+02 -0.39555330210E+02  0.56598054256E+02  0.41800000000E+01 0. -1.
         -5    1    1    2    0  502  0.33641476169E+01 -0.87523870527E+02 -0.16674286471E+02  0.89259451211E+02  0.41800000000E+01 0. -1.
        -11    1    1    2    0    0 -0.15779657625E+01  0.69845119645E+02 -0.89637875258E+02  0.11364761060E+03  0.00000000000E+00 0. -1.
         11    1    1    2    0    0  0.95525047197E+01 -0.20956432362E+02  0.26698326922E+01  0.23185133391E+02  0.00000000000E+00 0.  1.
</event>
<event>
 6    1  0.4988969E-006  0.2248412E+03  0.7561462E-02  0.1130324E+00
          1   -1    0    0  501    0  0.00000000000E+00  0.00000000000E+00  0.47797288417E+03  0.47797288417E+03  0.00000000000E+00 0. -1.
         -1   -1    0    0    0  501 -0.00000000000E+00 -0.00000000000E+00 -0.11993878021E+03  0.11993878021E+03  0.00000000000E+00 0.  1.
          5    1    1    2  502    0  0.21104275811E+02 -0.21893795477E+02  0.25381498291E+02  0.39829908278E+02  0.41800000000E+01 0. -1.
         -5    1    1    2    0  502 -0.17573434345E+03 -0.95101545378E+02  0.13514407004E+03  0.24126387104E+03  0.41800000000E+01 0. -1.
        -11    1    1    2    0    0  0.16387299841E+03  0.82604928461E+02  0.21017746529E+03  0.27902060986E+03  0.00000000000E+00 0. -1.
         11    1    1    2    0    0 -0.92429307678E+01  0.34390412394E+02 -0.12668929666E+02  0.37797275202E+02  0.00000000000E+00 0.  1.
</event>
<event>
 6    1  0.4988969E-006  0.1790051E+03  0.7561462E-02  0.1168769E+00
         -2   -1    0    0    0  501 -0.00000000000E+00  0.00000000000E+00  0.64175257816E+02  0.64175257816E+02  0.00000000000E+00 0.  1.
          2   -1    0    0  501    0  0.00000000000E+00 -0.00000000000E+00 -0.61513341381E+03  0.61513341381E+03  0.00000000000E+00 0. -1.
          5    1    1    2  502    0  0.35233863649E+01  0.80094701243E+02 -0.10643496313E+03  0.13331710016E+03  0.41800000000E+01 0. -1.
         -5    1    1    2    0  502 -0.71228734336E+02 -0.10595150985E+02 -0.86639927014E+02  0.11273747901E+03  0.41800000000E+01 0.  1.
        -11    1    1    2    0    0  0.12502742533E+03 -0.14001067149E+02 -0.92548591570E+02  0.15618299769E+03  0.00000000000E+00 0.  1.
         11    1    1    2    0    0 -0.57322077361E+02 -0.55498483109E+02 -0.26533467428E+03  0.27707109476E+03  0.00000000000E+00 0. -1.
</event>
<event>
 6    1  0.4988969E-006  0.6232141E+02  0.7561462E-02  0.1388340E+00
         -1   -1    0    0    0  501 -0.00000000000E+00  0.00000000000E+00  0.76339912631E+02  0.76339912631E+02  0.00000000000E+00 0.  1.
          1   -1    0    0  501    0  0.00000000000E+00 -0.00000000000E+00 -0.20816314928E+03  0.20816314928E+03  0.00000000000E+00 0. -1.
          5    1    1    2  502    0 -0.13288218561E+02 -0.42392731962E+01  0.46617090336E+02  0.48838240152E+02  0.41800000000E+01 0. -1.
         -5    1    1    2    0  502  0.52176662372E+02 -0.91323454788E+01 -0.65253745627E+02  0.84150624172E+02  0.41800000000E+01 0. -1.
        -11    1    1    2    0    0 -0.95931314332E+01  0.23950667657E+02 -0.11729358217E+03  0.12009765639E+03  0.00000000000E+00 0. -1.
         11    1    1    2    0    0 -0.29295312379E+02 -0.10579048982E+02  0.41070008176E+01  0.31416541192E+02  0.00000000000E+00 0.  1.
</event>
<event>
 6    1  0.4988969E-006  0.1199309E+03  0.7561462E-02  0.1243211E+00
          2   -1    0    0  501    0  0.00000000000E+00  0.00000000000E+00  0.48863041666E+03  0.48863041666E+03  0.00000000000E+00 0. -1.
         -2   -1    0    0    0  501 -0.00000000000E+00 -0.00000000000E+00 -0.46655572841E+02  0.46655572841E+02  0.00000000000E+00 0.  1.
          5    1    1    2  502    0 -0.25543989928E+02  0.28089818267E+02  0.20962714667E+03  0.21307873271E+03  0.41800000000E+01 0. -1.
         -5    1    1    2    0  502 -0.38332941283E+02  0.42145442401E+02  0.11706935071E+02  0.58311040390E+02  0.41800000000E+01 0. -1.
        -11    1    1    2    0    0  0.37443233343E+01 -0.82986840376E+02  0.11939190144E+03  0.14544848491E+03  0.00000000000E+00 0.  1.
         11    1    1    2    0    0  0.60132607877E+02  0.12751579708E+02  0.10124886063E+03  0.11844773148E+03  0.00000000000E+00 0. -1.
</event>
<event>
 6    1  0.4988969E-006  0.1564154E+03  0.7561462E-02  0.1192804E+00
          2   -1    0    0  501    0  0.00000000000E+00  0.00000000000E+00  0.11435358937E+03  0.11435358937E+03  0.00000000000E+00 0.  1.
         -2   -1    0    0    0  501 -0.00000000000E+00 -0.00000000000E+00 -0.29231588077E+03  0.29231588077E+03  0.00000000000E+00 0. -1.
          5    1    1    2  502    0 -0.87006031135E+02  0.72134157459E+02 -0.13826201497E+03  0.17862598722E+03  0.41800000000E+01 0.  1.
         -5    1    1    2    0  502 -0.33058067281E+02  0.90187618542E+01  0.26076323973E+02  0.43262234682E+02  0.41800000000E+01 0.  1.
        -11    1    1    2    0    0  0.10570887757E+03 -0.26877579887E+02 -0.68109557903E+02  0.12859114656E+03  0.00000000000E+00 0.  1.
         11    1    1    2    0    0  0.14355220850E+02 -0.54275339426E+02  0.23329575035E+01  0.56190101674E+02  0.00000000000E+00 0. -1.
</event>
<event>
 6    1  0.4988969E-006  0.1083485E+03  0.7561462E-02  0.1263659E+00
          1   -1    0    0  501    0  0.00000000000E+00  0.00000000000E+00  0.63141970728E+03  0.63141970728E+03  0.00000000000E+00 0. -1.
         -1   -1    0    0    0  501 -0.00000000000E+00 -0.00000000000E+00 -0.37819486741E+02  0.37819486741E+02  0.00000000000E+00 0.  1.
          5    1    1    2  502    0  0.11762860315E+02 -0.33941547249E+02  0.14771308864E+03  0.15207571294E+03  0.41800000000E+01 0. -1.
         -5    1    1    2    0  502  0.61570105822E+02  0.21471318588E+01  0.66660140127E+01  0.62107940306E+02  0.41800000000E+01 0. -1.
        -11    1    1    2    0    0 -0.71352440657E+02 -0.14195559866E+02  0.28211706490E+03  0.29134639695E+03  0.00000000000E+00 0.  1.
         11    1    1    2    0    0 -0.19805254798E+01  0.45989975256E+02  0.15710405298E+03  0.16370914381E+03  0.00000000000E+00 0. -1.
</event>
<event>
 6    1  0.4988969E-006  0.9692808E+02  0.7561462E-02  0.1286892E+00
          1   -1    0    0  501    0  0.00000000000E+00  0.00000000000E+00  0.47777427654E+03  0.47777427654E+03  0.00000000000E+00 0. -1.
         -1   -1    0    0    0  501 -0.00000000000E+00 -0.00000000000E+00 -0.28948043721E+02  0.28948043721E+02  0.00000000000E+00 0.  1.
          5    1    1    2  502    0  0.88441802518E+01  0.37893147397E+02  0.13827940639E+03  0.14371073994E+03  0.41800000000E+01 0. -1.
         -5    1    1    2    0  502 -0.43584886119E+02 -0.58517979637E+02  0.61972660597E+02  0.95823166824E+02  0.41800000000E+01 0. -1.
        -11    1    1    2    0    0 -0.14712225106E+01  0.40365437342E+02  0.19726605063E+03  0.20135895252E+03  0.00000000000E+00 0. -1.
         11    1    1    2    0    0  0.36211928378E+02 -0.19740605102E+02  0.51308115204E+02  0.65829460976E+02  0.00000000000E+00 0.  1.
</event>
<event>
 6    1  0.4988969E-006  0.1131522E+03  0.7561462E-02  0.1254841E+00
         -2   -1    0    0    0  501 -0.00000000000E+00  0.00000000000E+00  0.15918714212E+02  0.15918714212E+02  0.00000000000E+00 0. -1.
          2   -1    0    0  501    0  0.00000000000E+00 -0.00000000000E+00 -0.93019328206E+03  0.93019328206E+03  0.00000000000E+00 0.  1.
          5    1    1    2  502    0  0.91274245527E+01 -0.74698294897E+02 -0.41845344892E+03  0.42518690767E+03  0.41800000000E+01 0.  1.
         -5    1    1    2    0  502 -0.38885368971E+02  0.30037067249E+02 -0.11058289663E+03  0.12107991888E+03  0.41800000000E+01 0.  1.
        -11    1    1    2    0    0 -0.30246940353E+02  0.22327750554E+02 -0.86400395944E+02  0.94225443829E+02  0.00000000000E+00 0. -1.
         11    1    1    2    0    0  0.60004884772E+02  0.22333477094E+02 -0.29883782635E+03  0.30561972589E+03  0.00000000000E+00 0.  1.
</event>
<event>
 6    1  0.4988969E-006  0.1051867E+03  0.7561462E-02  0.1269752E+00
          1   -1    0    0  501    0  0.00000000000E+00  0.00000000000E+00  0.16459696476E+03  0.16459696476E+03  0.00000000000E+00 0. -1.
         -1   -1    0    0    0  501 -0.00000000000E+00 -0.00000000000E+00 -0.94705259472E+02  0.94705259472E+02  0.00000000000E+00 0.  1.
          5    1    1    2  502    0  0.68830957368E+02 -0.12502586010E+01  0.33698748353E+02  0.76761591172E+02  0.41800000000E+01 0.  1.
         -5    1    1    2    0  502 -0.31157766260E+02  0.29815039530E+02 -0.37050403587E+02  0.57008313310E+02  0.41800000000E+01 0.  1.
        -11    1    1    2    0    0 -0.57698148188E+02  0.61255229031E+01  0.25964414479E+02  0.63566887248E+02  0.00000000000E+00 0.  1.
         11    1    1    2    0    0  0.20024957080E+02 -0.34690303832E+02  0.47278946040E+02  0.61965432498E+02  0.00000000000E+00 0. -1.
</event>
<event>
 6    1  0.4988969E-006  0.1448311E+03  0.7561462E-02  0.1206972E+00
          2   -1    0    0  501    0  0.00000000000E+00  0.00000000000E+00  0.22460103885E+03  0.22460103885E+03  0.00000000000E+00 0. -1.
         -2   -1    0    0    0  501 -0.00000000000E+00 -0.00000000000E+00 -0.10389718840E+03  0.10389718840E+03  0.00000000000E+00 0.  1.
          5    1    1    2  502    0  0.47080727475E+02 -0.55462966477E+02  0.28842677981E+02  0.78371602147E+02  0.41800000000E+01 0.  1.
         -5    1    1    2    0  502 -0.72023362129E+02 -0.41295336239E+02 -0.60221447157E+01  0.83345114520E+02  0.41800000000E+01 0.  1.
        -11    1    1    2    0    0  0.53097414352E+02  0.29480703939E+02  0.56378015258E+02  0.82866928989E+02  0.00000000000E+00 0. -1.
         11    1    1    2    0    0 -0.28154779698E+02  0.67277598776E+02  0.41505301926E+02  0.83914581598E+02  0.00000000000E+00 0.  1.
</event>
<event>
 6    1  0.4988969E-006  0.9459506E+02  0.7561462E-02  0.1292091E+00
          3   -1    0    0  501    0  0.00000000000E+00  0.00000000000E+00  0.82738555447E+02  0.82738555447E+02  0.00000000000E+00 0. -1.
         -3   -1    0    0    0  501 -0.00000000000E+00 -0.00000000000E+00 -0.24147937610E+03  0.24147937610E+03  0.00000000000E+00 0.  1.
          5    1    1    2  502    0  0.79384580248E+01 -0.40053415156E+02  0.11469229466E+02  0.42618198061E+02  0.41800000000E+01 0.  1.
         -5    1    1    2    0  502  0.61499577275E+02 -0.20171875458E+01 -0.14493479611E+03  0.15751137919E+03  0.41800000000E+01 0.  1.
        -11    1    1    2    0    0 -0.42839771179E+01  0.15542492872E+02  0.30376255990E+02  0.34389511084E+02  0.00000000000E+00 0. -1.
         11    1    1    2    0    0 -0.65154058182E+02  0.26528109829E+02 -0.55651510001E+02  0.89698843215E+02  0.00000000000E+00 0.  1.
</event>
<event>
 6    1  0.4988969E-006  0.1325311E+03  0.7561462E-02  0.1223748E+00
         -2   -1    0    0    0  501 -0.00000000000E+00  0.00000000000E+00  0.59552617796E+02  0.59552617796E+02  0.00000000000E+00 0.  1.
          2   -1    0    0  501    0  0.00000000000E+00 -0.00000000000E+00 -0.39423198311E+03  0.39423198311E+03  0.00000000000E+00 0. -1.
          5    1    1    2  502    0  0.58511382757E+01 -0.10284724714E+03 -0.77883209003E+02  0.12920935999E+03  0.41800000000E+01 0.  1.
         -5    1    1    2    0  502 -0.35096528681E+02  0.23156225082E+02 -0.33040409043E+01  0.42383560159E+02  0.41800000000E+01 0.  1.
        -11    1    1    2    0    0 -0.28483409837E+02  0.42064322095E+02 -0.72508302030E+02  0.88533415683E+02  0.00000000000E+00 0.  1.
         11    1    1    2    0    0  0.57728800242E+02  0.37626699966E+02 -0.18098381338E+03  0.19365826508E+03  0.00000000000E+00 0. -1.
</event>
<event>
 6    1  0.4988969E-006  0.2013167E+03  0.7561462E-02  0.1148633E+00
         -2   -1    0    0    0  501 -0.00000000000E+00  0.00000000000E+00  0.14572866988E+03  0.14572866988E+03  0.00000000000E+00 0. -1.
          2   -1    0    0  501    0  0.00000000000E+00 -0.00000000000E+00 -0.35328692298E+03  0.35328692298E+03  0.00000000000E+00 0.  1.
          5    1    1    2  502    0 -0.48736259989E+02  0.33474559138E+02 -0.76681688884E+01  0.59766565580E+02  0.41800000000E+01 0.  1.
         -5    1    1    2    0  502 -0.11360004251E+03 -0.11348274832E+03 -0.90866766828E+01  0.16088301315E+03  0.41800000000E+01 0.  1.
        -11    1    1    2    0    0  0.21825892513E+02  0.17379346785E+01  0.74013816171E+01  0.23112127786E+02  0.00000000000E+00 0.  1.
         11    1    1    2    0    0  0.14051040999E+03  0.78270254507E+02 -0.19820478914E+03  0.25525388634E+03  0.00000000000E+00 0. -1.
</event>
<event>
 6    1  0.4988969E-006  0.1097102E+03  0.7561462E-02  0.1261107E+00
         -2   -1    0    0    0  501 -0.00000000000E+00  0.00000000000E+00  0.62876333119E+02  0.62876333119E+02  0.00000000000E+00 0. -1.
          2   -1    0    0  501    0  0.00000000000E+00 -0.00000000000E+00 -0.23613919552E+03  0.23613919552E+03  0.00000000000E+00 0.  1.
          5    1    1    2  502    0 -0.22951443972E+02 -0.79357698200E+02 -0.10676617290E+03  0.13505888020E+03  0.41800000000E+01 0.  1.
         -5    1    1    2    0  502  0.15890543339E+02  0.24737556484E+02  0.11173124400E+02  0.31729594660E+02  0.41800000000E+01 0.  1.
        -11    1    1    2    0    0  0.40778614280E+02  0.60320730128E+02 -0.52337389299E+02  0.89669884489E+02  0.00000000000E+00 0.  1.
         11    1    1    2    0    0 -0.33717713647E+02 -0.57005884120E+01 -0.25332424594E+02  0.42557169286E+02  0.00000000000E+00 0. -1.
</event>
<event>
 6    1  0.4988969E-006  0.1321269E+03  0.7561462E-02  0.1224333E+00
          3   -1    0    0  501    0  0.00000000000E+00  0.00000000000E+00  0.13205701816E+03  0.13205701816E+03  0.00000000000E+00 0. -1.
         -3   -1    0    0    0  501 -0.00000000000E+00 -0.00000000000E+00 -0.22653145523E+03  0.22653145523E+03  0.00000000000E+00 0.  1.
          5    1    1    2  502    0  0.53639924474E+02  0.59145267317E+02  0.57489573457E+02  0.98478056438E+02  0.41800000000E+01 0. -1.
         -5    1    1    2    0  502  0.49989043737E+02  0.13138862675E+02 -0.60053104747E+02  0.79343443307E+02  0.41800000000E+01 0. -1.
        -11    1    1    2    0    0 -0.14012714848E+02 -0.30498300576E+02 -0.72651206769E+02  0.80029371861E+02  0.00000000000E+00 0.  1.
         11    1    1    2    0    0 -0.89616253363E+02 -0.41785829415E+02 -0.19259699005E+02  0.10073760178E+03  0.00000000000E+00 0. -1.
</event>
<event>
 6    1  0.4988969E-006  0.1787921E+03  0.7561462E-02  0.1168977E+00
          2   -1    0    0  501    0  0.00000000000E+00  0.00000000000E+00  0.57557080284E+03  0.57557080284E+03  0.00000000000E+00 0.  1.
         -2   -1    0    0    0  501 -0.00000000000E+00 -0.00000000000E+00 -0.57561610957E+02  0.57561610957E+02  0.00000000000E+00 0. -1.
          5    1    1    2  502    0  0.27170836600E+02  0.11936349965E+02  0.33664447472E+02  0.45072144786E+02  0.41800000000E+01 0. -1.
         -5    1    1    2    0  502 -0.13586053518E+03  0.83343601575E+02  0.28229253486E+03  0.32420794034E+03  0.41800000000E+01 0. -1.
        -11    1    1    2    0    0  0.15871325475E+02 -0.70274797421E+02  0.69417909206E+02  0.10004645043E+03  0.00000000000E+00 0. -1.
         11    1    1    2    0    0  0.92818373104E+02 -0.25005154118E+02  0.13263430035E+03  0.16380587824E+03  0.00000000000E+00 0.  1.
</event>
<event>
 6    1  0.4988969E-006  0.1158333E+03  0.7561462E-02  0.1250133E+00
          2   -1    0    0  501    0  0.00000000000E+00  0.00000000000E+00  0.60362609331E+02  0.60362609331E+02  0.00000000000E+00 0. -1.
         -2   -1    0    0    0  501 -0.00000000000E+00 -0.00000000000E+00 -0.23270507202E+03  0.23270507202E+03  0.00000000000E+00 0.  1.
          5    1    1    2  502    0  0.85224921021E+02 -0.12586526029E+02 -0.56807336445E+02  0.10327755649E+03  0.41800000000E+01 0. -1.
         -5    1    1    2    0  502 -0.43641797881E+02 -0.87489549156E+01 -0.55700986597E+02  0.71422846781E+02  0.41800000000E+01 0. -1.
        -11    1    1    2    0    0  0.27848124672E+02  0.13153605549E+02 -0.27706499042E+02  0.41426869008E+02  0.00000000000E+00 0.  1.
         11    1    1    2    0    0 -0.69431247811E+02  0.81818753954E+01 -0.32127640608E+02  0.76940409075E+02  0.00000000000E+00 0. -1.
</event>
<event>
 6    1  0.4988969E-006  0.8037131E+02  0.7561462E-02  0.1328001E+00
         -2   -1    0    0    0  501 -0.00000000000E+00  0.00000000000E+00  0.21682664784E+02  0.21682664784E+02  0.00000000000E+00 0.  1.
          2   -1    0    0  501    0  0.00000000000E+00 -0.00000000000E+00 -0.65403475937E+03  0.65403475937E+03  0.00000000000E+00 0. -1.
          5    1    1    2  502    0 -0.98528617437E+01 -0.61692616111E+02 -0.63740063313E+02  0.89349459082E+02  0.41800000000E+01 0. -1.
         -5    1    1    2    0  502  0.22965987037E+02  0.17864346198E+02 -0.24686419877E+03  0.24860807803E+03  0.41800000000E+01 0. -1.
        -11    1    1    2    0    0 -0.17355969558E+02  0.54528043607E+02 -0.32117759647E+03  0.32623547584E+03  0.00000000000E+00 0. -1.
         11    1    1    2    0    0  0.42428442649E+01 -0.10699773694E+02 -0.57023603066E+00  0.11524411208E+02  0.00000000000E+00 0.  1.
</event>
<event>
 6    1  0.4988969E-006  0.9715622E+02  0.7561462E-02  0.1286392E+00
         -2   -1    0    0    0  501 -0.00000000000E+00  0.00000000000E+00  0.70322280075E+02  0.70322280075E+02  0.00000000000E+00 0.  1.
          2   -1    0    0  501    0  0.00000000000E+00 -0.00000000000E+00 -0.25820215622E+03  0.25820215622E+03  0.00000000000E+00 0. -1.
          5    1    1    2  502    0 -0.28851954857E+02  0.47204159169E+02 -0.88338290165E+02  0.10431583701E+03  0.41800000000E+01 0.  1.
         -5    1    1    2    0  502  0.28229818024E+02  0.21103901282E+02  0.33102723450E+02  0.48534111456E+02  0.41800000000E+01 0.  1.
        -11    1    1    2    0    0 -0.16196329974E+02  0.12713083831E+02 -0.15493271438E+01  0.20648099664E+02  0.00000000000E+00 0.  1.
         11    1    1    2    0    0  0.16818466808E+02 -0.81021144282E+02 -0.13109498228E+03  0.15502638816E+03  0.00000000000E+00 0. -1.
</event>
<event>
 6    1  0.4988969E-006  0.1036338E+03  0.7561462E-02  0.1272835E+00
          3   -1    0    0  501    0  0.00000000000E+00  0.00000000000E+00  0.55028528510E+02  0.55028528510E+02  0.00000000000E+00 0. -1.
         -3   -1    0    0    0  501 -0.00000000000E+00 -0.00000000000E+00 -0.33606302375E+03  0.33606302375E+03  0.00000000000E+00 0.  1.
          5    1    1    2  502    0  0.64977109807E+02 -0.33528753781E+01 -0.49840777868E+02  0.82066083802E+02  0.41800000000E+01 0. -1.
         -5    1    1    2    0  502 -0.19511124168E+02  0.40387598836E+02 -0.18492255715E+03  0.19033041441E+03  0.41800000000E+01 0. -1.
        -11    1    1    2    0    0  0.21830346971E+02 -0.13805058193E+02 -0.39480744839E+02  0.47179157407E+02  0.00000000000E+00 0.  1.
         11    1    1    2    0    0 -0.67296332610E+02 -0.23229665265E+02 -0.67904153811E+01  0.71515896639E+02  0.00000000000E+00 0. -1.
</event>
<event>
 6    1  0.4988969E-006  0.1589540E+03  0.7561462E-02  0.1189883E+00
         -1   -1    0    0    0  501 -0.00000000000E+00  0.00000000000E+00  0.95416683516E+02  0.95416683516E+02  0.00000000000E+00 0.  1.
          1   -1    0    0  501    0  0.00000000000E+00 -0.00000000000E+00 -0.30816121684E+03  0.30816121684E+03  0.00000000000E+00 0. -1.
          5    1    1    2  502    0 -0.61550645092E+02 -0.74355493689E+02 -0.20687999453E+02  0.98806310904E+02  0.41800000000E+01 0. -1.
         -5    1    1    2    0  502  0.53934427211E+02 -0.55355141257E+02 -0.64083267934E+02  0.10048508213E+03  0.41800000000E+01 0. -1.
        -11    1    1    2    0    0 -0.22832777502E+02  0.95064717671E+02 -0.41359147203E+02  0.10615656047E+03  0.00000000000E+00 0.  1.
         11    1    1    2    0    0  0.30448995383E+02  0.34645917275E+02 -0.86614118734E+02  0.98129946845E+02  0.00000000000E+00 0. -1.
</event>
<event>
 6    1  0.4988969E-006  0.8304035E+02  0.7561462E-02  0.1320638E+00
          2   -1    0    0  501    0  0.00000000000E+00  0.00000000000E+00  0.15115705663E+03  0.15115705663E+03  0.00000000000E+00 0. -1.
         -2   -1    0    0    0  501 -0.00000000000E+00 -0.00000000000E+00 -0.94159755964E+02  0.94159755964E+02  0.00000000000E+00 0.  1.
          5    1    1    2  502    0 -0.23347529963E+02 -0.40358487955E+02 -0.28770359472E+02  0.54946525728E+02  0.41800000000E+01 0.  1.
         -5    1    1    2    0  502  0.36370330769E+02  0.63269830966E+02  0.11685319927E+02  0.74026289739E+02  0.41800000000E+01 0.  1.
        -11    1    1    2    0    0  0.84989211334E+01 -0.23135709087E+02  0.87551014324E+02  0.90954234671E+02  0.00000000000E+00 0. -1.
         11    1    1    2    0    0 -0.21521721940E+02  0.22436607545E+00 -0.13468674111E+02  0.25389762458E+02  0.00000000000E+00 0.  1.
</event>
<event>
 6    1  0.4988969E-006  0.1068703E+03  0.7561462E-02  0.1266478E+00
          2   -1    0    0  501    0  0.00000000000E+00  0.00000000000E+00  0.72363211950E+03  0.72363211950E+03  0.00000000000E+00 0. -1.
         -2   -1    0    0    0  501 -0.00000000000E+00 -0.00000000000E+00 -0.20054982672E+02  0.20054982672E+02  0.00000000000E+00 0.  1.
          5    1    1    2  502    0 -0.29479911754E+02 -0.35762666115E+02  0.27922320536E+03  0.28307437944E+03  0.41800000000E+01 0. -1.
         -5    1    1    2    0  502  0.20926746421E+02  0.73712729350E+02  0.13693947534E+03  0.15697575446E+03  0.41800000000E+01 0.  1.
        -11    1    1    2    0    0 -0.31369014819E+02  0.50699794953E+01  0.16307745342E+03  0.16614444197E+03  0.00000000000E+00 0.  1.
         11    1    1    2    0    0  0.39922180153E+02 -0.43020042730E+02  0.12433700270E+03  0.13749252629E+03  0.00000000000E+00 0. -1.
</event>
<event>
 6    1  0.4988969E-006  0.9613116E+02  0.7561462E-02  0.1288649E+00
          3   -1    0    0  501    0  0.00000000000E+00  0.00000000000E+00  0.36696906411E+03  0.36696906411E+03  0.00000000000E+00 0. -1.
         -3   -1    0    0    0  501 -0.00000000000E+00 -0.00000000000E+00 -0.40370827498E+02  0.40370827498E+02  0.00000000000E+00 0.  1.
          5    1    1    2  502    0  0.33091227672E+02  0.50251078352E+02  0.11391812719E+03  0.12889923322E+03  0.41800000000E+01 0. -1.
         -5    1    1    2    0  502 -0.57665019284E+02 -0.84512549991E+01  0.23002577360E+02  0.62795454655E+02  0.41800000000E+01 0. -1.
        -11    1    1    2    0    0 -0.14847889142E+02 -0.28104567165E+02  0.13399545414E+02  0.34494555002E+02  0.00000000000E+00 0.  1.
         11    1    1    2    0    0  0.39421680754E+02 -0.13695256188E+02  0.17627798665E+03  0.18115064873E+03  0.00000000000E+00 0. -1.
</event>
<event>
 6    1  0.4988969E-006  0.1214716E+03  0.7561462E-02  0.1240689E+00
         -1   -1    0    0    0  501 -0.00000000000E+00  0.00000000000E+00  0.42410332531E+03  0.42410332531E+03  0.00000000000E+00 0.  1.
          1   -1    0    0  501    0  0.00000000000E+00 -0.00000000000E+00 -0.47587582786E+02  0.47587582786E+02  0.00000000000E+00 0. -1.
          5    1    1    2  502    0 -0.86933558168E+02  0.46346017945E+02  0.15484757438E+03  0.18357734230E+03  0.41800000000E+01 0.  1.
         -5    1    1    2    0  502  0.40807377654E+02  0.31389146353E+02  0.42126993334E+02  0.66653406118E+02  0.41800000000E+01 0.  1.
        -11    1    1    2    0    0  0.10355710811E+02 -0.37247798790E+02  0.52836727591E+01  0.39019949499E+02  0.00000000000E+00 0. -1.
         11    1    1    2    0    0  0.35770469704E+02 -0.40487365509E+02  0.17425750205E+03  0.18244021017E+03  0.00000000000E+00 0.  1.
</event>
<event>
 6    1  0.4988969E-006  0.1826798E+03  0.7561462E-02  0.1165234E+00
         -2   -1    0    0    0  501 -0.00000000000E+00  0.00000000000E+00  0.96960010755E+02  0.96960010755E+02  0.00000000000E+00 0. -1.
          2   -1    0    0  501    0  0.00000000000E+00 -0.00000000000E+00 -0.42508436520E+03  0.42508436520E+03  0.00000000000E+00 0.  1.
          5    1    1    2  502    0 -0.12030777327E+03  0.78011733164E+02 -0.52030590292E+02  0.15259241641E+03  0.41800000000E+01 0.  1.
         -5    1    1    2    0  502 -0.72095495964E+01  0.35522276863E+02 -0.10441025891E+03  0.11060191827E+03  0.41800000000E+01 0.  1.
        -11    1    1    2    0    0 -0.83059329626E+01 -0.16591862785E+02 -0.47040063403E+02  0.50567242341E+02  0.00000000000E+00 0.  1.
         11    1    1    2    0    0  0.13582325583E+03 -0.96942147243E+02 -0.12464344184E+03  0.20828279893E+03  0.00000000000E+00 0. -1.
</event>
<event>
 6    1  0.4988969E-006  0.1393148E+03  0.7561462E-02  0.1214254E+00
         -3   -1    0    0    0  501 -0.00000000000E+00  0.00000000000E+00  0.12478499291E+03  0.12478499291E+03  0.00000000000E+00 0.  1.
          3   -1    0    0  501    0  0.00000000000E+00 -0.00000000000E+00 -0.18685192076E+03  0.18685192076E+03  0.00000000000E+00 0. -1.
          5    1    1    2  502    0  0.27607169024E+02  0.12080967910E+02 -0.95160919024E+01  0.31876856374E+02  0.41800000000E+01 0.  1.
         -5    1    1    2    0  502 -0.12983495509E+03 -0.82435312946E+01 -0.29674679284E+01  0.13019734881E+03  0.41800000000E+01 0.  1.
        -11    1    1    2    0    0  0.31145947145E+02 -0.29080603621E+02  0.19879183349E+02  0.47020564237E+02  0.00000000000E+00 0.  1.
         11    1    1    2    0    0  0.71081838922E+02  0.25243167005E+02 -0.69462551363E+02  0.10254214425E+03  0.00000000000E+00 0. -1.
</event>
<event>
 6    1  0.4988969E-006  0.1153841E+03  0.7561462E-02  0.1250912E+00
          2   -1    0    0  501    0  0.00000000000E+00  0.00000000000E+00  0.42532493323E+03  0.42532493323E+03  0.00000000000E+00 0. -1.
         -2   -1    0    0    0  501 -0.00000000000E+00 -0.00000000000E+00 -0.81486699988E+02  0.81486699988E+02  0.00000000000E+00 0.  1.
          5    1    1    2  502    0 -0.28377817197E+02  0.96923567337E+02  0.15658367561E+03  0.18637434985E+03  0.41800000000E+01 0. -1.
         -5    1    1    2    0  502 -0.15638896052E+02 -0.52512904322E+02 -0.47957893603E+02  0.72935671306E+02  0.41800000000E+01 0.  1.
        -11    1    1    2    0    0  0.42802177669E+02 -0.15078265055E+02  0.17059679437E+03  0.17652945006E+03  0.00000000000E+00 0. -1.
         11    1    1    2    0    0  0.12145355798E+01 -0.29332397961E+02  0.64615656865E+02  0.70972162000E+02  0.00000000000E+00 0.  1.
</event>
<event>
 6    1  0.4988969E-006  0.1259093E+03  0.7561462E-02  0.1233655E+00
          1   -1    0    0  501    0  0.00000000000E+00  0.00000000000E+00  0.87898046586E+02  0.87898046586E+02  0.00000000000E+00 0. -1.
         -1   -1    0    0    0  501 -0.00000000000E+00 -0.00000000000E+00 -0.19236067071E+03  0.19236067071E+03  0.00000000000E+00 0.  1.
          5    1    1    2  502    0  0.76898189954E+02  0.66349803278E+02 -0.29959174671E+02  0.10597477323E+03  0.41800000000E+01 0. -1.
         -5    1    1    2    0  502 -0.35203414124E+02 -0.17214404662E+02 -0.39922491270E+02  0.56097181775E+02  0.41800000000E+01 0.  1.
        -11    1    1    2    0    0 -0.54709935791E+02 -0.68350229886E+02 -0.36598430156E+02  0.94891391019E+02  0.00000000000E+00 0.  1.
         11    1    1    2    0    0  0.13015159961E+02  0.19214831269E+02  0.20174719762E+01  0.23295371272E+02  0.00000000000E+00 0. -1.
</event>
<event>
 6    1  0.4988969E-006  0.1081804E+03  0.7561462E-02  0.1263977E+00
         -3   -1    0    0    0  501 -0.00000000000E+00  0.00000000000E+00  0.11391536698E+03  0.11391536698E+03  0.00000000000E+00 0.  1.
          3   -1    0    0  501    0  0.00000000000E+00 -0.00000000000E+00 -0.14592427051E+03  0.14592427051E+03  0.00000000000E+00 0. -1.
          5    1    1    2  502    0  0.46352829076E+02 -0.10955617481E+02 -0.67798861594E+01  0.48291299155E+02  0.41800000000E+01 0.  1.
         -5    1    1    2    0  502 -0.55556506262E+02  0.57206327582E+02  0.40714653529E+02  0.89633948454E+02  0.41800000000E+01 0.  1.
        -11    1    1    2    0    0  0.35795436640E+02 -0.52579029986E+00  0.19447028768E+01  0.35852079562E+02  0.00000000000E+00 0.  1.
         11    1    1    2    0    0 -0.26591759453E+02 -0.45724919801E+02 -0.67888373777E+02  0.86062310309E+02  0.00000000000E+00 0. -1.
</event>
<event>
 6    1  0.4988969E-006  0.6766167E+02  0.7561462E-02  0.1368230E+00
          3   -1    0    0  501    0  0.00000000000E+00  0.00000000000E+00  0.62794060386E+02  0.62794060386E+02  0.00000000000E+00 0. -1.
         -3   -1    0    0    0  501 -0.00000000000E+00 -0.00000000000E+00 -0.21530405309E+03  0.21530405309E+03  0.00000000000E+00 0.  1.
          5    1    1    2  502    0 -0.23910742585E+02 -0.93510428872E+00  0.16096858437E+02  0.29140680887E+02  0.41800000000E+01 0.  1.
         -5    1    1    2    0  502  0.20777055935E+02 -0.15542270203E+02 -0.16051817506E+03  0.16265547990E+03  0.41800000000E+01 0.  1.
        -11    1    1    2    0    0  0.65659498456E-01 -0.34089996532E+02  0.36934202144E+01  0.34289554205E+02  0.00000000000E+00 0.  1.
         11    1    1    2    0    0  0.30680271517E+01  0.50567371024E+02 -0.11782096293E+02  0.52012398483E+02  0.00000000000E+00 0. -1.
</event>
<event>
 6    1  0.4988969E-006  0.1183575E+03  0.7561462E-02  0.1245832E+00
         -1   -1    0    0    0  501 -0.00000000000E+00  0.00000000000E+00  0.20421331033E+03  0.20421331033E+03  0.00000000000E+00 0.  1.
          1   -1    0    0  501    0  0.00000000000E+00 -0.00000000000E+00 -0.73714019212E+02  0.73714019212E+02  0.00000000000E+00 0. -1.
          5    1    1    2  502    0  0.56775999601E+02  0.13444956402E+01  0.45517501666E+02  0.72901557988E+02  0.41800000000E+01 0. -1.
         -5    1    1    2    0  502 -0.52631412196E+02 -0.57354417693E+02  0.29147314151E+02  0.83226396659E+02  0.41800000000E+01 0. -1.
        -11    1    1    2    0    0 -0.13010583811E+02 -0.20778280270E+02  0.33170925906E+02  0.41247091383E+02  0.00000000000E+00 0.  1.
         11    1    1    2    0    0  0.88659964059E+01  0.76788202322E+02  0.22663549396E+02  0.80552283514E+02  0.00000000000E+00 0. -1.
</event>
<event>
 6    1  0.4988969E-006  0.1965244E+03  0.7561462E-02  0.1152705E+00
         -2   -1    0    0    0  501 -0.00000000000E+00  0.00000000000E+00  0.26889967235E+03  0.26889967235E+03  0.00000000000E+00 0.  1.
          2   -1    0    0  501    0  0.00000000000E+00 -0.00000000000E+00 -0.29980305044E+03  0.29980305044E+03  0.00000000000E+00 0. -1.
          5    1    1    2  502    0 -0.23737109243E+02 -0.16099435023E+03  0.14776821869E+03  0.21985347397E+03  0.41800000000E+01 0.  1.
         -5    1    1    2    0  502  0.50308412391E+02 -0.13754989522E+02  0.30003901242E+02  0.60314530453E+02  0.41800000000E+01 0.  1.
        -11    1    1    2    0    0 -0.21149125110E+02  0.71900145603E+02 -0.26933424823E+02  0.79638720503E+02  0.00000000000E+00 0. -1.
         11    1    1    2    0    0 -0.54221780376E+01  0.10284919415E+03 -0.18174207320E+03  0.20889599786E+03  0.00000000000E+00 0.  1.
</event>
<event>
 6    1  0.4988969E-006  0.1352584E+03  0.7561462E-02  0.1219855E+00
          2   -1    0    0  501    0  0.00000000000E+00  0.00000000000E+00  0.10102856319E+04  0.10102856319E+04  0.00000000000E+00 0. -1.
         -2   -1    0    0    0  501 -0.00000000000E+00 -0.00000000000E+00 -0.28034979314E+02  0.28034979314E+02  0.00000000000E+00 0.  1.
          5    1    1    2  502    0 -0.37896479231E-02  0.50299791313E+02  0.46357922462E+03  0.46631881682E+03  0.41800000000E+01 0.  1.
         -5    1    1    2    0  502 -0.32374301050E+01  0.76646457602E+02  0.10892616340E+03  0.13329494323E+03  0.41800000000E+01 0.  1.
        -11    1    1    2    0    0 -0.24946293674E+02 -0.18212375919E+02  0.18383092467E+03  0.18640766365E+03  0.00000000000E+00 0.  1.
         11    1    1    2    0    0  0.28187513427E+02 -0.10873387300E+03  0.22591433991E+03  0.25229918753E+03  0.00000000000E+00 0. -1.
</event>
<event>
 6    1  0.4988969E-006  0.9142244E+02  0.7561462E-02  0.1299443E+00
         -1   -1    0    0    0  501 -0.00000000000E+00  0.00000000000E+00  0.34656134727E+02  0.34656134727E+02  0.00000000000E+00 0.  1.
          1   -1    0    0  501    0  0.00000000000E+00 -0.00000000000E+00 -0.52140369485E+03  0.52140369485E+03  0.00000000000E+00 0. -1.
          5    1    1    2  502    0 -0.30716277531E+02 -0.26839791779E+02 -0.18239578348E+03  0.18694800977E+03  0.41800000000E+01 0.  1.
         -5    1    1    2    0  502 -0.32924088715E+02  0.14510785664E+02  0.81540478128E+01  0.37128417877E+02  0.41800000000E+01 0.  1.
        -11    1    1    2    0    0  0.66013146740E+02 -0.23229642408E+02 -0.14868020934E+03  0.16432637183E+03  0.00000000000E+00 0.  1.
         11    1    1    2    0    0 -0.23727804938E+01  0.35558648524E+02 -0.16382561512E+03  0.16765703010E+03  0.00000000000E+00 0. -1.
</event>
<event>
 6    1  0.4988969E-006  0.1103491E+03  0.7561462E-02  0.1259925E+00
         -2   -1    0    0    0  501 -0.00000000000E+00  0.00000000000E+00  0.26179243019E+02  0.26179243019E+02  0.00000000000E+00 0.  1.
          2   -1    0    0  501    0  0.00000000000E+00 -0.00000000000E+00 -0.56043050138E+03  0.56043050138E+03  0.00000000000E+00 0. -1.
          5    1    1    2  502    0 -0.58869501254E+02 -0.14118125411E+02 -0.19751061236E+03  0.20662249160E+03  0.41800000000E+01 0. -1.
         -5    1    1    2    0  502  0.47401416567E+02 -0.35124036660E+02 -0.60917872896E+02  0.84906135714E+02  0.41800000000E+01 0. -1.
        -11    1    1    2    0    0 -0.17354196328E+02  0.65513378776E+02 -0.14376526633E+03  0.15893905352E+03  0.00000000000E+00 0.  1.
         11    1    1    2    0    0  0.28822281015E+02 -0.16271216706E+02 -0.13205750678E+03  0.13614206357E+03  0.00000000000E+00 0. -1.
</event>
<event>
 6    1  0.4988969E-006  0.3331026E+03  0.7561462E-02  0.1069772E+00
          2   -1    0    0  501    0  0.00000000000E+00  0.00000000000E+00  0.16310498309E+04  0.16310498309E+04  0.00000000000E+00 0. -1.
         -2   -1    0    0    0  501 -0.00000000000E+00 -0.00000000000E+00 -0.79877584098E+02  0.79877584098E+02  0.00000000000E+00 0.  1.
          5    1    1    2  502    0  0.26613257768E+03 -0.30289613901E+02  0.54319632550E+03  0.60565974775E+03  0.41800000000E+01 0. -1.
         -5    1    1    2    0  502  0.64535873029E+02 -0.80483659523E+01  0.37265008652E+02  0.75072021233E+02  0.41800000000E+01 0. -1.
        -11    1    1    2    0    0 -0.75274667284E+02  0.14389644287E+02  0.12679661325E+03  0.14815774879E+03  0.00000000000E+00 0. -1.
         11    1    1    2    0    0 -0.25539378342E+03  0.23948335566E+02  0.84391429936E+03  0.88203789718E+03  0.00000000000E+00 0.  1.
</event>
<event>
 6    1  0.4988969E-006  0.1320004E+03  0.7561462E-02  0.1224517E+00
         -1   -1    0    0    0  501 -0.00000000000E+00  0.00000000000E+00  0.35937951864E+02  0.35937951864E+02  0.00000000000E+00 0.  1.
          1   -1    0    0  501    0  0.00000000000E+00 -0.00000000000E+00 -0.56277502918E+03  0.56277502918E+03  0.00000000000E+00 0. -1.
          5    1    1    2  502    0 -0.41930684248E+02  0.10755236125E+03 -0.14666719071E+03  0.18669341157E+03  0.41800000000E+01 0.  1.
         -5    1    1    2    0  502 -0.71648690884E+01 -0.23930118144E+02 -0.12651491915E+03  0.12902512573E+03  0.41800000000E+01 0.  1.
        -11    1    1    2    0    0  0.71957816248E+01 -0.80850266135E+02 -0.13997744817E+03  0.16180924202E+03  0.00000000000E+00 0.  1.
         11    1    1    2    0    0  0.41899771712E+02 -0.27719769679E+01 -0.11367751929E+03  0.12118520172E+03  0.00000000000E+00 0. -1.
</event>
<event>
 6    1  0.4988969E-006  0.9308430E+02  0.7561462E-02  0.1295550E+00
         -2   -1    0    0    0  501 -0.00000000000E+00  0.00000000000E+00  0.29286141071E+02  0.29286141071E+02  0.00000000000E+00 0.  1.
          2   -1    0    0  501    0  0.00000000000E+00 -0.00000000000E+00 -0.41508534255E+03  0.41508534255E+03  0.00000000000E+00 0. -1.
          5    1    1    2  502    0  0.22053323937E+02  0.48845487756E+02 -0.90999904387E+02  0.10569146498E+03  0.41800000000E+01 0. -1.
         -5    1    1    2    0  502 -0.38764494077E+02 -0.61137485860E+02 -0.98304428265E+02  0.12215445630E+03  0.41800000000E+01 0. -1.
        -11    1    1    2    0    0  0.83274909220E+01 -0.22563593896E+02 -0.90727060810E+01  0.25705580526E+02  0.00000000000E+00 0.  1.
         11    1    1    2    0    0  0.83836792174E+01  0.34855592000E+02 -0.18742216275E+03  0.19081998182E+03  0.00000000000E+00 0. -1.
</event>
<event>
 6    1  0.4988969E-006  0.1092820E+03  0.7561462E-02  0.1261905E+00
          2   -1    0    0  501    0  0.00000000000E+00  0.00000000000E+00  0.82712044868E+02  0.82712044868E+02  0.00000000000E+00 0. -1.
         -2   -1    0    0    0  501 -0.00000000000E+00 -0.00000000000E+00 -0.20899035359E+03  0.20899035359E+03  0.00000000000E+00 0.  1.
          5    1    1    2  502    0 -0.19117106221E+02  0.63861639031E+02 -0.27397075596E+02  0.72193107990E+02  0.41800000000E+01 0. -1.
         -5    1    1    2    0  502  0.15072496332E+02 -0.37965127111E+02 -0.10073629921E+03  0.10878329560E+03  0.41800000000E+01 0. -1.
        -11    1    1    2    0    0  0.40949910226E+02 -0.51497881059E+02  0.10515328579E+01  0.65802983385E+02  0.00000000000E+00 0.  1.
         11    1    1    2    0    0 -0.36905300337E+02  0.25601369138E+02  0.80353323396E+00  0.44923011479E+02  0.00000000000E+00 0. -1.
</event>
<event>
 6    1  0.4988969E-006  0.2088546E+03  0.7561462E-02  0.1142476E+00
          2   -1    0    0  501    0  0.00000000000E+00  0.00000000000E+00  0.17509122333E+04  0.17509122333E+04  0.00000000000E+00 0.  1.
         -2   -1    0    0    0  501 -0.00000000000E+00 -0.00000000000E+00 -0.26783473724E+02  0.26783473724E+02  0.00000000000E+00 0. -1.
          5    1    1    2  502    0 -0.15890042366E+03  0.90416431184E+01  0.60263164725E+03  0.62330848753E+03  0.41800000000E+01 0. -1.
         -5    1    1    2    0  502 -0.20810088357E+02 -0.60944577272E+02  0.31123140047E+03  0.31785178671E+03  0.41800000000E+01 0. -1.
        -11    1    1    2    0    0  0.15972770520E+03  0.62286237675E+02  0.78106790228E+03  0.79966216816E+03  0.00000000000E+00 0.  1.
         11    1    1    2    0    0  0.19982806821E+02 -0.10383303521E+02  0.29197809562E+02  0.36873264619E+02  0.00000000000E+00 0. -1.
</event>
<event>
 6    1  0.4988969E-006  0.1553942E+03  0.7561462E-02  0.1193997E+00
         -2   -1    0    0    0  501 -0.00000000000E+00  0.00000000000E+00  0.61293725690E+02  0.61293725690E+02  0.00000000000E+00 0. -1.
          2   -1    0    0  501    0  0.00000000000E+00 -0.00000000000E+00 -0.64131294406E+03  0.64131294406E+03  0.00000000000E+00 0.  1.
          5    1    1    2  502    0  0.30708121922E+02 -0.69967627143E+02 -0.82812017635E+02  0.11275531147E+03  0.41800000000E+01 0. -1.
         -5    1    1    2    0  502  0.95309898368E+02  0.29611529103E+02 -0.44053222364E+02  0.10917407285E+03  0.41800000000E+01 0. -1.
        -11    1    1    2    0    0 -0.50918220371E+02  0.28473891275E+02 -0.33590153248E+03  0.34093000333E+03  0.00000000000E+00 0.  1.
         11    1    1    2    0    0 -0.75099799918E+02  0.11882206765E+02 -0.11725244590E+03  0.13974728210E+03  0.00000000000E+00 0. -1.
</event>
<event>
 6    1  0.4988969E-006  0.1680840E+03  0.7561462E-02  0.1179861E+00
          1   -1    0    0  501    0  0.00000000000E+00  0.00000000000E+00  0.11638126244E+03  0.11638126244E+03  0.00000000000E+00 0. -1.
         -1   -1    0    0    0  501 -0.00000000000E+00 -0.00000000000E+00 -0.33184760385E+03  0.33184760385E+03  0.00000000000E+00 0.  1.
          5    1    1    2  502    0  0.58877176863E+02  0.34349533161E+02 -0.89039668696E+02  0.11221384667E+03  0.41800000000E+01 0. -1.
         -5    1    1    2    0  502  0.86450466695E+02  0.23398873415E+02  0.33278790349E+02  0.95635457629E+02  0.41800000000E+01 0. -1.
        -11    1    1    2    0    0 -0.85703101356E+02 -0.77355809813E+02 -0.88563857555E+02  0.14550773092E+03  0.00000000000E+00 0. -1.
         11    1    1    2    0    0 -0.59624542201E+02  0.19607403237E+02 -0.71141605513E+02  0.94871831064E+02  0.00000000000E+00 0.  1.
</event>
<event>
 6    1  0.4988969E-006  0.3516948E+03  0.7561462E-02  0.1061922E+00
         -2   -1    0    0    0  501 -0.00000000000E+00  0.00000000000E+00  0.36065593040E+03  0.36065593040E+03  0.00000000000E+00 0.  1.
          2   -1    0    0  501    0  0.00000000000E+00 -0.00000000000E+00 -0.35157881668E+03  0.35157881668E+03  0.00000000000E+00 0. -1.
          5    1    1    2  502    0 -0.16763121766E+02 -0.25344571791E+03 -0.90667720710E+01  0.25419561942E+03  0.41800000000E+01 0.  1.
         -5    1    1    2    0  502  0.60284843011E+02 -0.82017844796E+02  0.33710104458E+02  0.10730812040E+03  0.41800000000E+01 0.  1.
        -11    1    1    2    0    0 -0.41133828895E+02  0.64462322866E+02  0.15246250599E+02  0.77973271743E+02  0.00000000000E+00 0.  1.
         11    1    1    2    0    0 -0.23878923493E+01  0.27100123984E+03 -0.30812469257E+02  0.27275773552E+03  0.00000000000E+00 0. -1.
</event>
<event>
 6    1  0.4988969E-006  0.2493104E+03  0.7561462E-02  0.1113741E+00
         -2   -1    0    0    0  501 -0.00000000000E+00  0.00000000000E+00  0.14132936170E+03  0.14132936170E+03  0.00000000000E+00 0.  1.
          2   -1    0    0  501    0  0.00000000000E+00 -0.00000000000E+00 -0.47976675879E+03  0.47976675879E+03  0.00000000000E+00 0. -1.
          5    1    1    2  502    0  0.33238968052E+02 -0.93070479729E+02 -0.13870493074E+03  0.17036277001E+03  0.41800000000E+01 0.  1.
         -5    1    1    2    0  502  0.13885666794E+03 -0.67980485646E+02 -0.77100135009E+02  0.17281326303E+03  0.41800000000E+01 0.  1.
        -11    1    1    2    0    0 -0.64723725705E+02  0.10645964198E+03 -0.36457049590E+02  0.12981499337E+03  0.00000000000E+00 0.  1.
         11    1    1    2    0    0 -0.10737191029E+03  0.54591323396E+02 -0.86175281751E+02  0.14810509408E+03  0.00000000000E+00 0. -1.
</event>
<event>
 6    1  0.4988969E-006  0.9395807E+02  0.7561462E-02  0.1293540E+00
          1   -1    0    0  501    0  0.00000000000E+00  0.00000000000E+00  0.16038091788E+02  0.16038091788E+02  0.00000000000E+00 0. -1.
         -1   -1    0    0    0  501 -0.00000000000E+00 -0.00000000000E+00 -0.81418262802E+03  0.81418262802E+03  0.00000000000E+00 0.  1.
          5    1    1    2  502    0  0.41053822787E+02  0.47154909977E+02 -0.12036371165E+03  0.13569781642E+03  0.41800000000E+01 0.  1.
         -5    1    1    2    0  502 -0.17623905569E+02 -0.21868955233E+02 -0.38545428759E+03  0.38649881432E+03  0.41800000000E+01 0.  1.
        -11    1    1    2    0    0  0.97595926720E+01  0.30457437680E+02 -0.87027371230E+02  0.92718220984E+02  0.00000000000E+00 0. -1.
         11    1    1    2    0    0 -0.33189509890E+02 -0.55743392424E+02 -0.20529916576E+03  0.21530586807E+03  0.00000000000E+00 0.  1.
</event>
<event>
 6    1  0.4988969E-006  0.9306876E+02  0.7561462E-02  0.1295586E+00
         -2   -1    0    0    0  501 -0.00000000000E+00  0.00000000000E+00  0.11426776183E+03  0.11426776183E+03  0.00000000000E+00 0.  1.
          2   -1    0    0  501    0  0.00000000000E+00 -0.00000000000E+00 -0.12016283271E+03  0.12016283271E+03  0.00000000000E+00 0. -1.
          5    1    1    2  502    0 -0.32574802319E+02 -0.62322148269E+02  0.47253323573E+02  0.84826392707E+02  0.41800000000E+01 0.  1.
         -5    1    1    2    0  502  0.46621803393E+01  0.31222318086E+02 -0.35371524260E+02  0.47593972315E+02  0.41800000000E+01 0.  1.
        -11    1    1    2    0    0  0.53938764386E+01  0.52503382375E+02  0.16930819877E+02  0.55428798702E+02  0.00000000000E+00 0.  1.
         11    1    1    2    0    0  0.22518745541E+02 -0.21403552192E+02 -0.34707690074E+02  0.46581430822E+02  0.00000000000E+00 0. -1.
</event>
<event>
 6    1  0.4988969E-006  0.1250070E+03  0.7561462E-02  0.1235058E+00
         -1   -1    0    0    0  501 -0.00000000000E+00  0.00000000000E+00  0.14167812569E+03  0.14167812569E+03  0.00000000000E+00 0.  1.
          1   -1    0    0  501    0  0.00000000000E+00 -0.00000000000E+00 -0.14247491120E+03  0.14247491120E+03  0.00000000000E+00 0. -1.
          5    1    1    2  502    0 -0.47037695809E+02 -0.61299185642E+02  0.30905083316E+02  0.83323055406E+02  0.41800000000E+01 0. -1.
         -5    1    1    2    0  502  0.68814675701E+02 -0.16748566807E+02  0.13838671825E+02  0.72283852414E+02  0.41800000000E+01 0. -1.
        -11    1    1    2    0    0 -0.31439952948E+02  0.10050696917E+02  0.15678771209E+02  0.36541907674E+02  0.00000000000E+00 0.  1.
         11    1    1    2    0    0  0.96629730560E+01  0.67997055532E+02 -0.61219311864E+02  0.92004221394E+02  0.00000000000E+00 0. -1.
</event>
<event>
 6    1  0.4988969E-006  0.1224790E+03  0.7561462E-02  0.1239063E+00
          2   -1    0    0  501    0  0.00000000000E+00  0.00000000000E+00  0.16664050290E+03  0.16664050290E+03  0.00000000000E+00 0. -1.
         -2   -1    0    0    0  501 -0.00000000000E+00 -0.00000000000E+00 -0.13000052359E+03  0.13000052359E+03  0.00000000000E+00 0.  1.
          5    1    1    2  502    0 -0.22638912870E+02  0.21900253413E+02  0.17318152590E+02  0.36187460323E+02  0.41800000000E+01 0. -1.
         -5    1    1    2    0  502  0.11210657836E+03 -0.11697152627E+02 -0.39618271975E+02  0.11954826709E+03  0.41800000000E+01 0. -1.
        -11    1    1    2    0    0 -0.17214051249E+02  0.16030430668E+02  0.59557384717E+02  0.64034212278E+02  0.00000000000E+00 0. -1.
         11    1    1    2    0    0 -0.72253614238E+02 -0.26233531454E+02 -0.61728602103E+00  0.76871086795E+02  0.00000000000E+00 0.  1.
</event>
<event>
 6    1  0.4988969E-006  0.1707271E+03  0.7561462E-02  0.1177092E+00
         -2   -1    0    0    0  501 -0.00000000000E+00  0.00000000000E+00  0.16048260475E+03  0.16048260475E+03  0.00000000000E+00 0.  1.
          2   -1    0    0  501    0  0.00000000000E+00 -0.00000000000E+00 -0.20117175958E+03  0.20117175958E+03  0.00000000000E+00 0. -1.
          5    1    1    2  502    0 -0.25838515376E+02 -0.12807765516E+03 -0.34270194200E+02  0.13514227036E+03  0.41800000000E+01 0.  1.
         -5    1    1    2    0  502 -0.53354337384E+02  0.10213072115E+02  0.10808021652E+02  0.55545277853E+02  0.41800000000E+01 0.  1.
        -11    1    1    2    0    0  0.90591421441E+02  0.98902266370E+02  0.11607349734E+02  0.13462241455E+03  0.00000000000E+00 0.  1.
         11    1    1    2    0    0 -0.11398568681E+02  0.18962316677E+02 -0.28834332020E+02  0.36344401561E+02  0.00000000000E+00 0. -1.
</event>
<event>
 6    1  0.4988969E-006  0.9417561E+02  0.7561462E-02  0.1293044E+00
          2   -1    0    0  501    0  0.00000000000E+00  0.00000000000E+00  0.27640732734E+03  0.27640732734E+03  0.00000000000E+00 0. -1.
         -2   -1    0    0    0  501 -0.00000000000E+00 -0.00000000000E+00 -0.60266543915E+02  0.60266543915E+02  0.00000000000E+00 0.  1.
          5    1    1    2  502    0 -0.24167035049E+02  0.82899780928E+02  0.59450287521E+02  0.10492010459E+03  0.41800000000E+01 0.  1.
         -5    1    1    2    0  502  0.10363928989E+02 -0.37121093246E+02 -0.60783942692E+01  0.39240360151E+02  0.41800000000E+01 0.  1.
        -11    1    1    2    0    0  0.28561641806E+02 -0.27607740337E+02  0.16431944790E+03  0.16905276001E+03  0.00000000000E+00 0. -1.
         11    1    1    2    0    0 -0.14758535745E+02 -0.18170947344E+02 -0.15505577339E+01  0.23460646496E+02  0.00000000000E+00 0.  1.
</event>
<event>
 6    1  0.4988969E-006  0.8105131E+02  0.7561462E-02  0.1326094E+00
          1   -1    0    0  501    0  0.00000000000E+00  0.00000000000E+00  0.38394624520E+02  0.38394624520E+02  0.00000000000E+00 0. -1.
         -1   -1    0    0    0  501 -0.00000000000E+00 -0.00000000000E+00 -0.48925856216E+03  0.48925856216E+03  0.00000000000E+00 0.  1.
          5    1    1    2  502    0 -0.22647052954E+02 -0.38608917794E+02 -0.29273106102E+03  0.29616293493E+03  0.41800000000E+01 0.  1.
         -5    1    1    2    0  502  0.93957035829E+01 -0.35320280935E+02 -0.73563262432E+01  0.37515189283E+02  0.41800000000E+01 0.  1.
        -11    1    1    2    0    0  0.11951754753E+02  0.79191532364E+01  0.11758444134E+02  0.18542341764E+02  0.00000000000E+00 0. -1.
         11    1    1    2    0    0  0.12995946175E+01  0.66010045493E+02 -0.16253499450E+03  0.17543272069E+03  0.00000000000E+00 0.  1.
</event>
<event>
 6    1  0.4988969E-006  0.3409797E+03  0.7561462E-02  0.1066379E+00
         -1   -1    0    0    0  501 -0.00000000000E+00  0.00000000000E+00  0.28251520269E+03  0.28251520269E+03  0.00000000000E+00 0.  1.
          1   -1    0    0  501    0  0.00000000000E+00 -0.00000000000E+00 -0.48969093983E+03  0.48969093983E+03  0.00000000000E+00 0. -1.
          5    1    1    2  502    0 -0.87399205581E+02 -0.18314881132E+02  0.41896298080E+02  0.98726025950E+02  0.41800000000E+01 0.  1.
         -5    1    1    2    0  502 -0.17009591393E+03 -0.19323500294E+03 -0.17512954003E+02  0.25806309743E+03  0.41800000000E+01 0.  1.
        -11    1    1    2    0    0  0.22267992499E+03  0.16590168696E+03 -0.14980004922E+03  0.31551509231E+03  0.00000000000E+00 0.  1.
         11    1    1    2    0    0  0.34815194519E+02  0.45648197118E+02 -0.81759032004E+02  0.99901926827E+02  0.00000000000E+00 0. -1.
</event>
<event>
 6    1  0.4988969E-006  0.9322788E+02  0.7561462E-02  0.1295218E+00
         -1   -1    0    0    0  501 -0.00000000000E+00  0.00000000000E+00  0.14659733341E+03  0.14659733341E+03  0.00000000000E+00 0.  1.
          1   -1    0    0  501    0  0.00000000000E+00 -0.00000000000E+00 -0.81752170980E+02  0.81752170980E+02  0.00000000000E+00 0. -1.
          5    1    1    2  502    0 -0.41279940180E+02  0.32063655837E+02 -0.20078786154E+02  0.56149279072E+02  0.41800000000E+01 0.  1.
         -5    1    1    2    0  502  0.32441191688E+02 -0.25576314610E+02  0.65126107530E+02  0.77236397308E+02  0.41800000000E+01 0.  1.
        -11    1    1    2    0    0 -0.41705284050E+02 -0.39031211652E+01  0.13242733854E+02  0.43931026307E+02  0.00000000000E+00 0. -1.
         11    1    1    2    0    0  0.50544032541E+02 -0.25842200620E+01  0.65551071973E+01  0.51032801699E+02  0.00000000000E+00 0.  1.
</event>
<event>
 6    1  0.4988969E-006  0.1045790E+03  0.7561462E-02  0.1270951E+00
          2   -1    0    0  501    0  0.00000000000E+00  0.00000000000E+00  0.14505350557E+03  0.14505350557E+03  0.00000000000E+00 0. -1.
         -2   -1    0    0    0  501 -0.00000000000E+00 -0.00000000000E+00 -0.38368056735E+03  0.38368056735E+03  0.00000000000E+00 0.  1.
          5    1    1    2  502    0 -0.53195953204E+01  0.90775480584E+02 -0.99375544132E+02  0.13476445058E+03  0.41800000000E+01 0. -1.
         -5    1    1    2    0  502  0.41676763213E+00 -0.44371498781E+02 -0.25376456747E+03  0.25764885349E+03  0.41800000000E+01 0.  1.
        -11    1    1    2    0    0  0.30977624926E+02 -0.26286019106E+02  0.70215482187E+02  0.81122019115E+02  0.00000000000E+00 0. -1.
         11    1    1    2    0    0 -0.26074797238E+02 -0.20117962697E+02  0.44297567629E+02  0.55198749732E+02  0.00000000000E+00 0.  1.
</event>
<event>
 6    1  0.4988969E-006  0.1213759E+03  0.7561462E-02  0.1240844E+00
          1   -1    0    0  501    0  0.00000000000E+00  0.00000000000E+00  0.28562921501E+02  0.28562921501E+02  0.00000000000E+00 0. -1.
         -1   -1    0    0    0  501 -0.00000000000E+00 -0.00000000000E+00 -0.56360219098E+03  0.56360219098E+03  0.00000000000E+00 0.  1.
          5    1    1    2  502    0 -0.12095267778E+02 -0.46577237902E+02 -0.11788419063E+03  0.12739658314E+03  0.41800000000E+01 0. -1.
         -5    1    1    2    0  502  0.68742526449E+02  0.56231031015E+02 -0.25975911812E+03  0.27455370265E+03  0.41800000000E+01 0. -1.
        -11    1    1    2    0    0 -0.48171443532E+02  0.35345789543E+02 -0.10335897617E+03  0.11938547133E+03  0.00000000000E+00 0.  1.
         11    1    1    2    0    0 -0.84758151393E+01 -0.44999582655E+02 -0.54036984550E+02  0.70829355360E+02  0.00000000000E+00 0. -1.
</event>
<event>
 6    1  0.4988969E-006  0.1049525E+03  0.7561462E-02  0.1270213E+00
         -1   -1    0    0    0  501 -0.00000000000E+00  0.00000000000E+00  0.55951143573E+02  0.55951143573E+02  0.00000000000E+00 0.  1.
          1   -1    0    0  501    0  0.00000000000E+00 -0.00000000000E+00 -0.24566974075E+03  0.24566974075E+03  0.00000000000E+00 0. -1.
          5    1    1    2  502    0 -0.37207502738E+01  0.46745089089E+02  0.36464800128E+01  0.47219874555E+02  0.41800000000E+01 0.  1.
         -5    1    1    2    0  502 -0.37617563803E+02 -0.49353840499E+02 -0.93402061305E+02  0.11221541843E+03  0.41800000000E+01 0.  1.
        -11    1    1    2    0    0  0.61015997781E+01 -0.42755330181E+02 -0.49851470841E+02  0.65957690407E+02  0.00000000000E+00 0.  1.
         11    1    1    2    0    0  0.35236714299E+02  0.45364081591E+02 -0.50111545047E+02  0.76227900930E+02  0.00000000000E+00 0. -1.
</event>
<event>
 6    1  0.4988969E-006  0.1243999E+03  0.7561462E-02  0.1236010E+00
         -1   -1    0    0    0  501 -0.00000000000E+00  0.00000000000E+00  0.47937517529E+03  0.47937517529E+03  0.00000000000E+00 0.  1.
          1   -1    0    0  501    0  0.00000000000E+00 -0.00000000000E+00 -0.44275607217E+02  0.44275607217E+02  0.00000000000E+00 0. -1.
          5    1    1    2  502    0 -0.39439761427E+02 -0.50583745355E+00  0.89675511376E+02  0.98055700464E+02  0.41800000000E+01 0. -1.
         -5    1    1    2    0  502  0.79386800805E+02  0.82071024874E+02  0.20390413130E+03  0.23373550100E+03  0.41800000000E+01 0. -1.
        -11    1    1    2    0    0 -0.34154986664E+02 -0.38680651270E+02  0.13927549669E+03  0.14852750545E+03  0.00000000000E+00 0.  1.
         11    1    1    2    0    0 -0.57920527139E+01 -0.42884536150E+02  0.22444287096E+01  0.43332075598E+02  0.00000000000E+00 0. -1.
</event>
<event>
 6    1  0.4988969E-006  0.1165746E+03  0.7561462E-02  0.1248857E+00
         -2   -1    0    0    0  501 -0.00000000000E+00  0.00000000000E+00  0.53769652157E+02  0.53769652157E+02  0.00000000000E+00 0. -1.
          2   -1    0    0  501    0  0.00000000000E+00 -0.00000000000E+00 -0.44859268311E+03  0.44859268311E+03  0.00000000000E+00 0.  1.
          5    1    1    2  502    0  0.33472685192E+02 -0.32172500755E+02  0.78155685899E+01  0.47265695501E+02  0.41800000000E+01 0. -1.
         -5    1    1    2    0  502  0.67349177004E+02 -0.48688086652E+01 -0.17463965414E+03  0.18728613975E+03  0.41800000000E+01 0. -1.
        -11    1    1    2    0    0 -0.45550859670E+02  0.43805554586E+02 -0.47895563315E+02  0.79295601483E+02  0.00000000000E+00 0. -1.
         11    1    1    2    0    0 -0.55271002526E+02 -0.67642451656E+01 -0.18010338208E+03  0.18851489853E+03  0.00000000000E+00 0.  1.
</event>
<event>
 6    1  0.4988969E-006  0.1218891E+03  0.7561462E-02  0.1240013E+00
         -2   -1    0    0    0  501 -0.00000000000E+00  0.00000000000E+00  0.86830101425E+02  0.86830101425E+02  0.00000000000E+00 0.  1.
          2   -1    0    0  501    0  0.00000000000E+00 -0.00000000000E+00 -0.19838206650E+03  0.19838206650E+03  0.00000000000E+00 0. -1.
          5    1    1    2  502    0 -0.23403949553E+02  0.96099848149E+02 -0.25582502689E+02  0.10224902206E+03  0.41800000000E+01 0. -1.
         -5    1    1    2    0  502  0.81424563349E+01 -0.36414385190E+02  0.75896118324E+01  0.38306417892E+02  0.41800000000E+01 0. -1.
        -11    1    1    2    0    0 -0.36861672115E+02 -0.27287285660E+02 -0.57227640127E+02  0.73337450353E+02  0.00000000000E+00 0. -1.
         11    1    1    2    0    0  0.52123165333E+02 -0.32398177299E+02 -0.36331434095E+02  0.71319277619E+02  0.00000000000E+00 0.  1.
</event>
<event>
 6    1  0.4988969E-006  0.9667288E+02  0.7561462E-02  0.1287452E+00
         -1   -1    0    0    0  501 -0.00000000000E+00  0.00000000000E+00  0.13731059152E+03  0.13731059152E+03  0.00000000000E+00 0.  1.
          1   -1    0    0  501    0  0.00000000000E+00 -0.00000000000E+00 -0.11140253428E+03  0.11140253428E+03  0.00000000000E+00 0. -1.
          5    1    1    2  502    0 -0.75796877476E+02 -0.11803991697E+02  0.10257501758E+02  0.77506061682E+02  0.41800000000E+01 0. -1.
         -5    1    1    2    0  502  0.44498156692E+02 -0.37086425516E+02  0.34126391861E+02  0.67361501824E+02  0.41800000000E+01 0. -1.
        -11    1    1    2    0    0  0.24976511059E+02  0.33341007538E+02  0.30787689211E+02  0.51800875429E+02  0.00000000000E+00 0.  1.
         11    1    1    2    0    0  0.63222097254E+01  0.15549409675E+02 -0.49263525593E+02  0.52044686865E+02  0.00000000000E+00 0. -1.
</event>
<event>
 6    1  0.4988969E-006  0.9494562E+02  0.7561462E-02  0.1291299E+00
         -2   -1    0    0    0  501 -0.00000000000E+00  0.00000000000E+00  0.11295329570E+03  0.11295329570E+03  0.00000000000E+00 0.  1.
          2   -1    0    0  501    0  0.00000000000E+00 -0.00000000000E+00 -0.16574890737E+03  0.16574890737E+03  0.00000000000E+00 0. -1.
          5    1    1    2  502    0  0.77524175178E+01 -0.47376685107E+02 -0.30188313721E+01  0.48282874935E+02  0.41800000000E+01 0. -1.
         -5    1    1    2    0  502  0.17701973591E+02  0.61591475605E+02  0.60887615748E+02  0.88496575570E+02  0.41800000000E+01 0.  1.
        -11    1    1    2    0    0  0.12405595340E+02  0.21893309905E+02 -0.75118216263E+01  0.26261060117E+02  0.00000000000E+00 0.  1.
         11    1    1    2    0    0 -0.37859986449E+02 -0.36108100402E+02 -0.10315257443E+03  0.11566169245E+03  0.00000000000E+00 0. -1.
</event>
<event>
 6    1  0.4988969E-006  0.3074824E+03  0.7561462E-02  0.1081559E+00
         -1   -1    0    0    0  501 -0.00000000000E+00  0.00000000000E+00  0.30146905966E+03  0.30146905966E+03  0.00000000000E+00 0.  1.
          1   -1    0    0  501    0  0.00000000000E+00 -0.00000000000E+00 -0.33556049332E+03  0.33556049332E+03  0.00000000000E+00 0. -1.
          5    1    1    2  502    0  0.16272451151E+03  0.21667557914E+03  0.50055550859E+02  0.27559137108E+03  0.41800000000E+01 0.  1.
         -5    1    1    2    0  502  0.41946540651E+02 -0.12536540615E+02  0.82683858271E+01  0.44749477397E+02  0.41800000000E+01 0.  1.
        -11    1    1    2    0    0 -0.17512350932E+03 -0.12403774706E+03 -0.85588493723E+02  0.23103895012E+03  0.00000000000E+00 0. -1.
         11    1    1    2    0    0 -0.29547542840E+02 -0.80101291465E+02 -0.68268766257E+01  0.85649754388E+02  0.00000000000E+00 0.  1.
</event>
<event>
 6    1  0.4988969E-006  0.9476632E+02  0.7561462E-02  0.1291703E+00
         -1   -1    0    0    0  501 -0.00000000000E+00  0.00000000000E+00  0.19432837390E+03  0.19432837390E+03  0.00000000000E+00 0.  1.
          1   -1    0    0  501    0  0.00000000000E+00 -0.00000000000E+00 -0.61420412910E+02  0.61420412910E+02  0.00000000000E+00 0. -1.
          5    1    1    2  502    0 -0.39600904541E+02  0.50134697810E+02  0.13803798018E+02  0.65496082361E+02  0.41800000000E+01 0.  1.
         -5    1    1    2    0  502  0.35578540605E+02 -0.40957350497E+02  0.56105143523E+02  0.78157511738E+02  0.41800000000E+01 0.  1.
        -11    1    1    2    0    0 -0.25655686602E+02 -0.26374012505E+02  0.68113078547E+02  0.77415723595E+02  0.00000000000E+00 0.  1.
         11    1    1    2    0    0  0.29678050538E+02  0.17196665192E+02 -0.51140590998E+01  0.34679469113E+02  0.00000000000E+00 0. -1.
</event>
<event>
 6    1  0.4988969E-006  0.7506254E+02  0.7561462E-02  0.1343677E+00
         -2   -1    0    0    0  501 -0.00000000000E+00  0.00000000000E+00  0.29170558359E+02  0.29170558359E+02  0.00000000000E+00 0.  1.
          2   -1    0    0  501    0  0.00000000000E+00 -0.00000000000E+00 -0.44462832342E+03  0.44462832342E+03  0.00000000000E+00 0. -1.
          5    1    1    2  502    0  0.60599306036E+01  0.13468635348E+02 -0.21517706966E+03  0.21572382948E+03  0.41800000000E+01 0. -1.
         -5    1    1    2    0  502 -0.16078275178E+02 -0.46674606572E+02 -0.21069840282E+02  0.53837165609E+02  0.41800000000E+01 0. -1.
        -11    1    1    2    0    0  0.38173313434E+02 -0.42125638657E+01 -0.32749454668E+02  0.50472510675E+02  0.00000000000E+00 0.  1.
         11    1    1    2    0    0 -0.28154968859E+02  0.37418535089E+02 -0.14646140045E+03  0.15376537602E+03  0.00000000000E+00 0. -1.
</event>
<event>
 6    1  0.4988969E-006  0.1236761E+03  0.7561462E-02  0.1237153E+00
         -1   -1    0    0    0  501 -0.00000000000E+00  0.00000000000E+00  0.76330282951E+03  0.76330282951E+03  0.00000000000E+00 0.  1.
          1   -1    0    0  501    0  0.00000000000E+00 -0.00000000000E+00 -0.36189931138E+02  0.36189931138E+02  0.00000000000E+00 0. -1.
          5    1    1    2  502    0 -0.88656112762E+01 -0.32248501201E+02  0.33518483464E+03  0.33687521527E+03  0.41800000000E+01 0.  1.
         -5    1    1    2    0  502 -0.72823397000E+02 -0.42574501400E+02  0.11036973746E+03  0.13897764808E+03  0.41800000000E+01 0.  1.
        -11    1    1    2    0    0  0.89241657835E+02  0.48019332763E+02  0.27759147819E+03  0.29551135101E+03  0.00000000000E+00 0.  1.
         11    1    1    2    0    0 -0.75526495586E+01  0.26803669838E+02  0.39668480842E+01  0.28128546281E+02  0.00000000000E+00 0. -1.
</event>
<event>
 6    1  0.4988969E-006  0.8621082E+02  0.7561462E-02  0.1312296E+00
          2   -1    0    0  501    0  0.00000000000E+00  0.00000000000E+00  0.37854274823E+02  0.37854274823E+02  0.00000000000E+00 0. -1.
         -2   -1    0    0    0  501 -0.00000000000E+00 -0.00000000000E+00 -0.58165830424E+03  0.58165830424E+03  0.00000000000E+00 0.  1.
          5    1    1    2  502    0 -0.12526103341E+02 -0.33512732371E+02 -0.37301503611E+02  0.51854421871E+02  0.41800000000E+01 0.  1.
         -5    1    1    2    0  502 -0.26141355862E+02  0.45202511827E+02 -0.44385272021E+03  0.44693326930E+03  0.41800000000E+01 0.  1.
        -11    1    1    2    0    0  0.48611751676E+02 -0.34180578391E+02 -0.69407008822E+01  0.59829655430E+02  0.00000000000E+00 0. -1.
         11    1    1    2    0    0 -0.99442924727E+01  0.22490798936E+02 -0.55709104706E+02  0.60895232463E+02  0.00000000000E+00 0.  1.
</event>
<event>
 6    1  0.4988969E-006  0.8765400E+02  0.7561462E-02  0.1308634E+00
         -4   -1    0    0    0  501 -0.00000000000E+00  0.00000000000E+00  0.12484060662E+03  0.12484060662E+03  0.00000000000E+00 0. -1.
          4   -1    0    0  501    0  0.00000000000E+00 -0.00000000000E+00 -0.12164775255E+03  0.12164775255E+03  0.00000000000E+00 0.  1.
          5    1    1    2  502    0 -0.34343386825E+02  0.30159273892E+02 -0.43894802045E+02  0.63508078752E+02  0.41800000000E+01 0.  1.
         -5    1    1    2    0  502  0.24867791265E+02  0.24467833169E+02  0.66443947066E+02  0.75162174025E+02  0.41800000000E+01 0.  1.
        -11    1    1    2    0    0  0.42886798646E+02 -0.25136999667E+02 -0.34769638317E+02  0.60663613469E+02  0.00000000000E+00 0.  1.
         11    1    1    2    0    0 -0.33411203086E+02 -0.29490107394E+02  0.15413347365E+02  0.47154492922E+02  0.00000000000E+00 0. -1.
</event>
<event>
 6    1  0.4988969E-006  0.1104131E+03  0.7561462E-02  0.1259807E+00
         -1   -1    0    0    0  501 -0.00000000000E+00  0.00000000000E+00  0.26974095290E+03  0.26974095290E+03  0.00000000000E+00 0.  1.
          1   -1    0    0  501    0  0.00000000000E+00 -0.00000000000E+00 -0.60271505992E+02  0.60271505992E+02  0.00000000000E+00 0. -1.
          5    1    1    2  502    0 -0.35053266500E+02  0.49372423208E+02  0.81946257128E+02  0.10197563004E+03  0.41800000000E+01 0. -1.
         -5    1    1    2    0  502  0.13206964383E+02 -0.65215738998E+02  0.11368774399E+03  0.13179488630E+03  0.41800000000E+01 0. -1.
        -11    1    1    2    0    0  0.17802895774E+02 -0.36685252001E+02  0.15260071212E+02  0.43538725127E+02  0.00000000000E+00 0.  1.
         11    1    1    2    0    0  0.40434063429E+01  0.52528567791E+02 -0.14246254195E+01  0.52703217422E+02  0.00000000000E+00 0. -1.
</event>
<event>
 6    1  0.4988969E-006  0.1024639E+03  0.7561462E-02  0.1275198E+00
         -1   -1    0    0    0  501 -0.00000000000E+00  0.00000000000E+00  0.18078374849E+03  0.18078374849E+03  0.00000000000E+00 0.  1.
          1   -1    0    0  501    0  0.00000000000E+00 -0.00000000000E+00 -0.17024525001E+03  0.17024525001E+03  0.00000000000E+00 0. -1.
          5    1    1    2  502    0 -0.55004790846E+02 -0.32121954880E+02  0.25677258769E+00  0.63834828531E+02  0.41800000000E+01 0. -1.
         -5    1    1    2    0  502 -0.22835458837E+02  0.34905647472E+02  0.11764639990E+03  0.12489199420E+03  0.41800000000E+01 0. -1.
        -11    1    1    2    0    0  0.75765243178E+02  0.18335290907E+02 -0.11569426700E+03  0.13950526292E+03  0.00000000000E+00 0. -1.
         11    1    1    2    0    0  0.20750065054E+01 -0.21118983498E+02  0.83295929871E+01  0.22796912846E+02  0.00000000000E+00 0.  1.
</event>
<event>
 6    1  0.4988969E-006  0.2772292E+03  0.7561462E-02  0.1097212E+00
          2   -1    0    0  501    0  0.00000000000E+00  0.00000000000E+00  0.14764306353E+03  0.14764306353E+03  0.00000000000E+00 0. -1.
         -2   -1    0    0    0  501 -0.00000000000E+00 -0.00000000000E+00 -0.60672013499E+03  0.60672013499E+03  0.00000000000E+00 0.  1.
          5    1    1    2  502    0 -0.19429092110E+03 -0.16448381543E+03 -0.34093652424E+03  0.42551036829E+03  0.41800000000E+01 0.  1.
         -5    1    1    2    0  502 -0.16935813286E+02  0.63136976895E+00  0.81832823173E+01  0.19278457120E+02  0.41800000000E+01 0.  1.
        -11    1    1    2    0    0  0.93414446882E+02  0.18376473806E+02 -0.48464449956E+02  0.10683050400E+03  0.00000000000E+00 0. -1.
         11    1    1    2    0    0  0.11781228750E+03  0.14547597185E+03 -0.77859379582E+02  0.20274386911E+03  0.00000000000E+00 0.  1.
</event>
<event>
 6    1  0.4988969E-006  0.1180727E+03  0.7561462E-02  0.1246311E+00
         -2   -1    0    0    0  501 -0.00000000000E+00  0.00000000000E+00  0.46576448045E+02  0.46576448045E+02  0.00000000000E+00 0.  1.
          2   -1    0    0  501    0  0.00000000000E+00 -0.00000000000E+00 -0.55862079646E+03  0.55862079646E+03  0.00000000000E+00 0. -1.
          5    1    1    2  502    0 -0.11314992964E+01  0.17533214795E+02  0.15297074242E+02  0.23667842996E+02  0.41800000000E+01 0. -1.
         -5    1    1    2    0  502 -0.61183416272E+02  0.80438073700E+02 -0.22514815173E+03  0.24682555936E+03  0.41800000000E+01 0. -1.
        -11    1    1    2    0    0  0.10617214424E+02 -0.84902849350E+01  0.17183251963E+01  0.13702657475E+02  0.00000000000E+00 0.  1.
         11    1    1    2    0    0  0.51697701144E+02 -0.89481003560E+02 -0.30391159612E+03  0.32100118467E+03  0.00000000000E+00 0. -1.
</event>
<event>
 6    1  0.4988969E-006  0.2269308E+03  0.7561462E-02  0.1128819E+00
         -1   -1    0    0    0  501 -0.00000000000E+00  0.00000000000E+00  0.22359826954E+03  0.22359826954E+03  0.00000000000E+00 0.  1.
          1   -1    0    0  501    0  0.00000000000E+00 -0.00000000000E+00 -0.63155422000E+03  0.63155422000E+03  0.00000000000E+00 0. -1.
          5    1    1    2  502    0  0.53178530578E+02  0.53857570811E+02  0.15687792008E+02  0.77409129088E+02  0.41800000000E+01 0. -1.
         -5    1    1    2    0  502  0.15149780235E+03 -0.23149628549E+02  0.11637351976E+03  0.19247794139E+03  0.41800000000E+01 0.  1.
        -11    1    1    2    0    0 -0.55565527250E+00 -0.20354895814E+02 -0.35561185578E+02  0.40978390111E+02  0.00000000000E+00 0.  1.
         11    1    1    2    0    0 -0.20412067766E+03 -0.10353046448E+02 -0.50445607665E+03  0.54428702895E+03  0.00000000000E+00 0. -1.
</event>
<event>
 6    1  0.4988969E-006  0.1041840E+03  0.7561462E-02  0.1271736E+00
          2   -1    0    0  501    0  0.00000000000E+00  0.00000000000E+00  0.88339969142E+02  0.88339969142E+02  0.00000000000E+00 0. -1.
         -2   -1    0    0    0  501 -0.00000000000E+00 -0.00000000000E+00 -0.13002818129E+03  0.13002818129E+03  0.00000000000E+00 0.  1.
          5    1    1    2  502    0 -0.58308517662E+02 -0.10009377129E+02  0.53709618228E+01  0.59551578429E+02  0.41800000000E+01 0. -1.
         -5    1    1    2    0  502  0.57815950363E+02  0.16033349223E+02 -0.33345111632E+02  0.68768606743E+02  0.41800000000E+01 0. -1.
        -11    1    1    2    0    0 -0.90687443797E+01  0.40457293819E+02 -0.44699236216E+01  0.41701498354E+02  0.00000000000E+00 0. -1.
         11    1    1    2    0    0  0.95613116789E+01 -0.46481265913E+02 -0.92441387199E+01  0.48346466909E+02  0.00000000000E+00 0.  1.
</event>
<event>
 6    1  0.4988969E-006  0.1478001E+03  0.7561462E-02  0.1203203E+00
         -2   -1    0    0    0  501 -0.00000000000E+00  0.00000000000E+00  0.18347052041E+03  0.18347052041E+03  0.00000000000E+00 0. -1.
          2   -1    0    0  501    0  0.00000000000E+00 -0.00000000000E+00 -0.13878408713E+03  0.13878408713E+03  0.00000000000E+00 0.  1.
          5    1    1    2  502    0 -0.85584183254E+02 -0.18081780925E+02  0.19495280169E+02  0.89717008274E+02  0.41800000000E+01 0. -1.
         -5    1    1    2    0  502 -0.23302461704E+02  0.70563766505E+02  0.43235214696E+02  0.86075583383E+02  0.41800000000E+01 0.  1.
        -11    1    1    2    0    0  0.18726866504E+02  0.12451872623E+02  0.18895808155E+02  0.29373393177E+02  0.00000000000E+00 0.  1.
         11    1    1    2    0    0  0.90159778455E+02 -0.64933858203E+02 -0.36939869740E+02  0.11708862271E+03  0.00000000000E+00 0. -1.
</event>
<event>
 6    1  0.4988969E-006  0.1052680E+03  0.7561462E-02  0.1269592E+00
         -1   -1    0    0    0  501 -0.00000000000E+00  0.00000000000E+00  0.46307933542E+02  0.46307933542E+02  0.00000000000E+00 0.  1.
          1   -1    0    0  501    0  0.00000000000E+00 -0.00000000000E+00 -0.27123537150E+03  0.27123537150E+03  0.00000000000E+00 0. -1.
          5    1    1    2  502    0 -0.17759636657E+02 -0.69753165331E+02 -0.57627645506E+02  0.92300198778E+02  0.41800000000E+01 0. -1.
         -5    1    1    2    0  502  0.11781827784E+02  0.52712544684E+02 -0.37673416445E+02  0.65986229924E+02  0.41800000000E+01 0. -1.
        -11    1    1    2    0    0 -0.35962587458E+02 -0.59213631304E+01 -0.24926085752E+02  0.44155180770E+02  0.00000000000E+00 0.  1.
         11    1    1    2    0    0  0.41940396331E+02  0.22961983778E+02 -0.10470029025E+03  0.11510169557E+03  0.00000000000E+00 0. -1.
</event>
<event>
 6    1  0.4988969E-006  0.8953038E+02  0.7561462E-02  0.1303993E+00
         -2   -1    0    0    0  501 -0.00000000000E+00  0.00000000000E+00  0.16855196631E+03  0.16855196631E+03  0.00000000000E+00 0.  1.
          2   -1    0    0  501    0  0.00000000000E+00 -0.00000000000E+00 -0.95816678098E+02  0.95816678098E+02  0.00000000000E+00 0. -1.
          5    1    1    2  502    0 -0.60250310316E+01 -0.94734646973E+01  0.68111554713E+02  0.69157095209E+02  0.41800000000E+01 0.  1.
         -5    1    1    2    0  502  0.65921350461E+02  0.37010515947E+02 -0.23218448283E+02  0.79195779420E+02  0.41800000000E+01 0.  1.
        -11    1    1    2    0    0 -0.33494574996E+01 -0.34256916933E+02 -0.21571050301E+02  0.40620997456E+02  0.00000000000E+00 0. -1.
         11    1    1    2    0    0 -0.56546861930E+02  0.67198656827E+01  0.49413232088E+02  0.75394772327E+02  0.00000000000E+00 0.  1.
</event>
<event>
 6    1  0.4988969E-006  0.6785640E+02  0.7561462E-02  0.1367538E+00
         -2   -1    0    0    0  501 -0.00000000000E+00  0.00000000000E+00  0.41753691595E+02  0.41753691595E+02  0.00000000000E+00 0.  1.
          2   -1    0    0  501    0  0.00000000000E+00 -0.00000000000E+00 -0.30620759981E+03  0.30620759981E+03  0.00000000000E+00 0. -1.
          5    1    1    2  502    0  0.24919875502E+02 -0.17745267695E+02 -0.12950668026E+03  0.13313657406E+03  0.41800000000E+01 0.  1.
         -5    1    1    2    0  502 -0.37446065577E+02 -0.26738889337E+01  0.12522732404E+02  0.39795084320E+02  0.41800000000E+01 0.  1.
        -11    1    1    2    0    0 -0.19534710867E+02  0.27977930288E+02 -0.13589754192E+03  0.14011606407E+03  0.00000000000E+00 0. -1.
         11    1    1    2    0    0  0.32060900941E+02 -0.75587736597E+01 -0.11572418442E+02  0.34913568952E+02  0.00000000000E+00 0.  1.
</event>
<event>
 6    1  0.4988969E-006  0.8832412E+02  0.7561462E-02  0.1306962E+00
         -1   -1    0    0    0  501 -0.00000000000E+00  0.00000000000E+00  0.13573574291E+03  0.13573574291E+03  0.00000000000E+00 0.  1.
          1   -1    0    0  501    0  0.00000000000E+00 -0.00000000000E+00 -0.14875901557E+03  0.14875901557E+03  0.00000000000E+00 0. -1.
          5    1    1    2  502    0 -0.45281100371E+02  0.26368819766E+02  0.81964613145E+02  0.97372290281E+02  0.41800000000E+01 0.  1.
         -5    1    1    2    0  502 -0.56705345594E+01  0.34579590068E+02 -0.43214357012E+02  0.55792975037E+02  0.41800000000E+01 0.  1.
        -11    1    1    2    0    0  0.39142819236E+02 -0.15945418613E+02 -0.69663010723E+02  0.81482217296E+02  0.00000000000E+00 0. -1.
         11    1    1    2    0    0  0.11808815694E+02 -0.45002991222E+02  0.17889481929E+02  0.49847275860E+02  0.00000000000E+00 0.  1.
</event>
<event>
 6    1  0.4988969E-006  0.1469520E+03  0.7561462E-02  0.1204269E+00
         -1   -1    0    0    0  501 -0.00000000000E+00  0.00000000000E+00  0.11522368412E+03  0.11522368412E+03  0.00000000000E+00 0.  1.
          1   -1    0    0  501    0  0.00000000000E+00 -0.00000000000E+00 -0.22658906926E+03  0.22658906926E+03  0.00000000000E+00 0. -1.
          5    1    1    2  502    0  0.34032739451E+02 -0.71440792243E+02  0.17248794292E+02  0.81098751256E+02  0.41800000000E+01 0.  1.
         -5    1    1    2    0  502  0.66561095678E+02  0.78391909907E+01 -0.75687471758E+02  0.10118249925E+03  0.41800000000E+01 0.  1.
        -11    1    1    2    0    0 -0.75909303097E+02 -0.35218766564E+01 -0.43039558899E+02  0.87332866334E+02  0.00000000000E+00 0. -1.
         11    1    1    2    0    0 -0.24684532033E+02  0.67123477908E+02 -0.98871487779E+01  0.72198636546E+02  0.00000000000E+00 0.  1.
</event>
<event>
 6    1  0.4988969E-006  0.1032827E+03  0.7561462E-02  0.1273540E+00
          3   -1    0    0  501    0  0.00000000000E+00  0.00000000000E+00  0.65982520366E+03  0.65982520366E+03  0.00000000000E+00 0. -1.
         -3   -1    0    0    0  501 -0.00000000000E+00 -0.00000000000E+00 -0.22206316105E+02  0.22206316105E+02  0.00000000000E+00 0.  1.
          5    1    1    2  502    0  0.57644898880E+02  0.61632428193E+02  0.35812326184E+03  0.36795547780E+03  0.41800000000E+01 0. -1.
         -5    1    1    2    0  502 -0.30475468494E+02 -0.22244280514E+02  0.59133633506E+02  0.70269632183E+02  0.41800000000E+01 0. -1.
        -11    1    1    2    0    0  0.23374304741E+02 -0.84692352664E+01  0.14896862028E+03  0.15102892404E+03  0.00000000000E+00 0.  1.
         11    1    1    2    0    0 -0.50543735127E+02 -0.30918912413E+02  0.71393371924E+02  0.92777485739E+02  0.00000000000E+00 0. -1.
</event>
<event>
 6    1  0.4988969E-006  0.1332198E+03  0.7561462E-02  0.1222755E+00
         -1   -1    0    0    0  501 -0.00000000000E+00  0.00000000000E+00  0.80900205022E+02  0.80900205022E+02  0.00000000000E+00 0.  1.
          1   -1    0    0  501    0  0.00000000000E+00 -0.00000000000E+00 -0.26584104466E+03  0.26584104466E+03  0.00000000000E+00 0. -1.
          5    1    1    2  502    0  0.72285996102E+02 -0.87550871660E+02 -0.30435757880E+02  0.11761899557E+03  0.41800000000E+01 0.  1.
         -5    1    1    2    0  502 -0.24317178459E+02  0.23624454137E+02 -0.13432083573E+01  0.34186497483E+02  0.41800000000E+01 0.  1.
        -11    1    1    2    0    0  0.20510419695E+02  0.42037119996E+02 -0.77831937638E+02  0.90805326332E+02  0.00000000000E+00 0. -1.
         11    1    1    2    0    0 -0.68479237338E+02  0.21889297526E+02 -0.75329935765E+02  0.10413043030E+03  0.00000000000E+00 0.  1.
</event>
<event>
 6    1  0.4988969E-006  0.1251572E+03  0.7561462E-02  0.1234824E+00
         -2   -1    0    0    0  501 -0.00000000000E+00  0.00000000000E+00  0.19867220252E+03  0.19867220252E+03  0.00000000000E+00 0.  1.
          2   -1    0    0  501    0  0.00000000000E+00 -0.00000000000E+00 -0.89355721712E+02  0.89355721712E+02  0.00000000000E+00 0. -1.
          5    1    1    2  502    0  0.18013949417E+02  0.66491932726E+02  0.70472365031E+02  0.98638258927E+02  0.41800000000E+01 0.  1.
         -5    1    1    2    0  502 -0.66005234867E+02 -0.19389599096E+02  0.29113486637E+02  0.74817879462E+02  0.41800000000E+01 0.  1.
        -11    1    1    2    0    0  0.60378228865E+02  0.33071212960E+01 -0.48240641255E+01  0.60660853660E+02  0.00000000000E+00 0.  1.
         11    1    1    2    0    0 -0.12386943414E+02 -0.50409454926E+02  0.14554693271E+02  0.53910932187E+02  0.00000000000E+00 0. -1.
</event>
<event>
 6    1  0.4988969E-006  0.1114596E+03  0.7561462E-02  0.1257891E+00
          1   -1    0    0  501    0  0.00000000000E+00  0.00000000000E+00  0.99714619149E+03  0.99714619149E+03  0.00000000000E+00 0. -1.
         -1   -1    0    0    0  501 -0.00000000000E+00 -0.00000000000E+00 -0.12835097863E+02  0.12835097863E+02  0.00000000000E+00 0.  1.
          5    1    1    2  502    0  0.35586688101E+02  0.59586274238E+02  0.28900539368E+03  0.29725162140E+03  0.41800000000E+01 0.  1.
         -5    1    1    2    0  502 -0.66606061336E+01 -0.57902590407E+02  0.20449404914E+03  0.21267901209E+03  0.41800000000E+01 0.  1.
        -11    1    1    2    0    0 -0.32041045026E+02  0.41068942334E+02  0.23831781565E+03  0.24394398506E+03  0.00000000000E+00 0.  1.
         11    1    1    2    0    0  0.31149630586E+01 -0.42752626165E+02  0.25249383516E+03  0.25610667081E+03  0.00000000000E+00 0. -1.
</event>
<event>
 6    1  0.4988969E-006  0.2562670E+03  0.7561462E-02  0.1109407E+00
         -2   -1    0    0    0  501 -0.00000000000E+00  0.00000000000E+00  0.40573997922E+02  0.40573997922E+02  0.00000000000E+00 0.  1.
          2   -1    0    0  501    0  0.00000000000E+00 -0.00000000000E+00 -0.17849448694E+04  0.17849448694E+04  0.00000000000E+00 0. -1.
          5    1    1    2  502    0 -0.26877181117E+02  0.96489594197E+02 -0.45078981944E+03  0.46180251013E+03  0.41800000000E+01 0. -1.
         -5    1    1    2    0  502 -0.11880990506E+03  0.97522542305E+02 -0.30081695731E+03  0.33783835485E+03  0.41800000000E+01 0. -1.
        -11    1    1    2    0    0  0.98887011743E+02 -0.57913315763E+02 -0.43284451680E+03  0.44775771234E+03  0.00000000000E+00 0. -1.
         11    1    1    2    0    0  0.46800074435E+02 -0.13609882074E+03 -0.55991957791E+03  0.57812028999E+03  0.00000000000E+00 0.  1.
</event>
<event>
 6    1  0.4988969E-006  0.9913496E+02  0.7561462E-02  0.1282126E+00
         -2   -1    0    0    0  501 -0.00000000000E+00  0.00000000000E+00  0.45900998741E+02  0.45900998741E+02  0.00000000000E+00 0.  1.
          2   -1    0    0  501    0  0.00000000000E+00 -0.00000000000E+00 -0.32560022410E+03  0.32560022410E+03  0.00000000000E+00 0. -1.
          5    1    1    2  502    0  0.39144098452E+02  0.57944104944E+02 -0.94339546781E+01  0.70684168257E+02  0.41800000000E+01 0.  1.
         -5    1    1    2    0  502 -0.16241269300E+02 -0.21987350026E+02 -0.91550468000E+02  0.95635678388E+02  0.41800000000E+01 0.  1.
        -11    1    1    2    0    0 -0.42713920535E+02 -0.57284157364E+02 -0.12047226687E+03  0.14006969971E+03  0.00000000000E+00 0.  1.
         11    1    1    2    0    0  0.19811091383E+02  0.21327402447E+02 -0.58242535803E+02  0.65111676477E+02  0.00000000000E+00 0. -1.
</event>
<event>
 6    1  0.4988969E-006  0.1205127E+03  0.7561462E-02  0.1242254E+00
          4   -1    0    0  501    0  0.00000000000E+00  0.00000000000E+00  0.33566527074E+03  0.33566527074E+03  0.00000000000E+00 0. -1.
         -4   -1    0    0    0  501 -0.00000000000E+00 -0.00000000000E+00 -0.72576740532E+02  0.72576740532E+02  0.00000000000E+00 0.  1.
          5    1    1    2  502    0 -0.19806235046E+02 -0.46037900284E+02  0.61835659782E+02  0.79705058998E+02  0.41800000000E+01 0. -1.
         -5    1    1    2    0  502  0.82234600027E+02 -0.23555098966E+02 -0.67092191394E+01  0.85906100775E+02  0.41800000000E+01 0. -1.
        -11    1    1    2    0    0  0.76624964190E+01  0.12623047615E+02 -0.11841962650E+01  0.14814098125E+02  0.00000000000E+00 0.  1.
         11    1    1    2    0    0 -0.70090861400E+02  0.56969951635E+02  0.20914628583E+03  0.22781675337E+03  0.00000000000E+00 0. -1.
</event>
<event>
 6    1  0.4988969E-006  0.1142878E+03  0.7561462E-02  0.1252829E+00
         -2   -1    0    0    0  501 -0.00000000000E+00  0.00000000000E+00  0.37661691795E+02  0.37661691795E+02  0.00000000000E+00 0.  1.
          2   -1    0    0  501    0  0.00000000000E+00 -0.00000000000E+00 -0.66595679042E+03  0.66595679042E+03  0.00000000000E+00 0. -1.
          5    1    1    2  502    0  0.58645086659E+02  0.60846663364E+02 -0.18482871734E+03  0.20327491185E+03  0.41800000000E+01 0. -1.
         -5    1    1    2    0  502 -0.14186937295E+02  0.13638395761E+02  0.14772019004E+02  0.24959166136E+02  0.41800000000E+01 0. -1.
        -11    1    1    2    0    0 -0.56047631950E+02 -0.83056033965E+01 -0.25891860851E+03  0.26504559217E+03  0.00000000000E+00 0.  1.
         11    1    1    2    0    0  0.11589482586E+02 -0.66179455729E+02 -0.19931979177E+03  0.21033881206E+03  0.00000000000E+00 0. -1.
</event>
<event>
 6    1  0.4988969E-006  0.7619912E+02  0.7561462E-02  0.1340197E+00
          3   -1    0    0  501    0  0.00000000000E+00  0.00000000000E+00  0.96653964933E+02  0.96653964933E+02  0.00000000000E+00 0. -1.
         -3   -1    0    0    0  501 -0.00000000000E+00 -0.00000000000E+00 -0.14136254700E+03  0.14136254700E+03  0.00000000000E+00 0.  1.
          5    1    1    2  502    0  0.44424184502E+02  0.33626555560E+02 -0.80825011445E+02  0.98256848528E+02  0.41800000000E+01 0.  1.
         -5    1    1    2    0  502 -0.40335533434E+02 -0.89365548957E+01  0.16418415588E+02  0.44652592772E+02  0.41800000000E+01 0.  1.
        -11    1    1    2    0    0 -0.13131263209E+02  0.11649289062E+02  0.46072954645E+02  0.49303683015E+02  0.00000000000E+00 0. -1.
         11    1    1    2    0    0  0.90426121407E+01 -0.36339289726E+02 -0.26374940856E+02  0.45803387618E+02  0.00000000000E+00 0.  1.
</event>
<event>
 6    1  0.4988969E-006  0.1257145E+03  0.7561462E-02  0.1233957E+00
         -2   -1    0    0    0  501 -0.00000000000E+00  0.00000000000E+00  0.71383120012E+02  0.71383120012E+02  0.00000000000E+00 0.  1.
          2   -1    0    0  501    0  0.00000000000E+00 -0.00000000000E+00 -0.26644071355E+03  0.26644071355E+03  0.00000000000E+00 0. -1.
          5    1    1    2  502    0  0.13301812173E+02  0.87510805105E+02 -0.84184935929E+02  0.12222788166E+03  0.41800000000E+01 0. -1.
         -5    1    1    2    0  502 -0.56512573133E+02 -0.19611334338E+02 -0.49237448410E+02  0.77589136370E+02  0.41800000000E+01 0. -1.
        -11    1    1    2    0    0 -0.61631590888E+01 -0.49927877088E+02  0.78253897404E+01  0.50911827359E+02  0.00000000000E+00 0.  1.
         11    1    1    2    0    0  0.49373920049E+02 -0.17971593679E+02 -0.69460598943E+02  0.87094988179E+02  0.00000000000E+00 0. -1.
</event>
<event>
 6    1  0.4988969E-006  0.3287464E+03  0.7561462E-02  0.1071693E+00
          1   -1    0    0  501    0  0.00000000000E+00  0.00000000000E+00  0.51703822378E+03  0.51703822378E+03  0.00000000000E+00 0. -1.
         -1   -1    0    0    0  501 -0.00000000000E+00 -0.00000000000E+00 -0.23793731451E+03  0.23793731451E+03  0.00000000000E+00 0.  1.
          5    1    1    2  502    0  0.15836430884E+03 -0.15299955187E+03  0.34115153549E+02  0.22286640233E+03  0.41800000000E+01 0. -1.
         -5    1    1    2    0  502  0.11462391485E+03 -0.16054177917E+01 -0.13521379956E+02  0.11550549484E+03  0.41800000000E+01 0. -1.
        -11    1    1    2    0    0 -0.84389750132E+02  0.89525921500E+02  0.13158742512E+03  0.18014375093E+03  0.00000000000E+00 0.  1.
         11    1    1    2    0    0 -0.18859847356E+03  0.65079048167E+02  0.12691971056E+03  0.23645989019E+03  0.00000000000E+00 0. -1.
</event>
<event>
 6    1  0.4988969E-006  0.8785103E+02  0.7561462E-02  0.1308141E+00
         -2   -1    0    0    0  501 -0.00000000000E+00  0.00000000000E+00  0.39547890399E+02  0.39547890399E+02  0.00000000000E+00 0. -1.
          2   -1    0    0  501    0  0.00000000000E+00 -0.00000000000E+00 -0.30860829194E+03  0.30860829194E+03  0.00000000000E+00 0.  1.
          5    1    1    2  502    0 -0.59453400573E+02  0.10095756023E+02 -0.44174339249E+02  0.74869725373E+02  0.41800000000E+01 0.  1.
         -5    1    1    2    0  502  0.62219921350E+02  0.12600904474E+02 -0.87561163056E+02  0.10823368737E+03  0.41800000000E+01 0.  1.
        -11    1    1    2    0    0  0.17536326226E+02 -0.25695525666E+02 -0.14083646794E+03  0.14423138867E+03  0.00000000000E+00 0.  1.
         11    1    1    2    0    0 -0.20302847004E+02  0.29988651690E+01  0.35115687023E+01  0.20821380922E+02  0.00000000000E+00 0. -1.
</event>
<event>
 6    1  0.4988969E-006  0.8482383E+02  0.7561462E-02  0.1315894E+00
          1   -1    0    0  501    0  0.00000000000E+00  0.00000000000E+00  0.12804125150E+03  0.12804125150E+03  0.00000000000E+00 0. -1.
         -1   -1    0    0    0  501 -0.00000000000E+00 -0.00000000000E+00 -0.12696423445E+03  0.12696423445E+03  0.00000000000E+00 0.  1.
          5    1    1    2  502    0 -0.48339753735E+02  0.28636027305E+02 -0.41252730300E+02  0.69828461304E+02  0.41800000000E+01 0.  1.
         -5    1    1    2    0  502  0.70001246725E+02 -0.13348634469E+01 -0.15181499201E+02  0.71762850567E+02  0.41800000000E+01 0.  1.
        -11    1    1    2    0    0  0.28448282125E+00 -0.20055598699E+02 -0.22493958240E+02  0.30137785701E+02  0.00000000000E+00 0.  1.
         11    1    1    2    0    0 -0.21945975811E+02 -0.72455651588E+01  0.80005204787E+02  0.83276388381E+02  0.00000000000E+00 0. -1.
</event>
<event>
 6    1  0.4988969E-006  0.1117337E+03  0.7561462E-02  0.1257393E+00
         -1   -1    0    0    0  501 -0.00000000000E+00  0.00000000000E+00  0.84758208164E+02  0.84758208164E+02  0.00000000000E+00 0.  1.
          1   -1    0    0  501    0  0.00000000000E+00 -0.00000000000E+00 -0.16618491801E+03  0.16618491801E+03  0.00000000000E+00 0. -1.
          5    1    1    2  502    0  0.74326266371E+02  0.73685916939E+01 -0.36426561308E+02  0.83204908419E+02  0.41800000000E+01 0.  1.
         -5    1    1    2    0  502 -0.38478196141E+02 -0.35121615434E+02  0.79444644539E+01  0.52864793241E+02  0.41800000000E+01 0.  1.
        -11    1    1    2    0    0 -0.34505919750E+02  0.57262463010E+02 -0.53029554482E+02  0.85333356997E+02  0.00000000000E+00 0. -1.
         11    1    1    2    0    0 -0.13421504811E+01 -0.29509439271E+02  0.84941489014E-01  0.29540067519E+02  0.00000000000E+00 0.  1.
</event>
<event>
 6    1  0.4988969E-006  0.1022076E+03  0.7561462E-02  0.1275721E+00
          1   -1    0    0  501    0  0.00000000000E+00  0.00000000000E+00  0.23952580600E+03  0.23952580600E+03  0.00000000000E+00 0. -1.
         -1   -1    0    0    0  501 -0.00000000000E+00 -0.00000000000E+00 -0.10522206747E+03  0.10522206747E+03  0.00000000000E+00 0.  1.
          5    1    1    2  502    0 -0.31872507007E+02 -0.29417106137E+02  0.57164062877E+02  0.71877850003E+02  0.41800000000E+01 0.  1.
         -5    1    1    2    0  502  0.14998373692E+02 -0.63619997869E+02 -0.54110268755E+02  0.84957924451E+02  0.41800000000E+01 0.  1.
        -11    1    1    2    0    0  0.68501787670E+01  0.68448308301E+02  0.14314487117E+03  0.15881608861E+03  0.00000000000E+00 0. -1.
         11    1    1    2    0    0  0.10023954548E+02  0.24588795705E+02 -0.11894926764E+02  0.29096010409E+02  0.00000000000E+00 0.  1.
</event>
<event>
 6    1  0.4988969E-006  0.1171035E+03  0.7561462E-02  0.1247953E+00
         -4   -1    0    0    0  501 -0.00000000000E+00  0.00000000000E+00  0.44527089533E+02  0.44527089533E+02  0.00000000000E+00 0.  1.
          4   -1    0    0  501    0  0.00000000000E+00 -0.00000000000E+00 -0.42111692601E+03  0.42111692601E+03  0.00000000000E+00 0. -1.
          5    1    1    2  502    0 -0.53319872874E+02  0.13343490746E+01 -0.24342590346E+02  0.58777746091E+02  0.41800000000E+01 0. -1.
         -5    1    1    2    0  502  0.61552238976E+02  0.51350287425E+02 -0.72507501390E+02  0.10816811129E+03  0.41800000000E+01 0. -1.
        -11    1    1    2    0    0 -0.81330070436E+01  0.23184327785E+02 -0.11100167272E+03  0.11368830286E+03  0.00000000000E+00 0.  1.
         11    1    1    2    0    0 -0.99359057906E-01 -0.75868964285E+02 -0.16873807201E+03  0.18500985531E+03  0.00000000000E+00 0. -1.
</event>
<event>
 6    1  0.4988969E-006  0.9333294E+02  0.7561462E-02  0.1294975E+00
         -2   -1    0    0    0  501 -0.00000000000E+00  0.00000000000E+00  0.17466054086E+03  0.17466054086E+03  0.00000000000E+00 0.  1.
          2   -1    0    0  501    0  0.00000000000E+00 -0.00000000000E+00 -0.11474548260E+03  0.11474548260E+03  0.00000000000E+00 0. -1.
          5    1    1    2  502    0  0.20762887642E+02 -0.22485751470E+02 -0.29346003141E+02  0.42607121737E+02  0.41800000000E+01 0.  1.
         -5    1    1    2    0  502  0.58760170446E+02  0.15176792646E+02  0.11151981240E+03  0.12703241170E+03  0.41800000000E+01 0.  1.
        -11    1    1    2    0    0 -0.30947330605E+02  0.28384535879E+02  0.24933715460E+02  0.48837580973E+02  0.00000000000E+00 0.  1.
         11    1    1    2    0    0 -0.48575727484E+02 -0.21075577055E+02 -0.47192466451E+02  0.70928909047E+02  0.00000000000E+00 0. -1.
</event>
<event>
 6    1  0.4988969E-006  0.8694619E+02  0.7561462E-02  0.1310420E+00
         -2   -1    0    0    0  501 -0.00000000000E+00  0.00000000000E+00  0.18726921652E+02  0.18726921652E+02  0.00000000000E+00 0.  1.
          2   -1    0    0  501    0  0.00000000000E+00 -0.00000000000E+00 -0.82006769074E+03  0.82006769074E+03  0.00000000000E+00 0. -1.
          5    1    1    2  502    0 -0.14355355766E+01 -0.11759623005E+02  0.59875034116E+01  0.13916612114E+02  0.41800000000E+01 0. -1.
         -5    1    1    2    0  502 -0.45224014956E+02  0.36205497554E+02 -0.37077506717E+03  0.37529677912E+03  0.41800000000E+01 0. -1.
        -11    1    1    2    0    0  0.68861129335E+02  0.17826517164E+01 -0.34458804188E+03  0.35140567950E+03  0.00000000000E+00 0.  1.
         11    1    1    2    0    0 -0.22201578802E+02 -0.26228526265E+02 -0.91965163452E+02  0.98175541660E+02  0.00000000000E+00 0. -1.
</event>
<event>
 6    1  0.4988969E-006  0.9599896E+02  0.7561462E-02  0.1288942E+00
          1   -1    0    0  501    0  0.00000000000E+00  0.00000000000E+00  0.24006668904E+02  0.24006668904E+02  0.00000000000E+00 0. -1.
         -1   -1    0    0    0  501 -0.00000000000E+00 -0.00000000000E+00 -0.61183299303E+03  0.61183299303E+03  0.00000000000E+00 0.  1.
          5    1    1    2  502    0  0.83628893678E+02 -0.12431374666E+02 -0.15254374796E+03  0.17445744002E+03  0.41800000000E+01 0. -1.
         -5    1    1    2    0  502 -0.31905524705E+02  0.71798518775E+00 -0.21503216709E+03  0.21742765071E+03  0.41800000000E+01 0. -1.
        -11    1    1    2    0    0 -0.29266391415E+02  0.33076645173E+02 -0.35617082789E+02  0.56737665697E+02  0.00000000000E+00 0. -1.
         11    1    1    2    0    0 -0.22456977558E+02 -0.21363255695E+02 -0.18463332628E+03  0.18721690551E+03  0.00000000000E+00 0.  1.
</event>
<event>
 6    1  0.4988969E-006  0.7190770E+02  0.7561462E-02  0.1353723E+00
          2   -1    0    0  501    0  0.00000000000E+00  0.00000000000E+00  0.49692306276E+03  0.49692306276E+03  0.00000000000E+00 0.  1.
         -2   -1    0    0    0  501 -0.00000000000E+00 -0.00000000000E+00 -0.26753845531E+02  0.26753845531E+02  0.00000000000E+00 0. -1.
          5    1    1    2  502    0 -0.11879932012E+01  0.96168675168E+01  0.24394879453E+03  0.24417694858E+03  0.41800000000E+01 0.  1.
         -5    1    1    2    0  502 -0.32776224896E+02  0.10482621559E+02  0.21945166550E+01  0.34734054997E+02  0.41800000000E+01 0.  1.
        -11    1    1    2    0    0 -0.13988913499E+02  0.27611336974E+02  0.71619581608E+02  0.78022048807E+02  0.00000000000E+00 0.  1.
         11    1    1    2    0    0  0.47953131597E+02 -0.47710826050E+02  0.15240632443E+03  0.16674385590E+03  0.00000000000E+00 0. -1.
</event>
<event>
 6    1  0.4988969E-006  0.9758646E+02  0.7561462E-02  0.1285455E+00
          1   -1    0    0  501    0  0.00000000000E+00  0.00000000000E+00  0.88519103657E+02  0.88519103657E+02  0.00000000000E+00 0. -1.
         -1   -1    0    0    0  501 -0.00000000000E+00 -0.00000000000E+00 -0.14266339821E+03  0.14266339821E+03  0.00000000000E+00 0.  1.
          5    1    1    2  502    0  0.44761583372E+02  0.80099744638E+01  0.20255543275E+02  0.49955164600E+02  0.41800000000E+01 0. -1.
         -5    1    1    2    0  502 -0.51297404667E+02  0.19839890288E+02 -0.66584538705E+02  0.86463970339E+02  0.41800000000E+01 0. -1.
        -11    1    1    2    0    0 -0.36264837889E+02  0.95604857973E+01 -0.51434100814E+01  0.37854933933E+02  0.00000000000E+00 0. -1.
         11    1    1    2    0    0  0.42800659184E+02 -0.37410350549E+02 -0.26718890414E+01  0.56908432994E+02  0.00000000000E+00 0.  1.
</event>
<event>
 6    1  0.4988969E-006  0.1136432E+03  0.7561462E-02  0.1253968E+00
         -1   -1    0    0    0  501 -0.00000000000E+00  0.00000000000E+00  0.11495484841E+03  0.11495484841E+03  0.00000000000E+00 0.  1.
          1   -1    0    0  501    0  0.00000000000E+00 -0.00000000000E+00 -0.17947594993E+03  0.17947594993E+03  0.00000000000E+00 0. -1.
          5    1    1    2  502    0  0.40723746539E+02  0.72223867072E+02  0.15515712332E+02  0.84456617480E+02  0.41800000000E+01 0.  1.
         -5    1    1    2    0  502 -0.64335465505E+02  0.38380334107E+01 -0.63542395934E+00  0.64588379650E+02  0.41800000000E+01 0.  1.
        -11    1    1    2    0    0  0.76893230266E+01 -0.20972556631E+02  0.20420581944E+02  0.30265062154E+02  0.00000000000E+00 0.  1.
         11    1    1    2    0    0  0.15922395939E+02 -0.55089343851E+02 -0.99821971839E+02  0.11512073905E+03  0.00000000000E+00 0. -1.
</event>
<event>
 6    1  0.4988969E-006  0.8514337E+02  0.7561462E-02  0.1315058E+00
         -1   -1    0    0    0  501 -0.00000000000E+00  0.00000000000E+00  0.26466786063E+03  0.26466786063E+03  0.00000000000E+00 0.  1.
          1   -1    0    0  501    0  0.00000000000E+00 -0.00000000000E+00 -0.60819329209E+02  0.60819329209E+02  0.00000000000E+00 0. -1.
          5    1    1    2  502    0 -0.45706336602E+02 -0.17045065867E+02  0.43108592865E+02  0.65233631317E+02  0.41800000000E+01 0. -1.
         -5    1    1    2    0  502  0.41118521459E+02  0.24618959380E+02  0.16824255047E+03  0.17498529697E+03  0.41800000000E+01 0.  1.
        -11    1    1    2    0    0  0.12901913303E+02  0.31095871307E+02 -0.25083826286E+02  0.41983460081E+02  0.00000000000E+00 0.  1.
         11    1    1    2    0    0 -0.83140981603E+01 -0.38669764819E+02  0.17581214374E+02  0.43284801469E+02  0.00000000000E+00 0. -1.
</event>
<event>
 6    1  0.4988969E-006  0.1202870E+03  0.7561462E-02  0.1242624E+00
         -2   -1    0    0    0  501 -0.00000000000E+00  0.00000000000E+00  0.13466877578E+03  0.13466877578E+03  0.00000000000E+00 0. -1.
          2   -1    0    0  501    0  0.00000000000E+00 -0.00000000000E+00 -0.20147933838E+03  0.20147933838E+03  0.00000000000E+00 0.  1.
          5    1    1    2  502    0 -0.25617132371E+02  0.56210496214E+02 -0.10664341271E+01  0.61923073545E+02  0.41800000000E+01 0.  1.
         -5    1    1    2    0  502 -0.37183106947E+02 -0.50253213965E+02  0.70886535699E+02  0.94606248733E+02  0.41800000000E+01 0.  1.
        -11    1    1    2    0    0 -0.83166385383E+01  0.33610122113E+02 -0.32786653894E+02  0.47684079718E+02  0.00000000000E+00 0. -1.
         11    1    1    2    0    0  0.71116877856E+02 -0.39567404362E+02 -0.10384401028E+03  0.13193471217E+03  0.00000000000E+00 0.  1.
</event>
<event>
 6    1  0.4988969E-006  0.1119770E+03  0.7561462E-02  0.1256952E+00
          2   -1    0    0  501    0  0.00000000000E+00  0.00000000000E+00  0.57433444374E+03  0.57433444374E+03  0.00000000000E+00 0. -1.
         -2   -1    0    0    0  501 -0.00000000000E+00 -0.00000000000E+00 -0.36438950354E+02  0.36438950354E+02  0.00000000000E+00 0.  1.
          5    1    1    2  502    0 -0.13049045983E+02 -0.43670992241E+02  0.15236586836E+03  0.15909199667E+03  0.41800000000E+01 0.  1.
         -5    1    1    2    0  502  0.61053222449E+02 -0.16308862193E+02  0.18052714778E+02  0.65854748259E+02  0.41800000000E+01 0.  1.
        -11    1    1    2    0    0 -0.35491060124E+02 -0.15220823859E+02  0.16539058178E+03  0.16983913969E+03  0.00000000000E+00 0. -1.
         11    1    1    2    0    0 -0.12513116342E+02  0.75200678292E+02  0.20208632847E+03  0.21598750948E+03  0.00000000000E+00 0.  1.
</event>
<event>
 6    1  0.4988969E-006  0.1005409E+03  0.7561462E-02  0.1279163E+00
         -2   -1    0    0    0  501 -0.00000000000E+00  0.00000000000E+00  0.71404528558E+03  0.71404528558E+03  0.00000000000E+00 0.  1.
          2   -1    0    0  501    0  0.00000000000E+00 -0.00000000000E+00 -0.27796270994E+02  0.27796270994E+02  0.00000000000E+00 0. -1.
          5    1    1    2  502    0  0.12009866754E+02  0.12591121741E+02  0.96099203191E+00  0.17921192812E+02  0.41800000000E+01 0. -1.
         -5    1    1    2    0  502 -0.76534642496E+01  0.64343106643E+02  0.49815509755E+03  0.50236897247E+03  0.41800000000E+01 0. -1.
        -11    1    1    2    0    0 -0.38860334850E+01 -0.97553224749E+02  0.16057509272E+03  0.18792576544E+03  0.00000000000E+00 0. -1.
         11    1    1    2    0    0 -0.47036901913E+00  0.20618996366E+02  0.26557832297E+02  0.33625625859E+02  0.00000000000E+00 0.  1.
</event>
<event>
 6    1  0.4988969E-006  0.1560504E+03  0.7561462E-02  0.1193229E+00
          4   -1    0    0  501    0  0.00000000000E+00  0.00000000000E+00  0.16849652284E+03  0.16849652284E+03  0.00000000000E+00 0. -1.
         -4   -1    0    0    0  501 -0.00000000000E+00 -0.00000000000E+00 -0.20228628522E+03  0.20228628522E+03  0.00000000000E+00 0.  1.
          5    1    1    2  502    0  0.14323921960E+03 -0.36537970309E+02 -0.61685035585E+02  0.16023424516E+03  0.41800000000E+01 0.  1.
         -5    1    1    2    0  502 -0.12803137033E+02  0.26748362209E+02 -0.29275901951E+02  0.41880138894E+02  0.41800000000E+01 0.  1.
        -11    1    1    2    0    0 -0.55425043924E+02 -0.10833063089E+02 -0.19203859176E+02  0.59649635013E+02  0.00000000000E+00 0.  1.
         11    1    1    2    0    0 -0.75011038644E+02  0.20622671189E+02  0.76375034335E+02  0.10901878900E+03  0.00000000000E+00 0. -1.
</event>
<event>
 6    1  0.4988969E-006  0.3437100E+03  0.7561462E-02  0.1065227E+00
          2   -1    0    0  501    0  0.00000000000E+00  0.00000000000E+00  0.50471183930E+03  0.50471183930E+03  0.00000000000E+00 0. -1.
         -2   -1    0    0    0  501 -0.00000000000E+00 -0.00000000000E+00 -0.25296682627E+03  0.25296682627E+03  0.00000000000E+00 0.  1.
          5    1    1    2  502    0  0.11822942883E+03  0.11696405942E+03 -0.22253232988E+02  0.16784358140E+03  0.41800000000E+01 0. -1.
         -5    1    1    2    0  502  0.16328027445E+03  0.63844276053E+02  0.84755896738E+02  0.19477570188E+03  0.41800000000E+01 0. -1.
        -11    1    1    2    0    0 -0.46368702396E+02  0.41060336844E+01  0.15175655039E+02  0.48961378457E+02  0.00000000000E+00 0.  1.
         11    1    1    2    0    0 -0.23514100089E+03 -0.18491436916E+03  0.17406669425E+03  0.34609800384E+03  0.00000000000E+00 0. -1.
</event>
<event>
 6    1  0.4988969E-006  0.1445657E+03  0.7561462E-02  0.1207314E+00
          2   -1    0    0  501    0  0.00000000000E+00  0.00000000000E+00  0.18775037304E+03  0.18775037304E+03  0.00000000000E+00 0. -1.
         -2   -1    0    0    0  501 -0.00000000000E+00 -0.00000000000E+00 -0.16342429885E+03  0.16342429885E+03  0.00000000000E+00 0.  1.
          5    1    1    2  502    0 -0.10001504935E+03  0.25593981026E+02 -0.74599337281E+02  0.12743859495E+03  0.41800000000E+01 0. -1.
         -5    1    1    2    0  502 -0.28837544713E+02 -0.20829097177E+01  0.47431645076E+02  0.55706156326E+02  0.41800000000E+01 0. -1.
        -11    1    1    2    0    0 -0.12629026033E+02 -0.61691063752E+01  0.15683490340E+02  0.21059962993E+02  0.00000000000E+00 0.  1.
         11    1    1    2    0    0  0.14148162009E+03 -0.17341964933E+02  0.35810276048E+02  0.14696995762E+03  0.00000000000E+00 0. -1.
</event>
<event>
 6    1  0.4988969E-006  0.9693664E+02  0.7561462E-02  0.1286873E+00
          1   -1    0    0  501    0  0.00000000000E+00  0.00000000000E+00  0.24104423471E+03  0.24104423471E+03  0.00000000000E+00 0. -1.
         -1   -1    0    0    0  501 -0.00000000000E+00 -0.00000000000E+00 -0.69591383514E+02  0.69591383514E+02  0.00000000000E+00 0.  1.
          5    1    1    2  502    0  0.17044199167E+02 -0.63113060802E+02 -0.19738418444E+02  0.68416669984E+02  0.41800000000E+01 0. -1.
         -5    1    1    2    0  502 -0.39424044022E+02  0.30914520055E+02  0.39963257578E+02  0.64222248120E+02  0.41800000000E+01 0. -1.
        -11    1    1    2    0    0 -0.11901934148E+02  0.41004948170E+02  0.31263054718E+02  0.52919187458E+02  0.00000000000E+00 0.  1.
         11    1    1    2    0    0  0.34281779003E+02 -0.88064074231E+01  0.11996495735E+03  0.12507751266E+03  0.00000000000E+00 0. -1.
</event>
<event>
 6    1  0.4988969E-006  0.9960486E+02  0.7561462E-02  0.1281129E+00
          2   -1    0    0  501    0  0.00000000000E+00  0.00000000000E+00  0.11633285109E+03  0.11633285109E+03  0.00000000000E+00 0. -1.
         -2   -1    0    0    0  501 -0.00000000000E+00 -0.00000000000E+00 -0.11079002168E+03  0.11079002168E+03  0.00000000000E+00 0.  1.
          5    1    1    2  502    0  0.17097476557E+02  0.36180780518E+02  0.31268838551E+02  0.50956699735E+02  0.41800000000E+01 0. -1.
         -5    1    1    2    0  502  0.52364765737E+01 -0.64996664614E+02 -0.46564948099E+02  0.80235614844E+02  0.41800000000E+01 0. -1.
        -11    1    1    2    0    0 -0.51998457751E+02  0.35834532052E+02  0.14564685220E+02  0.64808050051E+02  0.00000000000E+00 0. -1.
         11    1    1    2    0    0  0.29664504620E+02 -0.70186479557E+01  0.62742537358E+01  0.31122508148E+02  0.00000000000E+00 0.  1.
</event>
<event>
 6    1  0.4988969E-006  0.2005220E+03  0.7561462E-02  0.1149299E+00
          1   -1    0    0  501    0  0.00000000000E+00  0.00000000000E+00  0.13684898053E+03  0.13684898053E+03  0.00000000000E+00 0. -1.
         -1   -1    0    0    0  501 -0.00000000000E+00 -0.00000000000E+00 -0.33516178723E+03  0.33516178723E+03  0.00000000000E+00 0.  1.
          5    1    1    2  502    0  0.35649010340E+02 -0.18464913708E+03 -0.14952285318E+03  0.24029297074E+03  0.41800000000E+01 0. -1.
         -5    1    1    2    0  502 -0.25209038615E+02  0.88307329665E+01 -0.12761106463E+02  0.29896416353E+02  0.41800000000E+01 0. -1.
        -11    1    1    2    0    0 -0.32881437707E+02  0.65100929375E+02  0.20134070147E+02  0.75661752107E+02  0.00000000000E+00 0.  1.
         11    1    1    2    0    0  0.22441465982E+02  0.11071747474E+03 -0.56162917201E+02  0.12615962855E+03  0.00000000000E+00 0. -1.
</event>
<event>
 6    1  0.4988969E-006  0.1132642E+03  0.7561462E-02  0.1254642E+00
          1   -1    0    0  501    0  0.00000000000E+00  0.00000000000E+00  0.36840076422E+02  0.36840076422E+02  0.00000000000E+00 0. -1.
         -1   -1    0    0    0  501 -0.00000000000E+00 -0.00000000000E+00 -0.42677810132E+03  0.42677810132E+03  0.00000000000E+00 0.  1.
          5    1    1    2  502    0 -0.51554324643E+02  0.75449523525E+02 -0.24165546453E+03  0.25838985067E+03  0.41800000000E+01 0.  1.
         -5    1    1    2    0  502  0.22404033385E+02 -0.30395047174E+02 -0.44653478560E+02  0.58627682473E+02  0.41800000000E+01 0.  1.
        -11    1    1    2    0    0  0.51599246768E+02 -0.59097565965E+01 -0.80741609899E+02  0.96003203380E+02  0.00000000000E+00 0.  1.
         11    1    1    2    0    0 -0.22448955510E+02 -0.39144719754E+02 -0.22887471908E+02  0.50597441224E+02  0.00000000000E+00 0. -1.
</event>
<event>
 6    1  0.4988969E-006  0.1344982E+03  0.7561462E-02  0.1220930E+00
         -1   -1    0    0    0  501 -0.00000000000E+00  0.00000000000E+00  0.81295590669E+03  0.81295590669E+03  0.00000000000E+00 0.  1.
          1   -1    0    0  501    0  0.00000000000E+00 -0.00000000000E+00 -0.33772233713E+02  0.33772233713E+02  0.00000000000E+00 0. -1.
          5    1    1    2  502    0 -0.11545606038E+03  0.42784649192E+02  0.49634469591E+03  0.51140605945E+03  0.41800000000E+01 0.  1.
         -5    1    1    2    0  502  0.17730732585E+01 -0.32140781383E+00 -0.68331780164E+01  0.82104697531E+01  0.41800000000E+01 0.  1.
        -11    1    1    2    0    0  0.12296090772E+03 -0.31594958625E+02  0.28513115733E+03  0.31211761103E+03  0.00000000000E+00 0.  1.
         11    1    1    2    0    0 -0.92779205905E+01 -0.10868282753E+02  0.45409977593E+01  0.14994000171E+02  0.00000000000E+00 0. -1.
</event>
<event>
 6    1  0.4988969E-006  0.8024054E+02  0.7561462E-02  0.1328370E+00
         -1   -1    0    0    0  501 -0.00000000000E+00  0.00000000000E+00  0.49116191049E+03  0.49116191049E+03  0.00000000000E+00 0.  1.
          1   -1    0    0  501    0  0.00000000000E+00 -0.00000000000E+00 -0.32943207562E+02  0.32943207562E+02  0.00000000000E+00 0. -1.
          5    1    1    2  502    0  0.29702115830E+02  0.80036795759E+01  0.34623255915E+03  0.34762153556E+03  0.41800000000E+01 0.  1.
         -5    1    1    2    0  502  0.22429508090E+02 -0.15271074458E+02  0.36932566962E+01  0.27702005222E+02  0.41800000000E+01 0.  1.
        -11    1    1    2    0    0 -0.26718339594E+02  0.47439748544E+02  0.55721991616E+02  0.77905967436E+02  0.00000000000E+00 0. -1.
         11    1    1    2    0    0 -0.25413284327E+02 -0.40172353661E+02  0.52570895468E+02  0.70875609834E+02  0.00000000000E+00 0.  1.
</event>
<event>
 6    1  0.4988969E-006  0.1472085E+03  0.7561462E-02  0.1203946E+00
         -2   -1    0    0    0  501 -0.00000000000E+00  0.00000000000E+00  0.64448846332E+02  0.64448846332E+02  0.00000000000E+00 0.  1.
          2   -1    0    0  501    0  0.00000000000E+00 -0.00000000000E+00 -0.42536062142E+03  0.42536062142E+03  0.00000000000E+00 0. -1.
          5    1    1    2  502    0 -0.30381585954E+02 -0.50109322933E+02 -0.10358584927E+03  0.11908604275E+03  0.41800000000E+01 0. -1.
         -5    1    1    2    0  502  0.86154388598E+02 -0.61725524378E+02 -0.60331812061E+02  0.12202466546E+03  0.41800000000E+01 0. -1.
        -11    1    1    2    0    0  0.41633725928E+01  0.16288212865E+02 -0.95494918119E+02  0.96963492802E+02  0.00000000000E+00 0. -1.
         11    1    1    2    0    0 -0.59936175236E+02  0.95546634446E+02 -0.10149919564E+03  0.15173526674E+03  0.00000000000E+00 0.  1.
</event>
<event>
 6    1  0.4988969E-006  0.1053620E+03  0.7561462E-02  0.1269408E+00
          1   -1    0    0  501    0  0.00000000000E+00  0.00000000000E+00  0.74290315766E+03  0.74290315766E+03  0.00000000000E+00 0. -1.
         -1   -1    0    0    0  501 -0.00000000000E+00 -0.00000000000E+00 -0.15689077657E+02  0.15689077657E+02  0.00000000000E+00 0.  1.
          5    1    1    2  502    0 -0.68353027122E+02  0.15181327385E+02  0.30328269685E+03  0.31128841229E+03  0.41800000000E+01 0.  1.
         -5    1    1    2    0  502  0.44105369377E+02 -0.30369505609E+02  0.13185874820E+03  0.14237904465E+03  0.41800000000E+01 0.  1.
        -11    1    1    2    0    0 -0.17633501820E+02  0.36010516469E+02  0.15453098226E+03  0.15964811982E+03  0.00000000000E+00 0.  1.
         11    1    1    2    0    0  0.41881159565E+02 -0.20822338245E+02  0.13754165269E+03  0.14527665855E+03  0.00000000000E+00 0. -1.
</event>
<event>
 6    1  0.4996427E-006  0.1351591E+03  0.7561462E-02  0.1219995E+00
         -1   -1    0    0    0  501 -0.00000000000E+00  0.00000000000E+00  0.27712657801E+03  0.27712657801E+03  0.00000000000E+00 0.  1.
          1   -1    0    0  501    0  0.00000000000E+00 -0.00000000000E+00 -0.82417748589E+02  0.82417748589E+02  0.00000000000E+00 0. -1.
          5    1    1    2  502    0  0.64487542912E+02  0.41862055636E+02  0.88078808089E+02  0.11698898977E+03  0.41800000000E+01 0. -1.
         -5    1    1    2    0  502  0.33911018878E+02 -0.74154491724E+02  0.46758116929E+02  0.94088467641E+02  0.41800000000E+01 0. -1.
        -11    1    1    2    0    0 -0.12289860866E+02  0.21669605662E+02  0.56376063396E+02  0.61634998285E+02  0.00000000000E+00 0.  1.
         11    1    1    2    0    0 -0.86108700924E+02  0.10622830426E+02  0.34958410119E+01  0.86831870909E+02  0.00000000000E+00 0. -1.
</event>
<event>
 6    1  0.4988969E-006  0.7542605E+02  0.7561462E-02  0.1342557E+00
          1   -1    0    0  501    0  0.00000000000E+00  0.00000000000E+00  0.79006399541E+02  0.79006399541E+02  0.00000000000E+00 0. -1.
         -1   -1    0    0    0  501 -0.00000000000E+00 -0.00000000000E+00 -0.18433311324E+03  0.18433311324E+03  0.00000000000E+00 0.  1.
          5    1    1    2  502    0  0.31339447240E+02  0.37133699204E+02 -0.15049010223E+02  0.51039373806E+02  0.41800000000E+01 0.  1.
         -5    1    1    2    0  502 -0.57625292736E+02 -0.38398145511E+02 -0.94984857072E+02  0.11762094803E+03  0.41800000000E+01 0.  1.
        -11    1    1    2    0    0  0.14065554576E+02  0.10365341694E+02  0.46777780067E+02  0.49934365341E+02  0.00000000000E+00 0. -1.
         11    1    1    2    0    0  0.12220290920E+02 -0.91008953865E+01 -0.42070626466E+02  0.44744825603E+02  0.00000000000E+00 0.  1.
</event>
<event>
 6    1  0.4988969E-006  0.1220030E+03  0.7561462E-02  0.1239829E+00
         -1   -1    0    0    0  501 -0.00000000000E+00  0.00000000000E+00  0.53186552261E+02  0.53186552261E+02  0.00000000000E+00 0.  1.
          1   -1    0    0  501    0  0.00000000000E+00 -0.00000000000E+00 -0.40865834150E+03  0.40865834150E+03  0.00000000000E+00 0. -1.
          5    1    1    2  502    0  0.24823228032E+02  0.37794371254E+00 -0.66621171841E+02  0.71219298149E+02  0.41800000000E+01 0. -1.
         -5    1    1    2    0  502 -0.92121562660E+02 -0.36446782460E+02 -0.27308500716E+02  0.10284929202E+03  0.41800000000E+01 0. -1.
        -11    1    1    2    0    0  0.34278863263E+02 -0.30167091894E+02 -0.88978754887E+02  0.10001156294E+03  0.00000000000E+00 0. -1.
         11    1    1    2    0    0  0.33019471365E+02  0.66235930641E+02 -0.17256336180E+03  0.18776474065E+03  0.00000000000E+00 0.  1.
</event>
<event>
 6    1  0.4988969E-006  0.2912468E+03  0.7561462E-02  0.1089700E+00
         -4   -1    0    0    0  501 -0.00000000000E+00  0.00000000000E+00  0.91890671000E+02  0.91890671000E+02  0.00000000000E+00 0.  1.
          4   -1    0    0  501    0  0.00000000000E+00 -0.00000000000E+00 -0.11178424405E+04  0.11178424405E+04  0.00000000000E+00 0. -1.
          5    1    1    2  502    0  0.26558374822E+03 -0.12951261213E+02 -0.22992520228E+03  0.35154734180E+03  0.41800000000E+01 0.  1.
         -5    1    1    2    0  502  0.14567744823E+02  0.20669542706E+02 -0.82558524112E+02  0.86445540593E+02  0.41800000000E+01 0.  1.
        -11    1    1    2    0    0 -0.18536117416E+03 -0.42128142458E+02 -0.51831419102E+03  0.55207168545E+03  0.00000000000E+00 0. -1.
         11    1    1    2    0    0 -0.94790318884E+02  0.34409860964E+02 -0.19515385213E+03  0.21966854369E+03  0.00000000000E+00 0.  1.
</event>
<event>
 6    1  0.4988969E-006  0.1083538E+03  0.7561462E-02  0.1263649E+00
         -1   -1    0    0    0  501 -0.00000000000E+00  0.00000000000E+00  0.24703946243E+03  0.24703946243E+03  0.00000000000E+00 0.  1.
          1   -1    0    0  501    0  0.00000000000E+00 -0.00000000000E+00 -0.53984933485E+02  0.53984933485E+02  0.00000000000E+00 0. -1.
          5    1    1    2  502    0 -0.56810050422E+01 -0.52117429621E+02  0.38182287251E+02  0.64991228241E+02  0.41800000000E+01 0. -1.
         -5    1    1    2    0  502 -0.13219322530E+02  0.68387393793E+02  0.11302344762E+03  0.13282830357E+03  0.41800000000E+01 0. -1.
        -11    1    1    2    0    0 -0.21378752831E+02  0.27513879020E+02  0.15068919515E+02  0.37962309554E+02  0.00000000000E+00 0.  1.
         11    1    1    2    0    0  0.40279080403E+02 -0.43783843192E+02  0.26779874565E+02  0.65242554553E+02  0.00000000000E+00 0. -1.
</event>
<event>
 6    1  0.4988969E-006  0.1792361E+03  0.7561462E-02  0.1168544E+00
         -1   -1    0    0    0  501 -0.00000000000E+00  0.00000000000E+00  0.75759553348E+02  0.75759553348E+02  0.00000000000E+00 0.  1.
          1   -1    0    0  501    0  0.00000000000E+00 -0.00000000000E+00 -0.68190849565E+03  0.68190849565E+03  0.00000000000E+00 0. -1.
          5    1    1    2  502    0 -0.84148209436E+01  0.54247873548E+02 -0.45826447652E+02  0.71632232273E+02  0.41800000000E+01 0. -1.
         -5    1    1    2    0  502 -0.13032302628E+03 -0.16092076921E+02 -0.38985684628E+02  0.13704160727E+03  0.41800000000E+01 0. -1.
        -11    1    1    2    0    0  0.67146680619E+02  0.29678306464E+02 -0.22624466800E+03  0.23785736985E+03  0.00000000000E+00 0.  1.
         11    1    1    2    0    0  0.71591166600E+02 -0.67834103092E+02 -0.29509214203E+03  0.31113683961E+03  0.00000000000E+00 0. -1.
</event>
<event>
 6    1  0.4988969E-006  0.9928988E+02  0.7561462E-02  0.1281796E+00
         -2   -1    0    0    0  501 -0.00000000000E+00  0.00000000000E+00  0.56209320116E+02  0.56209320116E+02  0.00000000000E+00 0.  1.
          2   -1    0    0  501    0  0.00000000000E+00 -0.00000000000E+00 -0.26469390594E+03  0.26469390594E+03  0.00000000000E+00 0. -1.
          5    1    1    2  502    0 -0.28364862734E+02  0.26419904854E+02  0.55054244469E+01  0.39374597252E+02  0.41800000000E+01 0. -1.
         -5    1    1    2    0  502  0.76682309028E+02 -0.13254766226E+02 -0.92756851954E+02  0.12114937610E+03  0.41800000000E+01 0. -1.
        -11    1    1    2    0    0 -0.15696920803E+02  0.26196028117E+02 -0.10080161069E+03  0.10532611229E+03  0.00000000000E+00 0. -1.
         11    1    1    2    0    0 -0.32620525490E+02 -0.39361166745E+02 -0.20431547621E+02  0.55053140410E+02  0.00000000000E+00 0.  1.
</event>
<event>
 6    1  0.4988969E-006  0.6645499E+02  0.7561462E-02  0.1372581E+00
         -2   -1    0    0    0  501 -0.00000000000E+00  0.00000000000E+00  0.80809489975E+02  0.80809489975E+02  0.00000000000E+00 0.  1.
          2   -1    0    0  501    0  0.00000000000E+00 -0.00000000000E+00 -0.17657518492E+03  0.17657518492E+03  0.00000000000E+00 0. -1.
          5    1    1    2  502    0  0.13252125064E+02  0.46534570268E+02  0.32918190290E+02  0.58669964212E+02  0.41800000000E+01 0.  1.
         -5    1    1    2    0  502 -0.31425130881E+02 -0.20097531121E+01 -0.75565329767E+02  0.81970539959E+02  0.41800000000E+01 0.  1.
        -11    1    1    2    0    0  0.18776688100E+02 -0.17880525920E+02  0.23888739586E+02  0.35255483292E+02  0.00000000000E+00 0.  1.
         11    1    1    2    0    0 -0.60368228232E+00 -0.26644291235E+02 -0.77007295057E+02  0.81488687434E+02  0.00000000000E+00 0. -1.
</event>
<event>
 6    1  0.4988969E-006  0.1144621E+03  0.7561462E-02  0.1252523E+00
         -1   -1    0    0    0  501 -0.00000000000E+00  0.00000000000E+00  0.38018600453E+02  0.38018600453E+02  0.00000000000E+00 0.  1.
          1   -1    0    0  501    0  0.00000000000E+00 -0.00000000000E+00 -0.40733037412E+03  0.40733037412E+03  0.00000000000E+00 0. -1.
          5    1    1    2  502    0 -0.30517698705E+02 -0.18873668233E+02 -0.18995947820E+02  0.40814993819E+02  0.41800000000E+01 0.  1.
         -5    1    1    2    0  502  0.91845970332E+02  0.15822591982E+02 -0.17115055366E+03  0.19492568097E+03  0.41800000000E+01 0.  1.
        -11    1    1    2    0    0 -0.77798948878E+02 -0.10070657423E+02 -0.96816151296E+02  0.12460923617E+03  0.00000000000E+00 0.  1.
         11    1    1    2    0    0  0.16470677252E+02  0.13121733674E+02 -0.82349120895E+02  0.84999063618E+02  0.00000000000E+00 0. -1.
</event>
<event>
 6    1  0.4988969E-006  0.1322555E+03  0.7561462E-02  0.1224147E+00
         -1   -1    0    0    0  501 -0.00000000000E+00  0.00000000000E+00  0.57816107437E+02  0.57816107437E+02  0.00000000000E+00 0.  1.
          1   -1    0    0  501    0  0.00000000000E+00 -0.00000000000E+00 -0.36323428643E+03  0.36323428643E+03  0.00000000000E+00 0. -1.
          5    1    1    2  502    0  0.20673738088E+02 -0.86506977828E+00 -0.80897484041E+02  0.83606382031E+02  0.41800000000E+01 0. -1.
         -5    1    1    2    0  502 -0.11553633438E+03  0.13766729430E+02 -0.78033974081E+02  0.14016041136E+03  0.41800000000E+01 0. -1.
        -11    1    1    2    0    0  0.77634872212E+02 -0.45583466473E+02 -0.12654151790E+03  0.15529900692E+03  0.00000000000E+00 0. -1.
         11    1    1    2    0    0  0.17227724084E+02  0.32681806822E+02 -0.19945202977E+02  0.41984593556E+02  0.00000000000E+00 0.  1.
</event>
<event>
 6    1  0.4988969E-006  0.1044347E+03  0.7561462E-02  0.1271237E+00
          1   -1    0    0  501    0  0.00000000000E+00  0.00000000000E+00  0.25810311367E+02  0.25810311367E+02  0.00000000000E+00 0. -1.
         -1   -1    0    0    0  501 -0.00000000000E+00 -0.00000000000E+00 -0.67604948341E+03  0.67604948341E+03  0.00000000000E+00 0.  1.
          5    1    1    2  502    0  0.40885185199E+02 -0.56098949650E+02 -0.19861026869E+03  0.21043336653E+03  0.41800000000E+01 0. -1.
         -5    1    1    2    0  502  0.13716564101E+02  0.61994485459E+02 -0.29146799160E+03  0.29833290614E+03  0.41800000000E+01 0. -1.
        -11    1    1    2    0    0 -0.17036768144E+02  0.22773321197E+02 -0.13800003900E+03  0.14090027108E+03  0.00000000000E+00 0.  1.
         11    1    1    2    0    0 -0.37564981156E+02 -0.28668857006E+02 -0.22160872751E+02  0.52193251023E+02  0.00000000000E+00 0. -1.
</event>
<event>
 6    1  0.4988969E-006  0.1082339E+03  0.7561462E-02  0.1263876E+00
         -2   -1    0    0    0  501 -0.00000000000E+00  0.00000000000E+00  0.20650377088E+02  0.20650377088E+02  0.00000000000E+00 0. -1.
          2   -1    0    0  501    0  0.00000000000E+00 -0.00000000000E+00 -0.70284352852E+03  0.70284352852E+03  0.00000000000E+00 0.  1.
          5    1    1    2  502    0 -0.39216533137E+02 -0.15567434056E+01 -0.25031416240E+03  0.25340681171E+03  0.41800000000E+01 0.  1.
         -5    1    1    2    0  502  0.52735272014E+02  0.51446892229E+02 -0.12007100583E+03  0.14093370950E+03  0.41800000000E+01 0.  1.
        -11    1    1    2    0    0 -0.29013442177E+02 -0.71185247919E+02 -0.25861881212E+03  0.26980142574E+03  0.00000000000E+00 0.  1.
         11    1    1    2    0    0  0.15494703300E+02  0.21295099096E+02 -0.53189171091E+02  0.59351958664E+02  0.00000000000E+00 0. -1.
</event>
<event>
 6    1  0.4988969E-006  0.2677805E+03  0.7561462E-02  0.1102557E+00
          2   -1    0    0  501    0  0.00000000000E+00  0.00000000000E+00  0.50136941849E+03  0.50136941849E+03  0.00000000000E+00 0. -1.
         -2   -1    0    0    0  501 -0.00000000000E+00 -0.00000000000E+00 -0.20229279222E+03  0.20229279222E+03  0.00000000000E+00 0.  1.
          5    1    1    2  502    0 -0.30307085108E+02  0.15285400608E+02  0.14859634783E+01  0.34232197811E+02  0.41800000000E+01 0. -1.
         -5    1    1    2    0  502 -0.12233116956E+03 -0.20593158518E+03 -0.39260398198E+02  0.24275828325E+03  0.41800000000E+01 0. -1.
        -11    1    1    2    0    0  0.51594793839E+02  0.13911264538E+03  0.18568126418E+03  0.23768021105E+03  0.00000000000E+00 0. -1.
         11    1    1    2    0    0  0.10104346083E+03  0.51533539187E+02  0.15116979681E+03  0.18899151861E+03  0.00000000000E+00 0.  1.
</event>
<event>
 6    1  0.4988969E-006  0.9527433E+02  0.7561462E-02  0.1290559E+00
         -1   -1    0    0    0  501 -0.00000000000E+00  0.00000000000E+00  0.44786277874E+02  0.44786277874E+02  0.00000000000E+00 0.  1.
          1   -1    0    0  501    0  0.00000000000E+00 -0.00000000000E+00 -0.27460636656E+03  0.27460636656E+03  0.00000000000E+00 0. -1.
          5    1    1    2  502    0  0.25484224815E+02  0.55367995377E+02 -0.20961881480E+02  0.64590506281E+02  0.41800000000E+01 0. -1.
         -5    1    1    2    0  502 -0.32634140948E+02 -0.29047638819E+02 -0.11058224218E+03  0.11897334643E+03  0.41800000000E+01 0. -1.
        -11    1    1    2    0    0 -0.35527672863E+02 -0.23901455569E+02 -0.21403227304E+02  0.47870588636E+02  0.00000000000E+00 0.  1.
         11    1    1    2    0    0  0.42677588996E+02 -0.24189009897E+01 -0.76872737724E+02  0.87958203084E+02  0.00000000000E+00 0. -1.
</event>
<event>
 6    1  0.4988969E-006  0.1054858E+03  0.7561462E-02  0.1269166E+00
         -1   -1    0    0    0  501 -0.00000000000E+00  0.00000000000E+00  0.71111964013E+02  0.71111964013E+02  0.00000000000E+00 0.  1.
          1   -1    0    0  501    0  0.00000000000E+00 -0.00000000000E+00 -0.18547395772E+03  0.18547395772E+03  0.00000000000E+00 0. -1.
          5    1    1    2  502    0 -0.68007076007E+01 -0.62245301065E+02 -0.18886549529E+02  0.65535496348E+02  0.41800000000E+01 0. -1.
         -5    1    1    2    0  502 -0.10470052407E+02  0.61932923898E+02 -0.66887572664E+01  0.63304983482E+02  0.41800000000E+01 0. -1.
        -11    1    1    2    0    0  0.15587797259E+02 -0.41028947609E+02 -0.69254928842E+02  0.81991457690E+02  0.00000000000E+00 0. -1.
         11    1    1    2    0    0  0.16829627488E+01  0.41341324776E+02 -0.19531758070E+02  0.45753984211E+02  0.00000000000E+00 0.  1.
</event>
<event>
 6    1  0.4988969E-006  0.1206058E+03  0.7561462E-02  0.1242101E+00
          1   -1    0    0  501    0  0.00000000000E+00  0.00000000000E+00  0.50057749026E+03  0.50057749026E+03  0.00000000000E+00 0. -1.
         -1   -1    0    0    0  501 -0.00000000000E+00 -0.00000000000E+00 -0.31423807201E+02  0.31423807201E+02  0.00000000000E+00 0.  1.
          5    1    1    2  502    0 -0.26750175391E+02  0.75612392239E+02  0.14098976785E+03  0.16226026249E+03  0.41800000000E+01 0. -1.
         -5    1    1    2    0  502 -0.21244229769E+02 -0.49327024665E+02  0.59040025734E+02  0.79922898468E+02  0.41800000000E+01 0. -1.
        -11    1    1    2    0    0  0.75614783973E+02 -0.23914184544E+02  0.18628642958E+03  0.20246510223E+03  0.00000000000E+00 0.  1.
         11    1    1    2    0    0 -0.27620378813E+02 -0.23711830302E+01  0.82837459901E+02  0.87353034278E+02  0.00000000000E+00 0. -1.
</event>
<event>
 6    1  0.4988969E-006  0.6360153E+02  0.7561462E-02  0.1383311E+00
         -1   -1    0    0    0  501 -0.00000000000E+00  0.00000000000E+00  0.38912330039E+02  0.38912330039E+02  0.00000000000E+00 0.  1.
          1   -1    0    0  501    0  0.00000000000E+00 -0.00000000000E+00 -0.34086265276E+03  0.34086265276E+03  0.00000000000E+00 0. -1.
          5    1    1    2  502    0 -0.16771488115E+01 -0.21640580816E+02 -0.16467963434E+03  0.16615649831E+03  0.41800000000E+01 0. -1.
         -5    1    1    2    0  502 -0.16954366297E+02  0.47098804709E+01  0.19856431148E+02  0.26858588356E+02  0.41800000000E+01 0. -1.
        -11    1    1    2    0    0  0.33129378401E+02 -0.25735346732E+02 -0.12379493595E+03  0.13070979287E+03  0.00000000000E+00 0. -1.
         11    1    1    2    0    0 -0.14497863293E+02  0.42666047077E+02 -0.33332183579E+02  0.56050103260E+02  0.00000000000E+00 0.  1.
</event>
<event>
 6    1  0.4988969E-006  0.1045247E+03  0.7561462E-02  0.1271059E+00
         -2   -1    0    0    0  501 -0.00000000000E+00  0.00000000000E+00  0.12814922716E+04  0.12814922716E+04  0.00000000000E+00 0.  1.
          2   -1    0    0  501    0  0.00000000000E+00 -0.00000000000E+00 -0.13998833673E+02  0.13998833673E+02  0.00000000000E+00 0. -1.
          5    1    1    2  502    0  0.31889102909E+02 -0.45070981341E+02  0.66676581378E+03  0.66906085752E+03  0.41800000000E+01 0.  1.
         -5    1    1    2    0  502 -0.25008848298E+02  0.59450872702E+02  0.40987439803E+03  0.41493896336E+03  0.41800000000E+01 0.  1.
        -11    1    1    2    0    0  0.14096940628E+02  0.33733260036E+02  0.57027150956E+02  0.67740331516E+02  0.00000000000E+00 0. -1.
         11    1    1    2    0    0 -0.20977195239E+02 -0.48113151397E+02  0.13382607513E+03  0.14375095284E+03  0.00000000000E+00 0.  1.
</event>
<event>
 6    1  0.4988969E-006  0.1119511E+03  0.7561462E-02  0.1256999E+00
          3   -1    0    0  501    0  0.00000000000E+00  0.00000000000E+00  0.14454396929E+03  0.14454396929E+03  0.00000000000E+00 0. -1.
         -3   -1    0    0    0  501 -0.00000000000E+00 -0.00000000000E+00 -0.12541792074E+03  0.12541792074E+03  0.00000000000E+00 0.  1.
          5    1    1    2  502    0 -0.96867039208E+02  0.58461205064E+01 -0.42053627848E+02  0.10584602225E+03  0.41800000000E+01 0.  1.
         -5    1    1    2    0  502  0.16889984956E+02 -0.50186696075E+01  0.38606579780E+02  0.42642690332E+02  0.41800000000E+01 0.  1.
        -11    1    1    2    0    0  0.76465851694E+02 -0.27873049111E+02 -0.64551477927E+01  0.81643139791E+02  0.00000000000E+00 0.  1.
         11    1    1    2    0    0  0.35112025585E+01  0.27045598212E+02  0.29028244410E+02  0.39830037654E+02  0.00000000000E+00 0. -1.
</event>
<event>
 6    1  0.4988969E-006  0.1337552E+03  0.7561462E-02  0.1221988E+00
          1   -1    0    0  501    0  0.00000000000E+00  0.00000000000E+00  0.68365067624E+03  0.68365067624E+03  0.00000000000E+00 0. -1.
         -1   -1    0    0    0  501 -0.00000000000E+00 -0.00000000000E+00 -0.35292198408E+02  0.35292198408E+02  0.00000000000E+00 0.  1.
          5    1    1    2  502    0  0.96451709058E+01  0.12146918418E+03  0.20611131073E+03  0.23947262232E+03  0.41800000000E+01 0.  1.
         -5    1    1    2    0  502 -0.65774626129E+01 -0.13204632122E+02  0.17934193420E+03  0.17999618632E+03  0.41800000000E+01 0.  1.
        -11    1    1    2    0    0 -0.22784169387E+02 -0.27919350101E+01  0.10566803820E+02  0.25269954862E+02  0.00000000000E+00 0.  1.
         11    1    1    2    0    0  0.19716461094E+02 -0.10547261705E+03  0.25233842908E+03  0.27420411116E+03  0.00000000000E+00 0. -1.
</event>
<event>
 6    1  0.4988969E-006  0.1028153E+03  0.7561462E-02  0.1274485E+00
          1   -1    0    0  501    0  0.00000000000E+00  0.00000000000E+00  0.64659946311E+02  0.64659946311E+02  0.00000000000E+00 0. -1.
         -1   -1    0    0    0  501 -0.00000000000E+00 -0.00000000000E+00 -0.24241817750E+03  0.24241817750E+03  0.00000000000E+00 0.  1.
          5    1    1    2  502    0 -0.25416632349E+02  0.30335530328E+02 -0.11894518271E+03  0.12542598810E+03  0.41800000000E+01 0.  1.
         -5    1    1    2    0  502  0.25804389877E+02 -0.65904196768E+02 -0.45557127855E+02  0.84274278323E+02  0.41800000000E+01 0.  1.
        -11    1    1    2    0    0  0.39349574948E+02 -0.31223456841E+01 -0.14080983343E+02  0.41909571497E+02  0.00000000000E+00 0.  1.
         11    1    1    2    0    0 -0.39737332475E+02  0.38691012124E+02  0.82506272022E+00  0.55468285893E+02  0.00000000000E+00 0. -1.
</event>
<event>
 6    1  0.4988969E-006  0.1257438E+03  0.7561462E-02  0.1233911E+00
          1   -1    0    0  501    0  0.00000000000E+00  0.00000000000E+00  0.17583312548E+03  0.17583312548E+03  0.00000000000E+00 0. -1.
         -1   -1    0    0    0  501 -0.00000000000E+00 -0.00000000000E+00 -0.18053218601E+03  0.18053218601E+03  0.00000000000E+00 0.  1.
          5    1    1    2  502    0 -0.96516081559E+02 -0.38218080514E+02 -0.11541896266E+03  0.15529000296E+03  0.41800000000E+01 0.  1.
         -5    1    1    2    0  502  0.31389983594E+02 -0.13545412300E+02 -0.43084977477E+00  0.34445134576E+02  0.41800000000E+01 0.  1.
        -11    1    1    2    0    0  0.26958898631E+02 -0.18843122329E+02  0.45691220670E+01  0.33207263528E+02  0.00000000000E+00 0.  1.
         11    1    1    2    0    0  0.38167199334E+02  0.70606615144E+02  0.10658162984E+03  0.13342291042E+03  0.00000000000E+00 0. -1.
</event>
<event>
 6    1  0.4988969E-006  0.7683929E+02  0.7561462E-02  0.1338268E+00
          1   -1    0    0  501    0  0.00000000000E+00  0.00000000000E+00  0.29938281192E+02  0.29938281192E+02  0.00000000000E+00 0. -1.
         -1   -1    0    0    0  501 -0.00000000000E+00 -0.00000000000E+00 -0.52594257116E+03  0.52594257116E+03  0.00000000000E+00 0.  1.
          5    1    1    2  502    0  0.42855734771E+02  0.84843993106E+01 -0.39661810874E+03  0.39903883973E+03  0.41800000000E+01 0.  1.
         -5    1    1    2    0  502 -0.85058232830E+01 -0.61757463533E+01  0.58310838695E+01  0.12726461088E+02  0.41800000000E+01 0.  1.
        -11    1    1    2    0    0  0.30090493223E+02 -0.13661811052E+02 -0.34871931911E+02  0.48043048392E+02  0.00000000000E+00 0. -1.
         11    1    1    2    0    0 -0.64440404711E+02  0.11353158095E+02 -0.70345333183E+02  0.96072503136E+02  0.00000000000E+00 0.  1.
</event>
<event>
 6    1  0.4988969E-006  0.7900006E+02  0.7561462E-02  0.1331913E+00
         -1   -1    0    0    0  501 -0.00000000000E+00  0.00000000000E+00  0.26005039972E+02  0.26005039972E+02  0.00000000000E+00 0.  1.
          1   -1    0    0  501    0  0.00000000000E+00 -0.00000000000E+00 -0.60744487104E+03  0.60744487104E+03  0.00000000000E+00 0. -1.
          5    1    1    2  502    0 -0.18448130333E+02  0.38070172597E+02 -0.15483434738E+02  0.45242465733E+02  0.41800000000E+01 0.  1.
         -5    1    1    2    0  502 -0.70079325531E+01  0.20388099086E+02 -0.29153088004E+03  0.29235682328E+03  0.41800000000E+01 0.  1.
        -11    1    1    2    0    0  0.22267684390E+02  0.10414462013E+02 -0.18405767117E+02  0.30709657280E+02  0.00000000000E+00 0.  1.
         11    1    1    2    0    0  0.31883784955E+01 -0.68872733695E+02 -0.25601974918E+03  0.26514096472E+03  0.00000000000E+00 0. -1.
</event>
<event>
 6    1  0.4988969E-006  0.1603291E+03  0.7561462E-02  0.1188326E+00
          1   -1    0    0  501    0  0.00000000000E+00  0.00000000000E+00  0.99907152395E+02  0.99907152395E+02  0.00000000000E+00 0. -1.
         -1   -1    0    0    0  501 -0.00000000000E+00 -0.00000000000E+00 -0.11230987727E+04  0.11230987727E+04  0.00000000000E+00 0.  1.
          5    1    1    2  502    0 -0.40200363772E+02  0.32836421548E+02 -0.62819123286E+03  0.63034593461E+03  0.41800000000E+01 0. -1.
         -5    1    1    2    0  502  0.27185624052E+01  0.10629124465E+03 -0.40635018820E+03  0.42005138629E+03  0.41800000000E+01 0.  1.
        -11    1    1    2    0    0 -0.22737083520E+02 -0.31537314620E+02 -0.22276960384E+02  0.44808929294E+02  0.00000000000E+00 0.  1.
         11    1    1    2    0    0  0.60218884887E+02 -0.10759035158E+03  0.33626761118E+02  0.12779967493E+03  0.00000000000E+00 0. -1.
</event>
<event>
 6    1  0.5939340E-006  0.9722811E+02  0.7561462E-02  0.1286235E+00
          1   -1    0    0  501    0  0.00000000000E+00  0.00000000000E+00  0.16434652248E+03  0.16434652248E+03  0.00000000000E+00 0. -1.
         -1   -1    0    0    0  501 -0.00000000000E+00 -0.00000000000E+00 -0.79188993908E+02  0.79188993908E+02  0.00000000000E+00 0.  1.
          5    1    1    2  502    0  0.20639552020E+02  0.57733136683E+02  0.22410931495E+02  0.65412754333E+02  0.41800000000E+01 0.  1.
         -5    1    1    2    0  502 -0.40090405169E+02 -0.48960380561E+02 -0.17474333125E+00  0.63418155023E+02  0.41800000000E+01 0.  1.
        -11    1    1    2    0    0  0.15444713463E+02  0.28329732226E+02 -0.91553295062E+01  0.33540020279E+02  0.00000000000E+00 0.  1.
         11    1    1    2    0    0  0.40061396857E+01 -0.37102488349E+02  0.72076669913E+02  0.81164586752E+02  0.00000000000E+00 0. -1.
</event>
<event>
 6    1  0.4988969E-006  0.8704872E+02  0.7561462E-02  0.1310160E+00
          2   -1    0    0  501    0  0.00000000000E+00  0.00000000000E+00  0.41992446409E+03  0.41992446409E+03  0.00000000000E+00 0. -1.
         -2   -1    0    0    0  501 -0.00000000000E+00 -0.00000000000E+00 -0.93853697857E+02  0.93853697857E+02  0.00000000000E+00 0.  1.
          5    1    1    2  502    0  0.18316234335E+02 -0.34824701053E+02  0.69163828609E+02  0.79682820178E+02  0.41800000000E+01 0. -1.
         -5    1    1    2    0  502 -0.98146780661E+01  0.30093250656E+02 -0.77328003371E+02  0.83660170606E+02  0.41800000000E+01 0.  1.
        -11    1    1    2    0    0  0.46499246230E+02 -0.49206660918E+01  0.11367837787E+03  0.12291934937E+03  0.00000000000E+00 0. -1.
         11    1    1    2    0    0 -0.55000802499E+02  0.96521164891E+01  0.22055656313E+03  0.22751582179E+03  0.00000000000E+00 0.  1.
</event>
<event>
 6    1  0.4988969E-006  0.6933336E+02  0.7561462E-02  0.1362375E+00
         -1   -1    0    0    0  501 -0.00000000000E+00  0.00000000000E+00  0.10089046289E+03  0.10089046289E+03  0.00000000000E+00 0.  1.
          1   -1    0    0  501    0  0.00000000000E+00 -0.00000000000E+00 -0.13238802951E+03  0.13238802951E+03  0.00000000000E+00 0. -1.
          5    1    1    2  502    0  0.24094936669E+02 -0.41509027531E+02  0.43018462097E+02  0.64588124457E+02  0.41800000000E+01 0. -1.
         -5    1    1    2    0  502 -0.28244508026E+02  0.51566034723E+02 -0.21622520170E+02  0.62783866950E+02  0.41800000000E+01 0. -1.
        -11    1    1    2    0    0  0.16679806680E+02 -0.90477655075E+01  0.22522114729E+02  0.29450359309E+02  0.00000000000E+00 0.  1.
         11    1    1    2    0    0 -0.12530235323E+02 -0.10092416843E+01 -0.75415623278E+02  0.76456141679E+02  0.00000000000E+00 0. -1.
</event>
<event>
 6    1  0.4988969E-006  0.1531848E+03  0.7561462E-02  0.1196613E+00
          3   -1    0    0  501    0  0.00000000000E+00  0.00000000000E+00  0.17759424542E+03  0.17759424542E+03  0.00000000000E+00 0. -1.
         -3   -1    0    0    0  501 -0.00000000000E+00 -0.00000000000E+00 -0.17757890349E+03  0.17757890349E+03  0.00000000000E+00 0.  1.
          5    1    1    2  502    0 -0.14249879759E+02  0.24588561103E+01  0.33823073326E+02  0.37021314614E+02  0.41800000000E+01 0. -1.
         -5    1    1    2    0  502  0.58375305497E+02  0.13043291345E+03 -0.49949204761E+02  0.15143584998E+03  0.41800000000E+01 0. -1.
        -11    1    1    2    0    0 -0.19120220395E+02 -0.11738699383E+03  0.43402415244E+02  0.12660591928E+03  0.00000000000E+00 0. -1.
         11    1    1    2    0    0 -0.25005205343E+02 -0.15504775733E+02 -0.27260941883E+02  0.40110065035E+02  0.00000000000E+00 0.  1.
</event>
<event>
 6    1  0.4988969E-006  0.1235426E+03  0.7561462E-02  0.1237365E+00
         -2   -1    0    0    0  501 -0.00000000000E+00  0.00000000000E+00  0.13017456678E+03  0.13017456678E+03  0.00000000000E+00 0. -1.
          2   -1    0    0  501    0  0.00000000000E+00 -0.00000000000E+00 -0.16140778000E+03  0.16140778000E+03  0.00000000000E+00 0.  1.
          5    1    1    2  502    0 -0.93069300521E+02 -0.52448261897E+02  0.28373364135E+02  0.11061299683E+03  0.41800000000E+01 0.  1.
         -5    1    1    2    0  502  0.38990381424E+02 -0.17148139345E+02 -0.86776026318E+01  0.43670146714E+02  0.41800000000E+01 0.  1.
        -11    1    1    2    0    0  0.19140853441E+01  0.34382596441E+02  0.22080136948E+02  0.40906712265E+02  0.00000000000E+00 0. -1.
         11    1    1    2    0    0  0.52164833753E+02  0.35213804802E+02 -0.73009111674E+02  0.96392490975E+02  0.00000000000E+00 0.  1.
</event>
<event>
 6    1  0.4988969E-006  0.1119024E+03  0.7561462E-02  0.1257087E+00
         -1   -1    0    0    0  501 -0.00000000000E+00  0.00000000000E+00  0.11875364388E+03  0.11875364388E+03  0.00000000000E+00 0.  1.
          1   -1    0    0  501    0  0.00000000000E+00 -0.00000000000E+00 -0.11129710978E+03  0.11129710978E+03  0.00000000000E+00 0. -1.
          5    1    1    2  502    0  0.74562622433E+02 -0.33523052718E+02 -0.18394963492E+02  0.83900100175E+02  0.41800000000E+01 0.  1.
         -5    1    1    2    0  502 -0.38367962125E+02  0.25349696409E+02  0.85511295299E+01  0.46960641412E+02  0.41800000000E+01 0.  1.
        -11    1    1    2    0    0 -0.38639231590E+02  0.44743735377E+02  0.11295202788E+01  0.59129247327E+02  0.00000000000E+00 0. -1.
         11    1    1    2    0    0  0.24445712819E+01 -0.36570379068E+02  0.16170847789E+02  0.40060764748E+02  0.00000000000E+00 0.  1.
</event>
<event>
 6    1  0.4988969E-006  0.8423044E+02  0.7561462E-02  0.1317457E+00
          3   -1    0    0  501    0  0.00000000000E+00  0.00000000000E+00  0.15644873054E+02  0.15644873054E+02  0.00000000000E+00 0. -1.
         -3   -1    0    0    0  501 -0.00000000000E+00 -0.00000000000E+00 -0.66974826643E+03  0.66974826643E+03  0.00000000000E+00 0.  1.
          5    1    1    2  502    0  0.37280123124E+02 -0.42743572895E+02 -0.11554486987E+03  0.12878241323E+03  0.41800000000E+01 0.  1.
         -5    1    1    2    0  502  0.78537463658E+00  0.52559421167E+02 -0.38747317661E+03  0.39104481145E+03  0.41800000000E+01 0.  1.
        -11    1    1    2    0    0 -0.20924129230E+02 -0.27284955835E+02 -0.12564218258E+03  0.13026222032E+03  0.00000000000E+00 0.  1.
         11    1    1    2    0    0 -0.17141368531E+02  0.17469107563E+02 -0.25443164319E+02  0.35303694492E+02  0.00000000000E+00 0. -1.
</event>
<event>
 6    1  0.4988969E-006  0.1810566E+03  0.7561462E-02  0.1166784E+00
          2   -1    0    0  501    0  0.00000000000E+00  0.00000000000E+00  0.14337401077E+04  0.14337401077E+04  0.00000000000E+00 0. -1.
         -2   -1    0    0    0  501 -0.00000000000E+00 -0.00000000000E+00 -0.26261889277E+02  0.26261889277E+02  0.00000000000E+00 0.  1.
          5    1    1    2  502    0  0.35122686745E+02  0.28708994355E+02  0.93336935500E+02  0.10386079823E+03  0.41800000000E+01 0.  1.
         -5    1    1    2    0  502  0.10715078963E+03 -0.10295035372E+03  0.65408477575E+03  0.67076406681E+03  0.41800000000E+01 0.  1.
        -11    1    1    2    0    0 -0.59352576033E+02  0.58822461086E+02  0.18645273982E+03  0.20432188918E+03  0.00000000000E+00 0.  1.
         11    1    1    2    0    0 -0.82920900343E+02  0.15418898279E+02  0.47360376734E+03  0.48105524275E+03  0.00000000000E+00 0. -1.
</event>
<event>
 6    1  0.4988969E-006  0.1496125E+03  0.7561462E-02  0.1200950E+00
         -1   -1    0    0    0  501 -0.00000000000E+00  0.00000000000E+00  0.60219806021E+02  0.60219806021E+02  0.00000000000E+00 0. -1.
          1   -1    0    0  501    0  0.00000000000E+00 -0.00000000000E+00 -0.41898205900E+03  0.41898205900E+03  0.00000000000E+00 0.  1.
          5    1    1    2  502    0  0.76865943808E+01  0.56149319912E+02 -0.12826083856E+03  0.14028594002E+03  0.41800000000E+01 0.  1.
         -5    1    1    2    0  502 -0.98711658009E+02  0.14126957404E+02 -0.76141281181E+02  0.12553298153E+03  0.41800000000E+01 0.  1.
        -11    1    1    2    0    0  0.56100079986E+01 -0.55653313572E+02 -0.35364120602E+02  0.66176918387E+02  0.00000000000E+00 0.  1.
         11    1    1    2    0    0  0.85415055630E+02 -0.14622963744E+02 -0.11899601264E+03  0.14720602508E+03  0.00000000000E+00 0. -1.
</event>
<event>
 6    1  0.4988969E-006  0.1282609E+03  0.7561462E-02  0.1230059E+00
         -1   -1    0    0    0  501 -0.00000000000E+00  0.00000000000E+00  0.77970299656E+02  0.77970299656E+02  0.00000000000E+00 0.  1.
          1   -1    0    0  501    0  0.00000000000E+00 -0.00000000000E+00 -0.25490634460E+03  0.25490634460E+03  0.00000000000E+00 0. -1.
          5    1    1    2  502    0  0.37872572360E+02 -0.31011457489E+02  0.30496732572E+01  0.49222100115E+02  0.41800000000E+01 0. -1.
         -5    1    1    2    0  502 -0.89297426233E+02 -0.25821949416E+02 -0.45000347885E+02  0.10336008472E+03  0.41800000000E+01 0. -1.
        -11    1    1    2    0    0  0.75249326759E+02  0.45776223472E+02 -0.78428404892E+02  0.11793616285E+03  0.00000000000E+00 0. -1.
         11    1    1    2    0    0 -0.23824472886E+02  0.11057183433E+02 -0.56556965424E+02  0.62358296575E+02  0.00000000000E+00 0.  1.
</event>
<event>
 6    1  0.4988969E-006  0.1582264E+03  0.7561462E-02  0.1190714E+00
         -1   -1    0    0    0  501 -0.00000000000E+00  0.00000000000E+00  0.24579653993E+02  0.24579653993E+02  0.00000000000E+00 0.  1.
          1   -1    0    0  501    0  0.00000000000E+00 -0.00000000000E+00 -0.14662776864E+04  0.14662776864E+04  0.00000000000E+00 0. -1.
          5    1    1    2  502    0  0.92764295198E+02 -0.13235308643E+02 -0.80961092745E+03  0.81502620455E+03  0.41800000000E+01 0. -1.
         -5    1    1    2    0  502 -0.12412903146E+03  0.20153815613E+02 -0.22915577635E+03  0.26142692090E+03  0.41800000000E+01 0.  1.
        -11    1    1    2    0    0  0.57076029528E+02 -0.28008190009E+02 -0.26632067419E+03  0.27380437059E+03  0.00000000000E+00 0. -1.
         11    1    1    2    0    0 -0.25711293267E+02  0.21089683039E+02 -0.13661065440E+03  0.14059984434E+03  0.00000000000E+00 0.  1.
</event>
<event>
 6    1  0.4988969E-006  0.9335817E+02  0.7561462E-02  0.1294917E+00
         -2   -1    0    0    0  501 -0.00000000000E+00  0.00000000000E+00  0.25653853840E+03  0.25653853840E+03  0.00000000000E+00 0.  1.
          2   -1    0    0  501    0  0.00000000000E+00 -0.00000000000E+00 -0.76986267437E+02  0.76986267437E+02  0.00000000000E+00 0. -1.
          5    1    1    2  502    0 -0.17400988955E+02  0.53953951006E+02  0.17417486167E+03  0.18321620585E+03  0.41800000000E+01 0. -1.
         -5    1    1    2    0  502  0.46542749322E+01 -0.40176728710E+02  0.32933790476E+02  0.52325316627E+02  0.41800000000E+01 0.  1.
        -11    1    1    2    0    0  0.24902849002E+01  0.37164095535E+02  0.35574494064E+01  0.37416934162E+02  0.00000000000E+00 0.  1.
         11    1    1    2    0    0  0.10256429122E+02 -0.50941317831E+02 -0.31113830597E+02  0.60566349197E+02  0.00000000000E+00 0. -1.
</event>
<event>
 6    1  0.4988969E-006  0.1176745E+03  0.7561462E-02  0.1246983E+00
          2   -1    0    0  501    0  0.00000000000E+00  0.00000000000E+00  0.17046680507E+03  0.17046680507E+03  0.00000000000E+00 0.  1.
         -2   -1    0    0    0  501 -0.00000000000E+00 -0.00000000000E+00 -0.14053729061E+03  0.14053729061E+03  0.00000000000E+00 0. -1.
          5    1    1    2  502    0  0.16296146389E+01  0.18494459188E+02 -0.56176659683E+02  0.59312647535E+02  0.41800000000E+01 0.  1.
         -5    1    1    2    0  502 -0.61097048408E+02 -0.80448684846E+02  0.38768262245E+01  0.10117975291E+03  0.41800000000E+01 0.  1.
        -11    1    1    2    0    0 -0.10247002582E+02  0.41228380689E+02  0.61751910462E+02  0.74953845011E+02  0.00000000000E+00 0.  1.
         11    1    1    2    0    0  0.69714436352E+02  0.20725844968E+02  0.20477437463E+02  0.75557850225E+02  0.00000000000E+00 0. -1.
</event>
<event>
 6    1  0.4988969E-006  0.1335082E+03  0.7561462E-02  0.1222341E+00
          1   -1    0    0  501    0  0.00000000000E+00  0.00000000000E+00  0.24822351462E+03  0.24822351462E+03  0.00000000000E+00 0. -1.
         -1   -1    0    0    0  501 -0.00000000000E+00 -0.00000000000E+00 -0.93036045612E+02  0.93036045612E+02  0.00000000000E+00 0.  1.
          5    1    1    2  502    0 -0.50920071998E+02  0.13387781051E+02  0.59290249696E+02  0.79403353347E+02  0.41800000000E+01 0. -1.
         -5    1    1    2    0  502  0.15924004264E+02  0.76334019787E+02 -0.22699891089E+02  0.81321669585E+02  0.41800000000E+01 0.  1.
        -11    1    1    2    0    0  0.68534962298E+02 -0.55436047134E+02  0.77518972532E+02  0.11738563575E+03  0.00000000000E+00 0.  1.
         11    1    1    2    0    0 -0.33538894565E+02 -0.34285753703E+02  0.41078137867E+02  0.63148901544E+02  0.00000000000E+00 0. -1.
</event>
<event>
 6    1  0.4988969E-006  0.1023290E+03  0.7561462E-02  0.1275473E+00
         -1   -1    0    0    0  501 -0.00000000000E+00  0.00000000000E+00  0.38310252934E+02  0.38310252934E+02  0.00000000000E+00 0.  1.
          1   -1    0    0  501    0  0.00000000000E+00 -0.00000000000E+00 -0.44876546076E+03  0.44876546076E+03  0.00000000000E+00 0. -1.
          5    1    1    2  502    0  0.27325978727E+02 -0.21380417619E+02  0.73543283268E+01  0.35712601643E+02  0.41800000000E+01 0. -1.
         -5    1    1    2    0  502  0.52058130189E+01  0.62822676145E+02 -0.14226232570E+03  0.15565934228E+03  0.41800000000E+01 0. -1.
        -11    1    1    2    0    0 -0.65332812521E+02 -0.26890391724E+02 -0.19882897177E+03  0.21100812680E+03  0.00000000000E+00 0.  1.
         11    1    1    2    0    0  0.32801020774E+02 -0.14551866803E+02 -0.76718238688E+02  0.84695642973E+02  0.00000000000E+00 0. -1.
</event>
<event>
 6    1  0.4988969E-006  0.9175598E+02  0.7561462E-02  0.1298654E+00
         -1   -1    0    0    0  501 -0.00000000000E+00  0.00000000000E+00  0.17045440892E+02  0.17045440892E+02  0.00000000000E+00 0.  1.
          1   -1    0    0  501    0  0.00000000000E+00 -0.00000000000E+00 -0.74251873181E+03  0.74251873181E+03  0.00000000000E+00 0. -1.
          5    1    1    2  502    0  0.44661658975E+02  0.27824105202E+02 -0.33312872542E+03  0.33728484210E+03  0.41800000000E+01 0. -1.
         -5    1    1    2    0  502 -0.20893460459E+02 -0.43292746089E+02 -0.64532851119E+02  0.80577663328E+02  0.41800000000E+01 0. -1.
        -11    1    1    2    0    0  0.89266872041E+01 -0.27252833421E+02 -0.41908278317E+02  0.50780965581E+02  0.00000000000E+00 0.  1.
         11    1    1    2    0    0 -0.32694885720E+02  0.42721474308E+02 -0.28590343606E+03  0.29092070169E+03  0.00000000000E+00 0. -1.
</event>
<event>
 6    1  0.4988969E-006  0.1032660E+03  0.7561462E-02  0.1273574E+00
         -1   -1    0    0    0  501 -0.00000000000E+00  0.00000000000E+00  0.11262762785E+03  0.11262762785E+03  0.00000000000E+00 0.  1.
          1   -1    0    0  501    0  0.00000000000E+00 -0.00000000000E+00 -0.19029737131E+03  0.19029737131E+03  0.00000000000E+00 0. -1.
          5    1    1    2  502    0  0.70712637001E+00  0.29282888722E+02 -0.51901350305E+02  0.59742867048E+02  0.41800000000E+01 0. -1.
         -5    1    1    2    0  502  0.23107382117E+02 -0.93037893982E+02  0.50168350972E+02  0.10827897610E+03  0.41800000000E+01 0.  1.
        -11    1    1    2    0    0  0.11074010943E+02  0.39626925074E+01 -0.63485302813E+02  0.64565628035E+02  0.00000000000E+00 0.  1.
         11    1    1    2    0    0 -0.34888519430E+02  0.59792312753E+02 -0.12451441307E+02  0.70337527985E+02  0.00000000000E+00 0. -1.
</event>
<event>
 6    1  0.4988969E-006  0.1525118E+03  0.7561462E-02  0.1197420E+00
         -1   -1    0    0    0  501 -0.00000000000E+00  0.00000000000E+00  0.67917054488E+02  0.67917054488E+02  0.00000000000E+00 0.  1.
          1   -1    0    0  501    0  0.00000000000E+00 -0.00000000000E+00 -0.35963605297E+03  0.35963605297E+03  0.00000000000E+00 0. -1.
          5    1    1    2  502    0 -0.12263608681E+02  0.81883146824E+02 -0.77660919569E+02  0.11359549577E+03  0.41800000000E+01 0. -1.
         -5    1    1    2    0  502 -0.82324776473E+02 -0.21257570065E+02 -0.71601389183E+02  0.11123616516E+03  0.41800000000E+01 0. -1.
        -11    1    1    2    0    0  0.66447479883E+02  0.39381512462E+01 -0.37725789254E+02  0.76511514120E+02  0.00000000000E+00 0.  1.
         11    1    1    2    0    0  0.28140905271E+02 -0.64563728006E+02 -0.10473090048E+03  0.12620993241E+03  0.00000000000E+00 0. -1.
</event>
<event>
 6    1  0.4988969E-006  0.1068083E+03  0.7561462E-02  0.1266597E+00
         -2   -1    0    0    0  501 -0.00000000000E+00  0.00000000000E+00  0.22286064006E+02  0.22286064006E+02  0.00000000000E+00 0. -1.
          2   -1    0    0  501    0  0.00000000000E+00 -0.00000000000E+00 -0.56026635884E+03  0.56026635884E+03  0.00000000000E+00 0.  1.
          5    1    1    2  502    0  0.54220556372E+02 -0.31179183795E+00 -0.14867825368E+03  0.15831191195E+03  0.41800000000E+01 0. -1.
         -5    1    1    2    0  502 -0.65567304806E+02  0.21293360396E+02 -0.10778208288E+03  0.12801143873E+03  0.41800000000E+01 0. -1.
        -11    1    1    2    0    0  0.14254706915E+02  0.33084726434E+02 -0.14390469449E+03  0.14834539726E+03  0.00000000000E+00 0.  1.
         11    1    1    2    0    0 -0.29079584815E+01 -0.54066294992E+02 -0.13761526378E+03  0.14788367490E+03  0.00000000000E+00 0. -1.
</event>
<event>
 6    1  0.4988969E-006  0.1059409E+03  0.7561462E-02  0.1268277E+00
         -2   -1    0    0    0  501 -0.00000000000E+00  0.00000000000E+00  0.17295896990E+02  0.17295896990E+02  0.00000000000E+00 0.  1.
          2   -1    0    0  501    0  0.00000000000E+00 -0.00000000000E+00 -0.10998264311E+04  0.10998264311E+04  0.00000000000E+00 0. -1.
          5    1    1    2  502    0  0.11578491696E+02  0.52320772852E+01 -0.37211557840E+03  0.37235589453E+03  0.41800000000E+01 0. -1.
         -5    1    1    2    0  502 -0.50513461161E+02 -0.28895172371E+02 -0.80345828313E+02  0.99294840108E+02  0.41800000000E+01 0.  1.
        -11    1    1    2    0    0 -0.13131356334E+02  0.69539285273E+02 -0.31580067183E+03  0.32363283060E+03  0.00000000000E+00 0.  1.
         11    1    1    2    0    0  0.52066325799E+02 -0.45876190187E+02 -0.31426845559E+03  0.32183876287E+03  0.00000000000E+00 0. -1.
</event>
<event>
 6    1  0.4988969E-006  0.1003639E+03  0.7561462E-02  0.1279533E+00
         -3   -1    0    0    0  501 -0.00000000000E+00  0.00000000000E+00  0.78192515397E+03  0.78192515397E+03  0.00000000000E+00 0.  1.
          3   -1    0    0  501    0  0.00000000000E+00 -0.00000000000E+00 -0.18998901787E+02  0.18998901787E+02  0.00000000000E+00 0. -1.
          5    1    1    2  502    0  0.80333521391E+02  0.39348023151E+02  0.37867942586E+03  0.38912378693E+03  0.41800000000E+01 0. -1.
         -5    1    1    2    0  502 -0.40769902540E+02 -0.19492759155E+02  0.14247704610E+03  0.14953037710E+03  0.41800000000E+01 0.  1.
        -11    1    1    2    0    0 -0.48858255431E+02 -0.61626247777E+01  0.24070010905E+03  0.24568607930E+03  0.00000000000E+00 0.  1.
         11    1    1    2    0    0  0.92946365806E+01 -0.13692639219E+02  0.10696711792E+01  0.16583812420E+02  0.00000000000E+00 0. -1.
</event>
<event>
 6    1  0.4988969E-006  0.1060654E+03  0.7561462E-02  0.1268035E+00
          3   -1    0    0  501    0  0.00000000000E+00  0.00000000000E+00  0.37059786481E+03  0.37059786481E+03  0.00000000000E+00 0. -1.
         -3   -1    0    0    0  501 -0.00000000000E+00 -0.00000000000E+00 -0.35670158419E+02  0.35670158419E+02  0.00000000000E+00 0.  1.
          5    1    1    2  502    0  0.69140526151E+02 -0.36622924087E+02  0.73573298027E+02  0.10748094486E+03  0.41800000000E+01 0. -1.
         -5    1    1    2    0  502 -0.30700204689E+02  0.29374924111E+02  0.11070388623E+03  0.11865163952E+03  0.41800000000E+01 0. -1.
        -11    1    1    2    0    0  0.24845474942E+02 -0.77849447548E+01  0.79864597175E+02  0.84001528985E+02  0.00000000000E+00 0. -1.
         11    1    1    2    0    0 -0.63285796403E+02  0.15032944731E+02  0.70785924963E+02  0.96133909868E+02  0.00000000000E+00 0.  1.
</event>
<event>
 6    1  0.4988969E-006  0.2511981E+03  0.7561462E-02  0.1112550E+00
          2   -1    0    0  501    0  0.00000000000E+00  0.00000000000E+00  0.17165898760E+04  0.17165898760E+04  0.00000000000E+00 0. -1.
         -2   -1    0    0    0  501 -0.00000000000E+00 -0.00000000000E+00 -0.48518520227E+02  0.48518520227E+02  0.00000000000E+00 0.  1.
          5    1    1    2  502    0 -0.84974981850E+02  0.11260432254E+03  0.34917827980E+03  0.37662106218E+03  0.41800000000E+01 0.  1.
         -5    1    1    2    0  502  0.73814450078E+01  0.10983685228E+03  0.11865152694E+03  0.16190823665E+03  0.41800000000E+01 0.  1.
        -11    1    1    2    0    0  0.81354488712E+02 -0.10140140037E+03  0.54982758035E+03  0.56498775645E+03  0.00000000000E+00 0.  1.
         11    1    1    2    0    0 -0.37609518700E+01 -0.12103977445E+03  0.65041396871E+03  0.66159134097E+03  0.00000000000E+00 0. -1.
</event>
<event>
 6    1  0.4988969E-006  0.1040139E+03  0.7561462E-02  0.1272075E+00
          1   -1    0    0  501    0  0.00000000000E+00  0.00000000000E+00  0.49043536374E+03  0.49043536374E+03  0.00000000000E+00 0. -1.
         -1   -1    0    0    0  501 -0.00000000000E+00 -0.00000000000E+00 -0.33044074866E+02  0.33044074866E+02  0.00000000000E+00 0.  1.
          5    1    1    2  502    0  0.70148382676E+02  0.53126610277E+02  0.13233064238E+03  0.15897202151E+03  0.41800000000E+01 0. -1.
         -5    1    1    2    0  502 -0.14137355258E+02 -0.45753227742E+02  0.51539892780E+02  0.70477341113E+02  0.41800000000E+01 0. -1.
        -11    1    1    2    0    0  0.27716859836E+01 -0.12550528128E+02 -0.13248088925E+01  0.12921033940E+02  0.00000000000E+00 0.  1.
         11    1    1    2    0    0 -0.58782713402E+02  0.51771455930E+01  0.27484556261E+03  0.28110904204E+03  0.00000000000E+00 0. -1.
</event>
<event>
 6    1  0.4988969E-006  0.1268944E+03  0.7561462E-02  0.1232138E+00
         -3   -1    0    0    0  501 -0.00000000000E+00  0.00000000000E+00  0.23604032043E+03  0.23604032043E+03  0.00000000000E+00 0.  1.
          3   -1    0    0  501    0  0.00000000000E+00 -0.00000000000E+00 -0.96788242519E+02  0.96788242519E+02  0.00000000000E+00 0. -1.
          5    1    1    2  502    0  0.43376390446E+02  0.88516575458E+02  0.12732245763E+03  0.16107506323E+03  0.41800000000E+01 0. -1.
         -5    1    1    2    0  502 -0.24013023143E+02  0.99538282328E+01 -0.18995753786E+02  0.32465597774E+02  0.41800000000E+01 0. -1.
        -11    1    1    2    0    0 -0.14984857110E+02  0.11407871604E+02  0.22001082557E+02  0.28960889331E+02  0.00000000000E+00 0.  1.
         11    1    1    2    0    0 -0.43785101935E+01 -0.10987827530E+03  0.89242915141E+01  0.11032701261E+03  0.00000000000E+00 0. -1.
</event>
<event>
 6    1  0.4988969E-006  0.1289210E+03  0.7561462E-02  0.1229066E+00
         -2   -1    0    0    0  501 -0.00000000000E+00  0.00000000000E+00  0.37781500608E+03  0.37781500608E+03  0.00000000000E+00 0.  1.
          2   -1    0    0  501    0  0.00000000000E+00 -0.00000000000E+00 -0.62459854351E+02  0.62459854351E+02  0.00000000000E+00 0. -1.
          5    1    1    2  502    0 -0.89152523218E+02 -0.52607853907E+02  0.22959459213E+03  0.25188669640E+03  0.41800000000E+01 0. -1.
         -5    1    1    2    0  502  0.31684118275E+02 -0.19671152053E+02  0.20945082734E+02  0.42976813105E+02  0.41800000000E+01 0. -1.
        -11    1    1    2    0    0 -0.53487314745E+01 -0.11098809482E+02  0.34608477670E+02  0.36736075279E+02  0.00000000000E+00 0.  1.
         11    1    1    2    0    0  0.62817136417E+02  0.83377815442E+02  0.30206999191E+02  0.10867527564E+03  0.00000000000E+00 0. -1.
</event>
<event>
 6    1  0.4988969E-006  0.1810447E+03  0.7561462E-02  0.1166796E+00
          2   -1    0    0  501    0  0.00000000000E+00  0.00000000000E+00  0.65946909108E+03  0.65946909108E+03  0.00000000000E+00 0. -1.
         -2   -1    0    0    0  501 -0.00000000000E+00 -0.00000000000E+00 -0.56925507008E+02  0.56925507008E+02  0.00000000000E+00 0.  1.
          5    1    1    2  502    0 -0.11896993123E+03  0.20123040661E+02  0.13965849672E+03  0.18460972187E+03  0.41800000000E+01 0.  1.
         -5    1    1    2    0  502 -0.20391105040E+02  0.55628591152E+02  0.22023846069E+03  0.22810696895E+03  0.41800000000E+01 0.  1.
        -11    1    1    2    0    0  0.12648145874E+03 -0.24136233136E+02  0.18290439773E+03  0.22368311484E+03  0.00000000000E+00 0. -1.
         11    1    1    2    0    0  0.12879577534E+02 -0.51615398676E+02  0.59742228941E+02  0.79994792435E+02  0.00000000000E+00 0.  1.
</event>
<event>
 6    1  0.4988969E-006  0.1405262E+03  0.7561462E-02  0.1212623E+00
          2   -1    0    0  501    0  0.00000000000E+00  0.00000000000E+00  0.18692224242E+03  0.18692224242E+03  0.00000000000E+00 0. -1.
         -2   -1    0    0    0  501 -0.00000000000E+00 -0.00000000000E+00 -0.18124189327E+03  0.18124189327E+03  0.00000000000E+00 0.  1.
          5    1    1    2  502    0  0.84571003009E+02 -0.87673294498E+02 -0.10550194519E+03  0.16120481990E+03  0.41800000000E+01 0.  1.
         -5    1    1    2    0  502  0.51066214251E+01 -0.53360899613E-01  0.30478989340E+02  0.31185278914E+02  0.41800000000E+01 0.  1.
        -11    1    1    2    0    0 -0.88718747250E+02  0.28287118646E+02  0.67138555195E+02  0.11479879263E+03  0.00000000000E+00 0.  1.
         11    1    1    2    0    0 -0.95887718406E+00  0.59439536752E+02  0.13564749807E+02  0.60975244256E+02  0.00000000000E+00 0. -1.
</event>
<event>
 6    1  0.4988969E-006  0.1124427E+03  0.7561462E-02  0.1256112E+00
         -1   -1    0    0    0  501 -0.00000000000E+00  0.00000000000E+00  0.55651755036E+02  0.55651755036E+02  0.00000000000E+00 0.  1.
          1   -1    0    0  501    0  0.00000000000E+00 -0.00000000000E+00 -0.39305763027E+03  0.39305763027E+03  0.00000000000E+00 0. -1.
          5    1    1    2  502    0  0.45960223790E+02  0.26318090551E+01 -0.14853054846E+01  0.46248752654E+02  0.41800000000E+01 0.  1.
         -5    1    1    2    0  502 -0.80656145980E+02  0.90396909124E+01 -0.39761240435E+02  0.90474076603E+02  0.41800000000E+01 0.  1.
        -11    1    1    2    0    0  0.47557871550E+02  0.28341573525E+02 -0.18670119415E+03  0.19473657035E+03  0.00000000000E+00 0.  1.
         11    1    1    2    0    0 -0.12861949359E+02 -0.40013073492E+02 -0.10945813516E+03  0.11724998569E+03  0.00000000000E+00 0. -1.
</event>
<event>
 6    1  0.4988969E-006  0.9324831E+02  0.7561462E-02  0.1295171E+00
         -3   -1    0    0    0  501 -0.00000000000E+00  0.00000000000E+00  0.29419238951E+03  0.29419238951E+03  0.00000000000E+00 0.  1.
          3   -1    0    0  501    0  0.00000000000E+00 -0.00000000000E+00 -0.50461652768E+02  0.50461652768E+02  0.00000000000E+00 0. -1.
          5    1    1    2  502    0 -0.39491718695E+02 -0.21949235602E+02 -0.66032730271E+00  0.45379215740E+02  0.41800000000E+01 0. -1.
         -5    1    1    2    0  502  0.34692735719E+02 -0.32470912932E+02  0.14788533181E+03  0.15538819087E+03  0.41800000000E+01 0. -1.
        -11    1    1    2    0    0  0.32253328780E+02 -0.23896023375E+00  0.33271037317E+01  0.32425359499E+02  0.00000000000E+00 0. -1.
         11    1    1    2    0    0 -0.27454345804E+02  0.54659108768E+02  0.93178628505E+02  0.11146127617E+03  0.00000000000E+00 0.  1.
</event>
<event>
 6    1  0.4988969E-006  0.1188363E+03  0.7561462E-02  0.1245029E+00
         -2   -1    0    0    0  501 -0.00000000000E+00  0.00000000000E+00  0.12553591739E+03  0.12553591739E+03  0.00000000000E+00 0.  1.
          2   -1    0    0  501    0  0.00000000000E+00 -0.00000000000E+00 -0.19796471513E+03  0.19796471513E+03  0.00000000000E+00 0. -1.
          5    1    1    2  502    0  0.64200065245E+02 -0.56079934199E+02  0.63533888611E+02  0.10639847179E+03  0.41800000000E+01 0. -1.
         -5    1    1    2    0  502  0.54112727718E+01  0.45128246990E+02 -0.10184106165E+02  0.46765681518E+02  0.41800000000E+01 0. -1.
        -11    1    1    2    0    0  0.17107343378E+02 -0.63623453922E+01 -0.22099234032E+01  0.18385439831E+02  0.00000000000E+00 0.  1.
         11    1    1    2    0    0 -0.86718681395E+02  0.17314032601E+02 -0.12356865679E+03  0.15195103938E+03  0.00000000000E+00 0. -1.
</event>
<event>
 6    1  0.5228733E-006  0.1575104E+03  0.7561462E-02  0.1191536E+00
          1   -1    0    0  501    0  0.00000000000E+00  0.00000000000E+00  0.59929769203E+03  0.59929769203E+03  0.00000000000E+00 0. -1.
         -1   -1    0    0    0  501 -0.00000000000E+00 -0.00000000000E+00 -0.44748703647E+02  0.44748703647E+02  0.00000000000E+00 0.  1.
          5    1    1    2  502    0 -0.13906262071E+03 -0.46268362317E+02  0.25235708209E+03  0.29185740202E+03  0.41800000000E+01 0. -1.
         -5    1    1    2    0  502  0.17970371913E+02  0.17541080252E+02  0.18753886678E+02  0.31619684196E+02  0.41800000000E+01 0. -1.
        -11    1    1    2    0    0  0.12419739112E+03  0.10704881423E+02  0.20415669835E+03  0.23920607001E+03  0.00000000000E+00 0.  1.
         11    1    1    2    0    0 -0.31051423243E+01  0.18022400642E+02  0.79281321265E+02  0.81363239459E+02  0.00000000000E+00 0. -1.
</event>
<event>
 6    1  0.4988969E-006  0.1259302E+03  0.7561462E-02  0.1233623E+00
          2   -1    0    0  501    0  0.00000000000E+00  0.00000000000E+00  0.96567540176E+03  0.96567540176E+03  0.00000000000E+00 0. -1.
         -2   -1    0    0    0  501 -0.00000000000E+00 -0.00000000000E+00 -0.26275543744E+02  0.26275543744E+02  0.00000000000E+00 0.  1.
          5    1    1    2  502    0  0.80552899141E+01 -0.19393390378E+01 -0.21854008685E+01  0.95339975069E+01  0.41800000000E+01 0. -1.
         -5    1    1    2    0  502 -0.35774458315E+02  0.10648239829E+03  0.61556540018E+03  0.62574479408E+03  0.41800000000E+01 0. -1.
        -11    1    1    2    0    0  0.47643967413E+02 -0.38705060229E+02  0.77816062278E+02  0.99112909687E+02  0.00000000000E+00 0.  1.
         11    1    1    2    0    0 -0.19924799012E+02 -0.65837999021E+02  0.24820379642E+03  0.25755924423E+03  0.00000000000E+00 0. -1.
</event>
<event>
 6    1  0.4988969E-006  0.1096079E+03  0.7561462E-02  0.1261298E+00
         -2   -1    0    0    0  501 -0.00000000000E+00  0.00000000000E+00  0.27443465511E+02  0.27443465511E+02  0.00000000000E+00 0.  1.
          2   -1    0    0  501    0  0.00000000000E+00 -0.00000000000E+00 -0.58558977930E+03  0.58558977930E+03  0.00000000000E+00 0. -1.
          5    1    1    2  502    0  0.41384465907E+02 -0.42027320271E+02 -0.14695136768E+03  0.15840185141E+03  0.41800000000E+01 0. -1.
         -5    1    1    2    0  502  0.11783723703E+02  0.79295993640E+02 -0.14308423466E+03  0.16406486936E+03  0.41800000000E+01 0. -1.
        -11    1    1    2    0    0  0.70221191770E+01 -0.13265669581E+02 -0.28405341514E+00  0.15012289416E+02  0.00000000000E+00 0.  1.
         11    1    1    2    0    0 -0.60190308787E+02 -0.24003003788E+02 -0.26782665804E+03  0.27555423462E+03  0.00000000000E+00 0. -1.
</event>
<event>
 6    1  0.4988969E-006  0.2422329E+03  0.7561462E-02  0.1118314E+00
         -1   -1    0    0    0  501 -0.00000000000E+00  0.00000000000E+00  0.12578229525E+03  0.12578229525E+03  0.00000000000E+00 0.  1.
          1   -1    0    0  501    0  0.00000000000E+00 -0.00000000000E+00 -0.62682883117E+03  0.62682883117E+03  0.00000000000E+00 0. -1.
          5    1    1    2  502    0 -0.17288909848E+02  0.18226125153E+02 -0.47547991894E+02  0.53938687182E+02  0.41800000000E+01 0. -1.
         -5    1    1    2    0  502  0.10434214679E+03  0.19912936614E+03 -0.62029958306E+02  0.23324874316E+03  0.41800000000E+01 0. -1.
        -11    1    1    2    0    0 -0.36701169533E+02 -0.88898126112E+02 -0.24977600801E+03  0.26765258610E+03  0.00000000000E+00 0.  1.
         11    1    1    2    0    0 -0.50352067414E+02 -0.12845736518E+03 -0.14169257772E+03  0.19777110998E+03  0.00000000000E+00 0. -1.
</event>
<event>
 6    1  0.4988969E-006  0.9298665E+02  0.7561462E-02  0.1295776E+00
          2   -1    0    0  501    0  0.00000000000E+00  0.00000000000E+00  0.11272039650E+03  0.11272039650E+03  0.00000000000E+00 0. -1.
         -2   -1    0    0    0  501 -0.00000000000E+00 -0.00000000000E+00 -0.16835976936E+03  0.16835976936E+03  0.00000000000E+00 0.  1.
          5    1    1    2  502    0  0.12692120335E+02  0.25792979007E+02  0.16869341944E+02  0.33591885662E+02  0.41800000000E+01 0. -1.
         -5    1    1    2    0  502 -0.72865979291E+02 -0.24529377877E+02 -0.10734836608E+03  0.13210709828E+03  0.41800000000E+01 0. -1.
        -11    1    1    2    0    0  0.27819802137E+02 -0.26861247551E+02 -0.22501275414E+02  0.44741204791E+02  0.00000000000E+00 0.  1.
         11    1    1    2    0    0  0.32354056819E+02  0.25597646420E+02  0.57340926692E+02  0.70639977129E+02  0.00000000000E+00 0. -1.
</event>
<event>
 6    1  0.4988969E-006  0.1711723E+03  0.7561462E-02  0.1176631E+00
          1   -1    0    0  501    0  0.00000000000E+00  0.00000000000E+00  0.26099538068E+03  0.26099538068E+03  0.00000000000E+00 0. -1.
         -1   -1    0    0    0  501 -0.00000000000E+00 -0.00000000000E+00 -0.19135525850E+03  0.19135525850E+03  0.00000000000E+00 0.  1.
          5    1    1    2  502    0 -0.68847106576E+02 -0.11853586439E+03 -0.91769554786E+02  0.16501454123E+03  0.41800000000E+01 0. -1.
         -5    1    1    2    0  502  0.42461064577E+02 -0.11725973551E+02 -0.16678546734E+02  0.47287279282E+02  0.41800000000E+01 0. -1.
        -11    1    1    2    0    0  0.58118037959E+02  0.58368194812E+02  0.92190554579E+02  0.12362706360E+03  0.00000000000E+00 0.  1.
         11    1    1    2    0    0 -0.31731995959E+02  0.71893643132E+02  0.85897669124E+02  0.11642175506E+03  0.00000000000E+00 0. -1.
</event>
<event>
 6    1  0.4988969E-006  0.3251112E+03  0.7561462E-02  0.1073321E+00
          1   -1    0    0  501    0  0.00000000000E+00  0.00000000000E+00  0.54925208550E+03  0.54925208550E+03  0.00000000000E+00 0. -1.
         -1   -1    0    0    0  501 -0.00000000000E+00 -0.00000000000E+00 -0.21062111864E+03  0.21062111864E+03  0.00000000000E+00 0.  1.
          5    1    1    2  502    0  0.17444068193E+03 -0.80946452769E+01  0.15662560072E+03  0.23461484606E+03  0.41800000000E+01 0.  1.
         -5    1    1    2    0  502  0.14030702888E+03 -0.59726340651E+02  0.21593791158E+02  0.15406836903E+03  0.41800000000E+01 0.  1.
        -11    1    1    2    0    0 -0.17532757297E+03  0.50814800979E+02  0.13827684436E+03  0.22900302952E+03  0.00000000000E+00 0. -1.
         11    1    1    2    0    0 -0.13942013783E+03  0.17006184949E+02  0.22134730628E+02  0.14218695953E+03  0.00000000000E+00 0.  1.
</event>
<event>
 6    1  0.4988969E-006  0.1192143E+03  0.7561462E-02  0.1244399E+00
          2   -1    0    0  501    0  0.00000000000E+00  0.00000000000E+00  0.33078865782E+03  0.33078865782E+03  0.00000000000E+00 0. -1.
         -2   -1    0    0    0  501 -0.00000000000E+00 -0.00000000000E+00 -0.50140659599E+02  0.50140659599E+02  0.00000000000E+00 0.  1.
          5    1    1    2  502    0  0.23136215504E+02  0.68131615375E+02  0.92214023620E+02  0.11703888257E+03  0.41800000000E+01 0.  1.
         -5    1    1    2    0  502 -0.56026899972E+02 -0.14816459550E+02  0.17290925452E+02  0.60621691638E+02  0.41800000000E+01 0.  1.
        -11    1    1    2    0    0 -0.20118192735E+02 -0.51411946074E+02  0.10355034809E+03  0.11734821885E+03  0.00000000000E+00 0.  1.
         11    1    1    2    0    0  0.53008877203E+02 -0.19032097507E+01  0.67592701059E+02  0.85920524359E+02  0.00000000000E+00 0. -1.
</event>
<event>
 6    1  0.4988969E-006  0.1671984E+03  0.7561462E-02  0.1180801E+00
          2   -1    0    0  501    0  0.00000000000E+00  0.00000000000E+00  0.85415483816E+02  0.85415483816E+02  0.00000000000E+00 0. -1.
         -2   -1    0    0    0  501 -0.00000000000E+00 -0.00000000000E+00 -0.51749189129E+03  0.51749189129E+03  0.00000000000E+00 0.  1.
          5    1    1    2  502    0 -0.12805028126E+01  0.13182011719E+02  0.37791991698E+01  0.14393049252E+02  0.41800000000E+01 0.  1.
         -5    1    1    2    0  502 -0.13957833324E+03 -0.56229720955E+02 -0.37562592061E+03  0.40466800870E+03  0.41800000000E+01 0.  1.
        -11    1    1    2    0    0  0.29620371723E+02  0.50433507544E+02 -0.30835873638E+01  0.58569732928E+02  0.00000000000E+00 0.  1.
         11    1    1    2    0    0  0.11123846433E+03 -0.73857983072E+01 -0.57146098666E+02  0.12527658423E+03  0.00000000000E+00 0. -1.
</event>
<event>
 6    1  0.4988969E-006  0.1297666E+03  0.7561462E-02  0.1227802E+00
         -2   -1    0    0    0  501 -0.00000000000E+00  0.00000000000E+00  0.38260502675E+03  0.38260502675E+03  0.00000000000E+00 0. -1.
          2   -1    0    0  501    0  0.00000000000E+00 -0.00000000000E+00 -0.59221962328E+02  0.59221962328E+02  0.00000000000E+00 0.  1.
          5    1    1    2  502    0  0.41730294083E+02  0.91429163012E+02  0.15584746443E+03  0.18549019884E+03  0.41800000000E+01 0.  1.
         -5    1    1    2    0  502  0.43771046461E+02 -0.33843744736E+02  0.38250905271E+02  0.67393677152E+02  0.41800000000E+01 0.  1.
        -11    1    1    2    0    0 -0.10988460861E+02 -0.11177585153E+02  0.92409631703E+02  0.93729529570E+02  0.00000000000E+00 0. -1.
         11    1    1    2    0    0 -0.74512879683E+02 -0.46407833124E+02  0.36875063008E+02  0.95213583515E+02  0.00000000000E+00 0.  1.
</event>
<event>
 6    1  0.4988969E-006  0.1022660E+03  0.7561462E-02  0.1275602E+00
         -2   -1    0    0    0  501 -0.00000000000E+00  0.00000000000E+00  0.11869875596E+03  0.11869875596E+03  0.00000000000E+00 0.  1.
          2   -1    0    0  501    0  0.00000000000E+00 -0.00000000000E+00 -0.16576060560E+03  0.16576060560E+03  0.00000000000E+00 0. -1.
          5    1    1    2  502    0  0.18558003646E+02  0.67562351891E+02  0.61593718228E+02  0.93382704060E+02  0.41800000000E+01 0.  1.
         -5    1    1    2    0  502  0.73548479232E+01  0.10997128703E+02 -0.55008498292E+02  0.56731278075E+02  0.41800000000E+01 0.  1.
        -11    1    1    2    0    0 -0.44006060281E+02 -0.89209705081E+02 -0.54322496142E+02  0.11333948301E+03  0.00000000000E+00 0. -1.
         11    1    1    2    0    0  0.18093208711E+02  0.10650224486E+02  0.67542656043E+00  0.21005896413E+02  0.00000000000E+00 0.  1.
</event>
<event>
 6    1  0.4988969E-006  0.1020570E+03  0.7561462E-02  0.1276029E+00
          4   -1    0    0  501    0  0.00000000000E+00  0.00000000000E+00  0.70493203573E+02  0.70493203573E+02  0.00000000000E+00 0. -1.
         -4   -1    0    0    0  501 -0.00000000000E+00 -0.00000000000E+00 -0.17368574348E+03  0.17368574348E+03  0.00000000000E+00 0.  1.
          5    1    1    2  502    0  0.64414052947E+02  0.24680776614E+02 -0.43844682058E+02  0.81842162093E+02  0.41800000000E+01 0.  1.
         -5    1    1    2    0  502 -0.50763630161E+02 -0.24376218776E+02 -0.44754938180E+02  0.72052918611E+02  0.41800000000E+01 0.  1.
        -11    1    1    2    0    0  0.13796427885E+02 -0.33048873238E+02  0.14453320705E+02  0.38619527756E+02  0.00000000000E+00 0. -1.
         11    1    1    2    0    0 -0.27446850671E+02  0.32744315399E+02 -0.29046240379E+02  0.51664338598E+02  0.00000000000E+00 0.  1.
</event>
<event>
 6    1  0.4988969E-006  0.9449586E+02  0.7561462E-02  0.1292316E+00
          2   -1    0    0  501    0  0.00000000000E+00  0.00000000000E+00  0.63183165472E+02  0.63183165472E+02  0.00000000000E+00 0. -1.
         -2   -1    0    0    0  501 -0.00000000000E+00 -0.00000000000E+00 -0.23749346094E+03  0.23749346094E+03  0.00000000000E+00 0.  1.
          5    1    1    2  502    0 -0.19469174360E+02  0.56473820488E+02 -0.41947623181E+02  0.73112356283E+02  0.41800000000E+01 0.  1.
         -5    1    1    2    0  502 -0.61925495235E+01 -0.59029544294E+02 -0.11281703310E+03  0.12754603140E+03  0.41800000000E+01 0.  1.
        -11    1    1    2    0    0 -0.40791974805E+01  0.29317925916E+02 -0.44072020340E+02  0.53089769344E+02  0.00000000000E+00 0.  1.
         11    1    1    2    0    0  0.29740921364E+02 -0.26762202110E+02  0.24526381159E+02  0.46928469377E+02  0.00000000000E+00 0. -1.
</event>
<event>
 6    1  0.4988969E-006  0.1331673E+03  0.7561462E-02  0.1222830E+00
          2   -1    0    0  501    0  0.00000000000E+00  0.00000000000E+00  0.32038414200E+03  0.32038414200E+03  0.00000000000E+00 0. -1.
         -2   -1    0    0    0  501 -0.00000000000E+00 -0.00000000000E+00 -0.69143598941E+02  0.69143598941E+02  0.00000000000E+00 0.  1.
          5    1    1    2  502    0  0.98864144065E+02  0.30662701397E+02  0.45689175164E+02  0.11322231832E+03  0.41800000000E+01 0. -1.
         -5    1    1    2    0  502 -0.35314037767E+02  0.36312075920E+02  0.37056490468E+02  0.62899157442E+02  0.41800000000E+01 0. -1.
        -11    1    1    2    0    0  0.11918113163E+02 -0.15156997619E+01 -0.51523264973E+01  0.13072307963E+02  0.00000000000E+00 0.  1.
         11    1    1    2    0    0 -0.75468219461E+02 -0.65459077555E+02  0.17364720392E+03  0.20033395721E+03  0.00000000000E+00 0. -1.
</event>
<event>
 6    1  0.4988969E-006  0.6013990E+02  0.7561462E-02  0.1397246E+00
          2   -1    0    0  501    0  0.00000000000E+00  0.00000000000E+00  0.16080801582E+03  0.16080801582E+03  0.00000000000E+00 0. -1.
         -2   -1    0    0    0  501 -0.00000000000E+00 -0.00000000000E+00 -0.10957144881E+03  0.10957144881E+03  0.00000000000E+00 0.  1.
          5    1    1    2  502    0  0.52913326551E+01 -0.25851704868E+02 -0.88767991336E+02  0.92701335113E+02  0.41800000000E+01 0.  1.
         -5    1    1    2    0  502 -0.35170898852E+01  0.52166808248E+01  0.41820620947E+02  0.42497298931E+02  0.41800000000E+01 0.  1.
        -11    1    1    2    0    0 -0.37143082640E+02  0.31825233256E+02  0.29503151671E+02  0.57121712319E+02  0.00000000000E+00 0.  1.
         11    1    1    2    0    0  0.35368839870E+02 -0.11190209213E+02  0.68680785729E+02  0.78059118265E+02  0.00000000000E+00 0. -1.
</event>
<event>
 6    1  0.4988969E-006  0.1247848E+03  0.7561462E-02  0.1235406E+00
         -2   -1    0    0    0  501 -0.00000000000E+00  0.00000000000E+00  0.42239719308E+03  0.42239719308E+03  0.00000000000E+00 0.  1.
          2   -1    0    0  501    0  0.00000000000E+00 -0.00000000000E+00 -0.53096392740E+02  0.53096392740E+02  0.00000000000E+00 0. -1.
          5    1    1    2  502    0  0.19429727365E+02 -0.83051236529E+02  0.55791258939E+02  0.10200568204E+03  0.41800000000E+01 0.  1.
         -5    1    1    2    0  502  0.55612878870E+02  0.12721678244E+02  0.14553238531E+03  0.15637065252E+03  0.41800000000E+01 0.  1.
        -11    1    1    2    0    0 -0.55394428954E+02  0.32190309520E+02  0.16147967364E+03  0.17372519618E+03  0.00000000000E+00 0.  1.
         11    1    1    2    0    0 -0.19648177280E+02  0.38139248765E+02  0.64974824442E+01  0.43392055089E+02  0.00000000000E+00 0. -1.
</event>
<event>
 6    1  0.4988969E-006  0.1710749E+03  0.7561462E-02  0.1176731E+00
          2   -1    0    0  501    0  0.00000000000E+00  0.00000000000E+00  0.44979093509E+03  0.44979093509E+03  0.00000000000E+00 0. -1.
         -2   -1    0    0    0  501 -0.00000000000E+00 -0.00000000000E+00 -0.10346806930E+03  0.10346806930E+03  0.00000000000E+00 0.  1.
          5    1    1    2  502    0 -0.52903100421E+02 -0.22920613026E+01 -0.30585761797E+02  0.61293986686E+02  0.41800000000E+01 0. -1.
         -5    1    1    2    0  502 -0.87530584839E+02  0.83503338848E+02  0.93648856256E+02  0.15304245019E+03  0.41800000000E+01 0. -1.
        -11    1    1    2    0    0  0.78296689344E+02 -0.69632200262E+02  0.99113651635E+02  0.14423082478E+03  0.00000000000E+00 0.  1.
         11    1    1    2    0    0  0.62136995916E+02 -0.11579077284E+02  0.18414611970E+03  0.19469174274E+03  0.00000000000E+00 0. -1.
</event>
<event>
 6    1  0.4988969E-006  0.1027697E+03  0.7561462E-02  0.1274577E+00
          1   -1    0    0  501    0  0.00000000000E+00  0.00000000000E+00  0.12240225914E+03  0.12240225914E+03  0.00000000000E+00 0. -1.
         -1   -1    0    0    0  501 -0.00000000000E+00 -0.00000000000E+00 -0.10409957946E+03  0.10409957946E+03  0.00000000000E+00 0.  1.
          5    1    1    2  502    0 -0.83476985320E+01  0.34292704198E+02  0.26645375971E+02  0.44419838953E+02  0.41800000000E+01 0. -1.
         -5    1    1    2    0  502 -0.28397024784E+02 -0.62259713135E+02 -0.34306548715E+02  0.76662080463E+02  0.41800000000E+01 0.  1.
        -11    1    1    2    0    0  0.66196846130E+02  0.10018084961E+02  0.23046706755E+02  0.70806321441E+02  0.00000000000E+00 0.  1.
         11    1    1    2    0    0 -0.29452122814E+02  0.17948923975E+02  0.29171456649E+01  0.34613597746E+02  0.00000000000E+00 0. -1.
</event>
<event>
 6    1  0.4988969E-006  0.9935116E+02  0.7561462E-02  0.1281666E+00
         -1   -1    0    0    0  501 -0.00000000000E+00  0.00000000000E+00  0.20531253412E+03  0.20531253412E+03  0.00000000000E+00 0.  1.
          1   -1    0    0  501    0  0.00000000000E+00 -0.00000000000E+00 -0.80721455874E+02  0.80721455874E+02  0.00000000000E+00 0. -1.
          5    1    1    2  502    0  0.69702877173E+02  0.11362240621E+02  0.97206356460E+02  0.12022537059E+03  0.41800000000E+01 0. -1.
         -5    1    1    2    0  502 -0.60176484484E+01  0.13406929808E+02 -0.32804279510E+02  0.36187719103E+02  0.41800000000E+01 0. -1.
        -11    1    1    2    0    0 -0.28571571497E+02 -0.57795777683E+02  0.22002258280E+02  0.68123314550E+02  0.00000000000E+00 0. -1.
         11    1    1    2    0    0 -0.35113657227E+02  0.33026607254E+02  0.38186743011E+02  0.61497585744E+02  0.00000000000E+00 0.  1.
</event>
<event>
 6    1  0.4988969E-006  0.2312817E+03  0.7561462E-02  0.1125741E+00
         -2   -1    0    0    0  501 -0.00000000000E+00  0.00000000000E+00  0.68246257139E+02  0.68246257139E+02  0.00000000000E+00 0.  1.
          2   -1    0    0  501    0  0.00000000000E+00 -0.00000000000E+00 -0.10870713020E+04  0.10870713020E+04  0.00000000000E+00 0. -1.
          5    1    1    2  502    0 -0.17911298043E+02 -0.10564571754E+02 -0.17856609809E+02  0.27726443836E+02  0.41800000000E+01 0. -1.
         -5    1    1    2    0  502  0.49094833194E+02  0.21392693436E+03 -0.20487142834E+03  0.30027455843E+03  0.41800000000E+01 0. -1.
        -11    1    1    2    0    0  0.89348789178E+01 -0.16831966333E+03 -0.53826576150E+03  0.56404022120E+03  0.00000000000E+00 0.  1.
         11    1    1    2    0    0 -0.40118414069E+02 -0.35042699269E+02 -0.25783124523E+03  0.26327633569E+03  0.00000000000E+00 0. -1.
</event>
<event>
 6    1  0.4988969E-006  0.1653733E+03  0.7561462E-02  0.1182761E+00
          4   -1    0    0  501    0  0.00000000000E+00  0.00000000000E+00  0.59144647150E+03  0.59144647150E+03  0.00000000000E+00 0.  1.
         -4   -1    0    0    0  501 -0.00000000000E+00 -0.00000000000E+00 -0.53113272177E+02  0.53113272177E+02  0.00000000000E+00 0. -1.
          5    1    1    2  502    0 -0.84643266886E+01 -0.51983672704E+02  0.41062269201E+02  0.66914343799E+02  0.41800000000E+01 0. -1.
         -5    1    1    2    0  502  0.12125418168E+03 -0.27056222095E+02  0.23759704911E+03  0.26815004358E+03  0.41800000000E+01 0. -1.
        -11    1    1    2    0    0 -0.42148444758E+02  0.70920459408E+02  0.20111920422E+03  0.21738246770E+03  0.00000000000E+00 0.  1.
         11    1    1    2    0    0 -0.70641410229E+02  0.81194353913E+01  0.58554676788E+02  0.92112888588E+02  0.00000000000E+00 0. -1.
</event>
<event>
 6    1  0.4988969E-006  0.8989579E+02  0.7561462E-02  0.1303104E+00
         -2   -1    0    0    0  501 -0.00000000000E+00  0.00000000000E+00  0.74390123873E+02  0.74390123873E+02  0.00000000000E+00 0.  1.
          2   -1    0    0  501    0  0.00000000000E+00 -0.00000000000E+00 -0.24004925945E+03  0.24004925945E+03  0.00000000000E+00 0. -1.
          5    1    1    2  502    0  0.26420667947E+02 -0.18337276503E+02 -0.75296694003E+02  0.81983973629E+02  0.41800000000E+01 0. -1.
         -5    1    1    2    0  502 -0.55322813063E+02 -0.48690537809E+02  0.14261304948E+02  0.75181376258E+02  0.41800000000E+01 0. -1.
        -11    1    1    2    0    0  0.11763347521E+02  0.17090755710E+02 -0.10234684533E+03  0.10442866956E+03  0.00000000000E+00 0. -1.
         11    1    1    2    0    0  0.17138797595E+02  0.49937058602E+02 -0.22769011915E+01  0.52845363882E+02  0.00000000000E+00 0.  1.
</event>
<event>
 6    1  0.4988969E-006  0.1024358E+03  0.7561462E-02  0.1275256E+00
          1   -1    0    0  501    0  0.00000000000E+00  0.00000000000E+00  0.27278128649E+03  0.27278128649E+03  0.00000000000E+00 0. -1.
         -1   -1    0    0    0  501 -0.00000000000E+00 -0.00000000000E+00 -0.61128512402E+02  0.61128512402E+02  0.00000000000E+00 0.  1.
          5    1    1    2  502    0 -0.69997440538E+02 -0.27136643359E+02  0.62851244468E+02  0.97998930739E+02  0.41800000000E+01 0.  1.
         -5    1    1    2    0  502  0.31537324412E+02  0.10957160315E+02 -0.21814662711E+02  0.40100051153E+02  0.41800000000E+01 0.  1.
        -11    1    1    2    0    0  0.52374342051E+02 -0.20930581163E+02  0.97122464170E+02  0.11231177133E+03  0.00000000000E+00 0.  1.
         11    1    1    2    0    0 -0.13914225925E+02  0.37110064207E+02  0.73493728157E+02  0.83499045665E+02  0.00000000000E+00 0. -1.
</event>
<event>
 6    1  0.4988969E-006  0.1351860E+03  0.7561462E-02  0.1219957E+00
          2   -1    0    0  501    0  0.00000000000E+00  0.00000000000E+00  0.90933472814E+02  0.90933472814E+02  0.00000000000E+00 0. -1.
         -2   -1    0    0    0  501 -0.00000000000E+00 -0.00000000000E+00 -0.37266773282E+03  0.37266773282E+03  0.00000000000E+00 0.  1.
          5    1    1    2  502    0  0.12120448947E+02  0.36248310367E+02 -0.21364851749E+03  0.21708064564E+03  0.41800000000E+01 0. -1.
         -5    1    1    2    0  502  0.55111212853E+01  0.82276939382E+02 -0.44467540338E+02  0.93780071207E+02  0.41800000000E+01 0. -1.
        -11    1    1    2    0    0 -0.50078570812E+02 -0.10038337705E+03 -0.81525426489E+01  0.11247732924E+03  0.00000000000E+00 0. -1.
         11    1    1    2    0    0  0.32447000580E+02 -0.18141872704E+02 -0.15465659533E+02  0.40263159546E+02  0.00000000000E+00 0.  1.
</event>
<event>
 6    1  0.4988969E-006  0.2069131E+03  0.7561462E-02  0.1144034E+00
          1   -1    0    0  501    0  0.00000000000E+00  0.00000000000E+00  0.11984228290E+04  0.11984228290E+04  0.00000000000E+00 0. -1.
         -1   -1    0    0    0  501 -0.00000000000E+00 -0.00000000000E+00 -0.39118271167E+02  0.39118271167E+02  0.00000000000E+00 0.  1.
          5    1    1    2  502    0 -0.15367086641E+03  0.41477550278E+02  0.34903119197E+03  0.38363441938E+03  0.41800000000E+01 0. -1.
         -5    1    1    2    0  502  0.42382616323E+01  0.59317354268E+02  0.10924727407E+03  0.12445461290E+03  0.41800000000E+01 0. -1.
        -11    1    1    2    0    0  0.25570904052E+02 -0.58932882848E+02  0.32652270038E+03  0.33278225565E+03  0.00000000000E+00 0. -1.
         11    1    1    2    0    0  0.12386170072E+03 -0.41862021699E+02  0.37450339141E+03  0.39666981224E+03  0.00000000000E+00 0.  1.
</event>
<event>
 6    1  0.4988969E-006  0.1862394E+03  0.7561462E-02  0.1161898E+00
         -2   -1    0    0    0  501 -0.00000000000E+00  0.00000000000E+00  0.43093723967E+03  0.43093723967E+03  0.00000000000E+00 0. -1.
          2   -1    0    0  501    0  0.00000000000E+00 -0.00000000000E+00 -0.96681906596E+02  0.96681906596E+02  0.00000000000E+00 0.  1.
          5    1    1    2  502    0 -0.22175015867E+02 -0.71940081306E+02  0.42785780743E+02  0.86690265087E+02  0.41800000000E+01 0. -1.
         -5    1    1    2    0  502 -0.12229768269E+03 -0.12366980085E+02  0.18713039424E+03  0.22393061925E+03  0.41800000000E+01 0. -1.
        -11    1    1    2    0    0  0.15219811465E+02  0.30496804424E+02 -0.10772495301E+02  0.35745550718E+02  0.00000000000E+00 0. -1.
         11    1    1    2    0    0  0.12925288709E+03  0.53810256967E+02  0.11511165339E+03  0.18125271121E+03  0.00000000000E+00 0.  1.
</event>
<event>
 6    1  0.4988969E-006  0.1714304E+03  0.7561462E-02  0.1176364E+00
         -2   -1    0    0    0  501 -0.00000000000E+00  0.00000000000E+00  0.18992106258E+03  0.18992106258E+03  0.00000000000E+00 0.  1.
          2   -1    0    0  501    0  0.00000000000E+00 -0.00000000000E+00 -0.20257142588E+03  0.20257142588E+03  0.00000000000E+00 0. -1.
          5    1    1    2  502    0 -0.16751312313E+02  0.21171729937E+02  0.34381320773E+02  0.43913508523E+02  0.41800000000E+01 0.  1.
         -5    1    1    2    0  502  0.14883414206E+03  0.51355301593E+02  0.16047469126E+02  0.15831602102E+03  0.41800000000E+01 0.  1.
        -11    1    1    2    0    0 -0.39479910331E+02  0.14664203336E+01  0.21186066758E+02  0.44829266479E+02  0.00000000000E+00 0.  1.
         11    1    1    2    0    0 -0.92602919417E+02 -0.73993451863E+02 -0.84265219961E+02  0.14543369245E+03  0.00000000000E+00 0. -1.
</event>
<event>
 6    1  0.4988969E-006  0.2300610E+03  0.7561462E-02  0.1126597E+00
         -2   -1    0    0    0  501 -0.00000000000E+00  0.00000000000E+00  0.36825640021E+03  0.36825640021E+03  0.00000000000E+00 0.  1.
          2   -1    0    0  501    0  0.00000000000E+00 -0.00000000000E+00 -0.17802118686E+03  0.17802118686E+03  0.00000000000E+00 0. -1.
          5    1    1    2  502    0  0.50934542013E+02 -0.77985710597E+02  0.47425362785E+02  0.10460753349E+03  0.41800000000E+01 0. -1.
         -5    1    1    2    0  502 -0.60914371684E+02 -0.13033762815E+03  0.15809436505E+03  0.21379840656E+03  0.41800000000E+01 0. -1.
        -11    1    1    2    0    0 -0.33334697855E+02  0.62526499390E+02  0.15884068169E+02  0.72615899283E+02  0.00000000000E+00 0.  1.
         11    1    1    2    0    0  0.43314527526E+02  0.14579683936E+03 -0.31168582647E+02  0.15525574774E+03  0.00000000000E+00 0. -1.
</event>
<event>
 6    1  0.4988969E-006  0.6970019E+02  0.7561462E-02  0.1361116E+00
          1   -1    0    0  501    0  0.00000000000E+00  0.00000000000E+00  0.73066625322E+03  0.73066625322E+03  0.00000000000E+00 0. -1.
         -1   -1    0    0    0  501 -0.00000000000E+00 -0.00000000000E+00 -0.18930076850E+02  0.18930076850E+02  0.00000000000E+00 0.  1.
          5    1    1    2  502    0  0.53373462894E+01 -0.14772587140E+02 -0.74624665909E+01  0.17885116825E+02  0.41800000000E+01 0.  1.
         -5    1    1    2    0  502  0.24276916975E+02  0.87396094260E+01  0.30720601512E+03  0.30831600282E+03  0.41800000000E+01 0.  1.
        -11    1    1    2    0    0 -0.29777577686E+02 -0.40614003913E+02  0.23703332925E+03  0.24232416434E+03  0.00000000000E+00 0.  1.
         11    1    1    2    0    0  0.16331442233E+00  0.46646981627E+02  0.17495929858E+03  0.18107104608E+03  0.00000000000E+00 0. -1.
</event>
<event>
 6    1  0.4988969E-006  0.2706051E+03  0.7561462E-02  0.1100934E+00
          2   -1    0    0  501    0  0.00000000000E+00  0.00000000000E+00  0.24318137125E+03  0.24318137125E+03  0.00000000000E+00 0. -1.
         -2   -1    0    0    0  501 -0.00000000000E+00 -0.00000000000E+00 -0.31482440594E+03  0.31482440594E+03  0.00000000000E+00 0.  1.
          5    1    1    2  502    0  0.33802224011E+02  0.15054439997E+02  0.15304967051E+02  0.40260910672E+02  0.41800000000E+01 0. -1.
         -5    1    1    2    0  502  0.13920433971E+03 -0.19303506226E+03 -0.14472964730E+01  0.23803350714E+03  0.41800000000E+01 0. -1.
        -11    1    1    2    0    0 -0.23315972166E+02 -0.10231268544E+02 -0.38750140447E+01  0.25755177109E+02  0.00000000000E+00 0.  1.
         11    1    1    2    0    0 -0.14969059156E+03  0.18821189081E+03 -0.81625691232E+02  0.25395618227E+03  0.00000000000E+00 0. -1.
</event>
<event>
 6    1  0.4988969E-006  0.2826805E+03  0.7561462E-02  0.1094234E+00
         -2   -1    0    0    0  501 -0.00000000000E+00  0.00000000000E+00  0.56780233132E+02  0.56780233132E+02  0.00000000000E+00 0.  1.
          2   -1    0    0  501    0  0.00000000000E+00 -0.00000000000E+00 -0.14916719460E+04  0.14916719460E+04  0.00000000000E+00 0. -1.
          5    1    1    2  502    0 -0.14342524159E+02 -0.53576745085E+01 -0.32346718777E+02  0.36030477252E+02  0.41800000000E+01 0. -1.
         -5    1    1    2    0  502  0.15794845630E+03  0.22299488348E+03 -0.51803593529E+03  0.58570738049E+03  0.41800000000E+01 0. -1.
        -11    1    1    2    0    0 -0.52774562963E+02 -0.16170873936E+02 -0.16030308994E+03  0.16953976614E+03  0.00000000000E+00 0. -1.
         11    1    1    2    0    0 -0.90831369180E+02 -0.20146633503E+03 -0.72420596882E+03  0.75717455521E+03  0.00000000000E+00 0.  1.
</event>
<event>
 6    1  0.4988969E-006  0.9392177E+02  0.7561462E-02  0.1293623E+00
          2   -1    0    0  501    0  0.00000000000E+00  0.00000000000E+00  0.44797404811E+02  0.44797404811E+02  0.00000000000E+00 0. -1.
         -2   -1    0    0    0  501 -0.00000000000E+00 -0.00000000000E+00 -0.37701749116E+03  0.37701749116E+03  0.00000000000E+00 0.  1.
          5    1    1    2  502    0 -0.11608349179E+02  0.86115856952E+02 -0.19037492721E+03  0.20931024796E+03  0.41800000000E+01 0.  1.
         -5    1    1    2    0  502 -0.17031341777E+02 -0.40887261083E+02 -0.50213640922E+02  0.67087382244E+02  0.41800000000E+01 0.  1.
        -11    1    1    2    0    0  0.51790008613E+01 -0.24535716497E+02 -0.10746779111E+03  0.11035465355E+03  0.00000000000E+00 0.  1.
         11    1    1    2    0    0  0.23460690094E+02 -0.20692879371E+02  0.15836272897E+02  0.35062612219E+02  0.00000000000E+00 0. -1.
</event>
<event>
 6    1  0.4988969E-006  0.1234741E+03  0.7561462E-02  0.1237473E+00
          1   -1    0    0  501    0  0.00000000000E+00  0.00000000000E+00  0.14257160357E+03  0.14257160357E+03  0.00000000000E+00 0. -1.
         -1   -1    0    0    0  501 -0.00000000000E+00 -0.00000000000E+00 -0.14753507321E+03  0.14753507321E+03  0.00000000000E+00 0.  1.
          5    1    1    2  502    0 -0.17604625134E+02  0.14366036370E+02  0.22957240876E+02  0.32570126432E+02  0.41800000000E+01 0.  1.
         -5    1    1    2    0  502  0.36207743614E+02 -0.96976431641E+02 -0.72326798952E+02  0.12634898986E+03  0.41800000000E+01 0.  1.
        -11    1    1    2    0    0  0.10166793604E+02  0.89974782422E+02  0.19956746917E+02  0.92720531230E+02  0.00000000000E+00 0.  1.
         11    1    1    2    0    0 -0.28769912083E+02 -0.73643871511E+01  0.24449341516E+02  0.38467029259E+02  0.00000000000E+00 0. -1.
</event>
<event>
 6    1  0.4988969E-006  0.8779943E+02  0.7561462E-02  0.1308270E+00
          2   -1    0    0  501    0  0.00000000000E+00  0.00000000000E+00  0.36835212128E+03  0.36835212128E+03  0.00000000000E+00 0. -1.
         -2   -1    0    0    0  501 -0.00000000000E+00 -0.00000000000E+00 -0.47329090227E+02  0.47329090227E+02  0.00000000000E+00 0.  1.
          5    1    1    2  502    0  0.16366497011E+02 -0.14977134801E+02 -0.26161427557E+02  0.34555310490E+02  0.41800000000E+01 0.  1.
         -5    1    1    2    0  502 -0.26036100885E+02  0.49736942465E+02  0.10094980697E+03  0.11558537072E+03  0.41800000000E+01 0.  1.
        -11    1    1    2    0    0 -0.39755876265E+02 -0.81044074445E+01  0.74142611054E+02  0.84518269572E+02  0.00000000000E+00 0.  1.
         11    1    1    2    0    0  0.49425480139E+02 -0.26655400220E+02  0.17209204058E+03  0.18102226073E+03  0.00000000000E+00 0. -1.
</event>
<event>
 6    1  0.4988969E-006  0.1116277E+03  0.7561462E-02  0.1257585E+00
         -2   -1    0    0    0  501 -0.00000000000E+00  0.00000000000E+00  0.65417502605E+02  0.65417502605E+02  0.00000000000E+00 0.  1.
          2   -1    0    0  501    0  0.00000000000E+00 -0.00000000000E+00 -0.29415962347E+03  0.29415962347E+03  0.00000000000E+00 0. -1.
          5    1    1    2  502    0 -0.17401781871E+02  0.39403710859E+02 -0.17446145947E+02  0.46661706464E+02  0.41800000000E+01 0. -1.
         -5    1    1    2    0  502  0.90441064805E+02 -0.46152278160E+02 -0.50491858412E+02  0.11347475115E+03  0.41800000000E+01 0. -1.
        -11    1    1    2    0    0 -0.66246005958E+02 -0.31834962587E+01 -0.17116287521E+03  0.18356306220E+03  0.00000000000E+00 0. -1.
         11    1    1    2    0    0 -0.67932769756E+01  0.99320635596E+01  0.10358758706E+02  0.15877606260E+02  0.00000000000E+00 0.  1.
</event>
<event>
 6    1  0.4988969E-006  0.1190936E+03  0.7561462E-02  0.1244600E+00
         -1   -1    0    0    0  501 -0.00000000000E+00  0.00000000000E+00  0.17508707981E+03  0.17508707981E+03  0.00000000000E+00 0.  1.
          1   -1    0    0  501    0  0.00000000000E+00 -0.00000000000E+00 -0.12964962263E+03  0.12964962263E+03  0.00000000000E+00 0. -1.
          5    1    1    2  502    0  0.10519004599E+03 -0.54243351991E+01  0.97024116834E+02  0.14326730554E+03  0.41800000000E+01 0.  1.
         -5    1    1    2    0  502 -0.12729472490E+02  0.11008601989E+02 -0.23229459231E+02  0.28988083134E+02  0.41800000000E+01 0.  1.
        -11    1    1    2    0    0 -0.26270697071E+02  0.30332135688E+02 -0.39556727794E+02  0.56346452361E+02  0.00000000000E+00 0. -1.
         11    1    1    2    0    0 -0.66189876432E+02 -0.35916402477E+02  0.11199527368E+02  0.76134861412E+02  0.00000000000E+00 0.  1.
</event>
<event>
 6    1  0.4988969E-006  0.2392336E+03  0.7561462E-02  0.1120304E+00
         -2   -1    0    0    0  501 -0.00000000000E+00  0.00000000000E+00  0.10441495545E+03  0.10441495545E+03  0.00000000000E+00 0.  1.
          2   -1    0    0  501    0  0.00000000000E+00 -0.00000000000E+00 -0.55358380888E+03  0.55358380888E+03  0.00000000000E+00 0. -1.
          5    1    1    2  502    0 -0.62158280561E+02  0.40468242842E+02 -0.48434890070E+02  0.88683377795E+02  0.41800000000E+01 0. -1.
         -5    1    1    2    0  502  0.24766411147E+02  0.17024588640E+03 -0.16541830554E+03  0.23870007366E+03  0.41800000000E+01 0. -1.
        -11    1    1    2    0    0  0.52222260731E+02 -0.55640802308E+02 -0.71932089830E+02  0.10486795957E+03  0.00000000000E+00 0. -1.
         11    1    1    2    0    0 -0.14830391317E+02 -0.15507332694E+03 -0.16338356799E+03  0.22574735330E+03  0.00000000000E+00 0.  1.
</event>
<event>
 6    1  0.4988969E-006  0.1436119E+03  0.7561462E-02  0.1208550E+00
         -2   -1    0    0    0  501 -0.00000000000E+00  0.00000000000E+00  0.42784325852E+03  0.42784325852E+03  0.00000000000E+00 0. -1.
          2   -1    0    0  501    0  0.00000000000E+00 -0.00000000000E+00 -0.60258857778E+02  0.60258857778E+02  0.00000000000E+00 0.  1.
          5    1    1    2  502    0  0.12425833340E+03 -0.31443529635E+02  0.23474305843E+03  0.26748944813E+03  0.41800000000E+01 0.  1.
         -5    1    1    2    0  502 -0.11278158247E+02  0.13805173518E+02 -0.40612846099E+01  0.18754895414E+02  0.41800000000E+01 0.  1.
        -11    1    1    2    0    0 -0.11879000890E+03  0.33792966825E+02  0.92652261996E+02  0.15439388742E+03  0.00000000000E+00 0.  1.
         11    1    1    2    0    0  0.58098337476E+01 -0.16154610709E+02  0.44250364921E+02  0.47463885334E+02  0.00000000000E+00 0. -1.
</event>
<event>
 6    1  0.4988969E-006  0.1282480E+03  0.7561462E-02  0.1230079E+00
          1   -1    0    0  501    0  0.00000000000E+00  0.00000000000E+00  0.43810267427E+02  0.43810267427E+02  0.00000000000E+00 0. -1.
         -1   -1    0    0    0  501 -0.00000000000E+00 -0.00000000000E+00 -0.43386362160E+03  0.43386362160E+03  0.00000000000E+00 0.  1.
          5    1    1    2  502    0 -0.86158111539E+02  0.10123392867E+02 -0.90940142318E+02  0.12575088529E+03  0.41800000000E+01 0. -1.
         -5    1    1    2    0  502  0.18090434412E+02 -0.58127457740E+02 -0.10129178681E+03  0.11825211895E+03  0.41800000000E+01 0. -1.
        -11    1    1    2    0    0  0.28714169096E+02 -0.16459635116E+02 -0.12293305265E+03  0.12731048083E+03  0.00000000000E+00 0.  1.
         11    1    1    2    0    0  0.39353508030E+02  0.64463699989E+02 -0.74888372402E+02  0.10636040396E+03  0.00000000000E+00 0. -1.
</event>
<event>
 6    1  0.4988969E-006  0.2300661E+03  0.7561462E-02  0.1126593E+00
         -2   -1    0    0    0  501 -0.00000000000E+00  0.00000000000E+00  0.52872458758E+02  0.52872458758E+02  0.00000000000E+00 0.  1.
          2   -1    0    0  501    0  0.00000000000E+00 -0.00000000000E+00 -0.11347389439E+04  0.11347389439E+04  0.00000000000E+00 0. -1.
          5    1    1    2  502    0 -0.26106595809E+02  0.11057481006E+03 -0.17464117704E+03  0.20838751422E+03  0.41800000000E+01 0.  1.
         -5    1    1    2    0  502 -0.12540995080E+03  0.34342964180E+02 -0.22698128166E+03  0.26162008633E+03  0.41800000000E+01 0.  1.
        -11    1    1    2    0    0  0.31941034422E+02 -0.50603842442E+01 -0.39973556051E+02  0.51417140644E+02  0.00000000000E+00 0.  1.
         11    1    1    2    0    0  0.11957551219E+03 -0.13985739000E+03 -0.64027047039E+03  0.66618666146E+03  0.00000000000E+00 0. -1.
</event>
<event>
 6    1  0.4988969E-006  0.1963416E+03  0.7561462E-02  0.1152863E+00
         -3   -1    0    0    0  501 -0.00000000000E+00  0.00000000000E+00  0.47125632045E+03  0.47125632045E+03  0.00000000000E+00 0.  1.
          3   -1    0    0  501    0  0.00000000000E+00 -0.00000000000E+00 -0.11887820556E+03  0.11887820556E+03  0.00000000000E+00 0. -1.
          5    1    1    2  502    0  0.15275502089E+03  0.10413068765E+03  0.24312985452E+03  0.30546177352E+03  0.41800000000E+01 0.  1.
         -5    1    1    2    0  502  0.48816502802E+01 -0.23484131462E+02  0.80258115937E+02  0.83869973850E+02  0.41800000000E+01 0.  1.
        -11    1    1    2    0    0 -0.13312116392E+03 -0.45736313000E+02  0.54679628337E+02  0.15100634544E+03  0.00000000000E+00 0.  1.
         11    1    1    2    0    0 -0.24515507258E+02 -0.34910243188E+02 -0.25689483913E+02  0.49796433198E+02  0.00000000000E+00 0. -1.
</event>
<event>
 6    1  0.4988969E-006  0.1532746E+03  0.7561462E-02  0.1196506E+00
          2   -1    0    0  501    0  0.00000000000E+00  0.00000000000E+00  0.19398208987E+03  0.19398208987E+03  0.00000000000E+00 0.  1.
         -2   -1    0    0    0  501 -0.00000000000E+00 -0.00000000000E+00 -0.16938570018E+03  0.16938570018E+03  0.00000000000E+00 0. -1.
          5    1    1    2  502    0 -0.12365049536E+03  0.76369168272E+02 -0.17976832683E+02  0.14650028594E+03  0.41800000000E+01 0.  1.
         -5    1    1    2    0  502  0.15881905806E+02 -0.80237820735E+01 -0.35748808197E+02  0.40150537958E+02  0.41800000000E+01 0.  1.
        -11    1    1    2    0    0  0.33592268792E+02 -0.59297972246E+02 -0.43126409016E+00  0.68153327313E+02  0.00000000000E+00 0. -1.
         11    1    1    2    0    0  0.74176320764E+02 -0.90474139521E+01  0.78753294659E+02  0.10856363885E+03  0.00000000000E+00 0.  1.
</event>
<event>
 6    1  0.4988969E-006  0.8495271E+02  0.7561462E-02  0.1315556E+00
         -2   -1    0    0    0  501 -0.00000000000E+00  0.00000000000E+00  0.83236714987E+02  0.83236714987E+02  0.00000000000E+00 0.  1.
          2   -1    0    0  501    0  0.00000000000E+00 -0.00000000000E+00 -0.16189228163E+03  0.16189228163E+03  0.00000000000E+00 0. -1.
          5    1    1    2  502    0  0.58131817222E+00 -0.57350650476E+02  0.22251083687E+02  0.61660507346E+02  0.41800000000E+01 0.  1.
         -5    1    1    2    0  502  0.24770866703E+02  0.52030373221E+02 -0.32991749559E+02  0.66533326339E+02  0.41800000000E+01 0.  1.
        -11    1    1    2    0    0 -0.14146330905E+02  0.26851273464E+02  0.12584913461E+02  0.32855587219E+02  0.00000000000E+00 0.  1.
         11    1    1    2    0    0 -0.11205853970E+02 -0.21530996209E+02 -0.80499814229E+02  0.84079575712E+02  0.00000000000E+00 0. -1.
</event>
<event>
 6    1  0.4988969E-006  0.9206550E+02  0.7561462E-02  0.1297926E+00
          1   -1    0    0  501    0  0.00000000000E+00  0.00000000000E+00  0.42118351205E+03  0.42118351205E+03  0.00000000000E+00 0. -1.
         -1   -1    0    0    0  501 -0.00000000000E+00 -0.00000000000E+00 -0.48656260832E+02  0.48656260832E+02  0.00000000000E+00 0.  1.
          5    1    1    2  502    0  0.78525000001E+02  0.35561417596E+02  0.10012490097E+03  0.13218645256E+03  0.41800000000E+01 0.  1.
         -5    1    1    2    0  502 -0.20329117574E+02 -0.19320702020E+02 -0.13625717085E+02  0.31459420115E+02  0.41800000000E+01 0.  1.
        -11    1    1    2    0    0 -0.48106783909E+02 -0.26633806013E+02  0.28647278943E+03  0.29170238492E+03  0.00000000000E+00 0. -1.
         11    1    1    2    0    0 -0.10089098518E+02  0.10393090437E+02 -0.44472209511E+00  0.14491515293E+02  0.00000000000E+00 0.  1.
</event>
<event>
 6    1  0.4988969E-006  0.1101724E+03  0.7561462E-02  0.1260251E+00
         -1   -1    0    0    0  501 -0.00000000000E+00  0.00000000000E+00  0.67535577955E+02  0.67535577955E+02  0.00000000000E+00 0.  1.
          1   -1    0    0  501    0  0.00000000000E+00 -0.00000000000E+00 -0.20757244930E+03  0.20757244930E+03  0.00000000000E+00 0. -1.
          5    1    1    2  502    0 -0.94121187345E+02  0.27487035816E+02 -0.53358823729E+02  0.11170931705E+03  0.41800000000E+01 0. -1.
         -5    1    1    2    0  502  0.34362843561E+02 -0.19996064692E+02 -0.11996120227E+02  0.41737596016E+02  0.41800000000E+01 0. -1.
        -11    1    1    2    0    0  0.42039419798E+02  0.22282351891E+02 -0.72792092682E+02  0.86962663137E+02  0.00000000000E+00 0. -1.
         11    1    1    2    0    0  0.17718923986E+02 -0.29773323014E+02 -0.18898347082E+01  0.34698451057E+02  0.00000000000E+00 0.  1.
</event>
<event>
 6    1  0.4988969E-006  0.1060874E+03  0.7561462E-02  0.1267992E+00
         -2   -1    0    0    0  501 -0.00000000000E+00  0.00000000000E+00  0.13218472487E+03  0.13218472487E+03  0.00000000000E+00 0. -1.
          2   -1    0    0  501    0  0.00000000000E+00 -0.00000000000E+00 -0.11603426212E+03  0.11603426212E+03  0.00000000000E+00 0.  1.
          5    1    1    2  502    0  0.48752008697E+01  0.26189924205E+02  0.48723918317E+02  0.55688170463E+02  0.41800000000E+01 0.  1.
         -5    1    1    2    0  502 -0.45830680618E+02 -0.68484772028E+02 -0.21382530168E+02  0.85236730827E+02  0.41800000000E+01 0.  1.
        -11    1    1    2    0    0  0.27057232487E+02 -0.23263135409E+02  0.99137507821E+01  0.37034440099E+02  0.00000000000E+00 0. -1.
         11    1    1    2    0    0  0.13898247261E+02  0.65557983232E+02 -0.21104676183E+02  0.70259645595E+02  0.00000000000E+00 0.  1.
</event>
<event>
 6    1  0.4988969E-006  0.3276626E+03  0.7561462E-02  0.1072176E+00
          2   -1    0    0  501    0  0.00000000000E+00  0.00000000000E+00  0.65463040626E+02  0.65463040626E+02  0.00000000000E+00 0. -1.
         -2   -1    0    0    0  501 -0.00000000000E+00 -0.00000000000E+00 -0.17096623679E+04  0.17096623679E+04  0.00000000000E+00 0.  1.
          5    1    1    2  502    0  0.69769691891E+02 -0.13360137863E+03 -0.37936916064E+03  0.40823470053E+03  0.41800000000E+01 0. -1.
         -5    1    1    2    0  502 -0.47361373016E+02 -0.18073160909E+03 -0.38520639960E+03  0.42814536885E+03  0.41800000000E+01 0. -1.
        -11    1    1    2    0    0  0.82121024696E+01  0.16603412574E+03 -0.57518901571E+03  0.59872963292E+03  0.00000000000E+00 0.  1.
         11    1    1    2    0    0 -0.30620421344E+02  0.14829886197E+03 -0.30443475136E+03  0.34001570626E+03  0.00000000000E+00 0. -1.
</event>
<event>
 6    1  0.4988969E-006  0.1050233E+03  0.7561462E-02  0.1270074E+00
          1   -1    0    0  501    0  0.00000000000E+00  0.00000000000E+00  0.65562813329E+02  0.65562813329E+02  0.00000000000E+00 0. -1.
         -1   -1    0    0    0  501 -0.00000000000E+00 -0.00000000000E+00 -0.26761802921E+03  0.26761802921E+03  0.00000000000E+00 0.  1.
          5    1    1    2  502    0  0.90834733205E+01 -0.51475782320E+02 -0.15652325283E+03  0.16507351917E+03  0.41800000000E+01 0. -1.
         -5    1    1    2    0  502  0.36413532539E+02  0.45858991697E+02 -0.35387691193E+02  0.68547454799E+02  0.41800000000E+01 0. -1.
        -11    1    1    2    0    0 -0.16393732714E+01 -0.37419916383E+02 -0.64085538766E+01  0.38000095389E+02  0.00000000000E+00 0.  1.
         11    1    1    2    0    0 -0.43857632588E+02  0.43036707006E+02 -0.37357179833E+01  0.61559773188E+02  0.00000000000E+00 0. -1.
</event>
<event>
 6    1  0.4988969E-006  0.1306526E+03  0.7561462E-02  0.1226491E+00
          1   -1    0    0  501    0  0.00000000000E+00  0.00000000000E+00  0.43386015451E+03  0.43386015451E+03  0.00000000000E+00 0. -1.
         -1   -1    0    0    0  501 -0.00000000000E+00 -0.00000000000E+00 -0.56629460492E+02  0.56629460492E+02  0.00000000000E+00 0.  1.
          5    1    1    2  502    0 -0.82121705546E+01 -0.71612113145E+02  0.30219111825E+02  0.78271333282E+02  0.41800000000E+01 0.  1.
         -5    1    1    2    0  502 -0.79067783352E+02  0.20943775958E+02  0.95297577806E+02  0.12565610551E+03  0.41800000000E+01 0.  1.
        -11    1    1    2    0    0  0.73208097273E+01  0.20452925097E+02  0.10770495428E+01  0.21750320361E+02  0.00000000000E+00 0.  1.
         11    1    1    2    0    0  0.79959144179E+02  0.30215412090E+02  0.25063695484E+03  0.26481185585E+03  0.00000000000E+00 0. -1.
</event>
<event>
 6    1  0.4988969E-006  0.2081060E+03  0.7561462E-02  0.1143075E+00
          2   -1    0    0  501    0  0.00000000000E+00  0.00000000000E+00  0.41547875270E+03  0.41547875270E+03  0.00000000000E+00 0. -1.
         -2   -1    0    0    0  501 -0.00000000000E+00 -0.00000000000E+00 -0.11935040990E+03  0.11935040990E+03  0.00000000000E+00 0.  1.
          5    1    1    2  502    0  0.27797178054E+02  0.26952915488E+02  0.90907747436E+01  0.39990715754E+02  0.41800000000E+01 0.  1.
         -5    1    1    2    0  502  0.14284496648E+03 -0.10938091599E+03  0.19451327706E+03  0.26499388027E+03  0.41800000000E+01 0.  1.
        -11    1    1    2    0    0 -0.88696704742E+02  0.72895998462E+02  0.92358214713E+02  0.14734643480E+03  0.00000000000E+00 0. -1.
         11    1    1    2    0    0 -0.81945439787E+02  0.95320020422E+01  0.16607629005E+00  0.82498131774E+02  0.00000000000E+00 0.  1.
</event>
<event>
 6    1  0.4988969E-006  0.1220053E+03  0.7561462E-02  0.1239825E+00
         -1   -1    0    0    0  501 -0.00000000000E+00  0.00000000000E+00  0.14994832350E+03  0.14994832350E+03  0.00000000000E+00 0.  1.
          1   -1    0    0  501    0  0.00000000000E+00 -0.00000000000E+00 -0.12751511391E+03  0.12751511391E+03  0.00000000000E+00 0. -1.
          5    1    1    2  502    0 -0.12884792225E+02  0.17320441647E+02 -0.28661823228E+02  0.36124618756E+02  0.41800000000E+01 0.  1.
         -5    1    1    2    0  502  0.74148223403E+02 -0.72160711278E+02  0.50308215541E+02  0.11512391688E+03  0.41800000000E+01 0.  1.
        -11    1    1    2    0    0 -0.26542232630E+02 -0.21791247406E+02  0.20243060879E+02  0.39863894569E+02  0.00000000000E+00 0. -1.
         11    1    1    2    0    0 -0.34721198549E+02  0.76631517036E+02 -0.19456243597E+02  0.86351007214E+02  0.00000000000E+00 0.  1.
</event>
<event>
 6    1  0.4988969E-006  0.1054655E+03  0.7561462E-02  0.1269205E+00
         -1   -1    0    0    0  501 -0.00000000000E+00  0.00000000000E+00  0.67475528112E+02  0.67475528112E+02  0.00000000000E+00 0.  1.
          1   -1    0    0  501    0  0.00000000000E+00 -0.00000000000E+00 -0.22583002100E+03  0.22583002100E+03  0.00000000000E+00 0. -1.
          5    1    1    2  502    0 -0.18803246911E+02  0.54527532325E+02 -0.30119766353E+02  0.65203424764E+02  0.41800000000E+01 0. -1.
         -5    1    1    2    0  502 -0.28096366728E+02 -0.69566835999E+02 -0.15209330290E+02  0.76666463477E+02  0.41800000000E+01 0. -1.
        -11    1    1    2    0    0 -0.13002217907E+02  0.12448721750E+02 -0.81949211297E+02  0.83902929483E+02  0.00000000000E+00 0. -1.
         11    1    1    2    0    0  0.59901831546E+02  0.25905819244E+01 -0.31076184945E+02  0.67532731382E+02  0.00000000000E+00 0.  1.
</event>
<event>
 6    1  0.4988969E-006  0.1182799E+03  0.7561462E-02  0.1245962E+00
         -1   -1    0    0    0  501 -0.00000000000E+00  0.00000000000E+00  0.15818905938E+03  0.15818905938E+03  0.00000000000E+00 0.  1.
          1   -1    0    0  501    0  0.00000000000E+00 -0.00000000000E+00 -0.10126447064E+03  0.10126447064E+03  0.00000000000E+00 0. -1.
          5    1    1    2  502    0  0.24954671064E+02 -0.63097059411E+02  0.24424320121E+02  0.72235685970E+02  0.41800000000E+01 0. -1.
         -5    1    1    2    0  502  0.37984944481E+02  0.58736212688E+02  0.56079794472E+00  0.70075570511E+02  0.41800000000E+01 0. -1.
        -11    1    1    2    0    0 -0.26654751871E+02 -0.35636268760E+02 -0.13565037424E+02  0.46523431610E+02  0.00000000000E+00 0. -1.
         11    1    1    2    0    0 -0.36284863675E+02  0.39997115483E+02  0.45504508092E+02  0.70618841930E+02  0.00000000000E+00 0.  1.
</event>
<event>
 6    1  0.4988969E-006  0.1260148E+03  0.7561462E-02  0.1233492E+00
          2   -1    0    0  501    0  0.00000000000E+00  0.00000000000E+00  0.61638504928E+03  0.61638504928E+03  0.00000000000E+00 0.  1.
         -2   -1    0    0    0  501 -0.00000000000E+00 -0.00000000000E+00 -0.31791613384E+02  0.31791613384E+02  0.00000000000E+00 0. -1.
          5    1    1    2  502    0 -0.23805719074E+02 -0.50691455579E+01  0.12746282411E+03  0.12983317153E+03  0.41800000000E+01 0.  1.
         -5    1    1    2    0  502  0.10376249157E+03 -0.17553315774E+02  0.12026829278E+03  0.15986465588E+03  0.41800000000E+01 0.  1.
        -11    1    1    2    0    0  0.59876415202E+01  0.34711070469E+02  0.82042941468E+02  0.89284682387E+02  0.00000000000E+00 0.  1.
         11    1    1    2    0    0 -0.85944414020E+02 -0.12088609137E+02  0.25481937753E+03  0.26919415287E+03  0.00000000000E+00 0. -1.
</event>
<event>
 6    1  0.4988969E-006  0.1033743E+03  0.7561462E-02  0.1273356E+00
         -2   -1    0    0    0  501 -0.00000000000E+00  0.00000000000E+00  0.22820483509E+02  0.22820483509E+02  0.00000000000E+00 0.  1.
          2   -1    0    0  501    0  0.00000000000E+00 -0.00000000000E+00 -0.80579717180E+03  0.80579717180E+03  0.00000000000E+00 0. -1.
          5    1    1    2  502    0 -0.15094039666E+02 -0.50741266167E+02 -0.25521669270E+03  0.26068283173E+03  0.41800000000E+01 0. -1.
         -5    1    1    2    0  502 -0.42177774656E+02  0.19641553408E+02 -0.24887650887E+02  0.52930358604E+02  0.41800000000E+01 0. -1.
        -11    1    1    2    0    0  0.23009207365E+02 -0.29441833411E+02 -0.11425485506E+03  0.12020988762E+03  0.00000000000E+00 0.  1.
         11    1    1    2    0    0  0.34262606958E+02  0.60541546169E+02 -0.38861748964E+03  0.39479457735E+03  0.00000000000E+00 0. -1.
</event>
<event>
 6    1  0.8814384E-006  0.1487795E+03  0.7561462E-02  0.1201981E+00
         -1   -1    0    0    0  501 -0.00000000000E+00  0.00000000000E+00  0.58014217723E+03  0.58014217723E+03  0.00000000000E+00 0.  1.
          1   -1    0    0  501    0  0.00000000000E+00 -0.00000000000E+00 -0.51144498453E+02  0.51144498453E+02  0.00000000000E+00 0. -1.
          5    1    1    2  502    0 -0.20148841745E+02 -0.20748245950E+02  0.19039216832E+03  0.19262169060E+03  0.41800000000E+01 0.  1.
         -5    1    1    2    0  502  0.86730809003E+02 -0.85358994447E+02  0.17245727330E+03  0.21110986399E+03  0.41800000000E+01 0.  1.
        -11    1    1    2    0    0 -0.80199192883E+02  0.64877919423E+02  0.78109498170E+02  0.12939145517E+03  0.00000000000E+00 0.  1.
         11    1    1    2    0    0  0.13617225624E+02  0.41229320973E+02  0.88038738997E+02  0.98163665915E+02  0.00000000000E+00 0. -1.
</event>
<event>
 6    1  0.4988969E-006  0.1351294E+03  0.7561462E-02  0.1220037E+00
          1   -1    0    0  501    0  0.00000000000E+00  0.00000000000E+00  0.55719270924E+02  0.55719270924E+02  0.00000000000E+00 0. -1.
         -1   -1    0    0    0  501 -0.00000000000E+00 -0.00000000000E+00 -0.38745882222E+03  0.38745882222E+03  0.00000000000E+00 0.  1.
          5    1    1    2  502    0 -0.61284439306E+02  0.38725064085E+02 -0.16560516886E+03  0.18082576543E+03  0.41800000000E+01 0. -1.
         -5    1    1    2    0  502 -0.14166011529E+02 -0.70483572866E+02 -0.89763721088E+02  0.11508087569E+03  0.41800000000E+01 0. -1.
        -11    1    1    2    0    0 -0.19529504945E+02  0.23109883812E+02 -0.22779080360E+02  0.37872876776E+02  0.00000000000E+00 0.  1.
         11    1    1    2    0    0  0.94979955780E+02  0.86486249690E+01 -0.53591580988E+02  0.10939857525E+03  0.00000000000E+00 0. -1.
</event>
<event>
 6    1  0.4988969E-006  0.9588789E+02  0.7561462E-02  0.1289189E+00
          1   -1    0    0  501    0  0.00000000000E+00  0.00000000000E+00  0.10022370393E+03  0.10022370393E+03  0.00000000000E+00 0. -1.
         -1   -1    0    0    0  501 -0.00000000000E+00 -0.00000000000E+00 -0.13510054670E+03  0.13510054670E+03  0.00000000000E+00 0.  1.
          5    1    1    2  502    0 -0.56237252934E+02 -0.19955103915E+02 -0.55017097643E+02  0.81272309078E+02  0.41800000000E+01 0. -1.
         -5    1    1    2    0  502  0.13676698042E+02  0.54414952825E+02  0.19976236856E+02  0.59703949612E+02  0.41800000000E+01 0. -1.
        -11    1    1    2    0    0  0.11571659312E+02 -0.42196078398E+02  0.28028647197E+02  0.51961691611E+02  0.00000000000E+00 0. -1.
         11    1    1    2    0    0  0.30988895581E+02  0.77362294877E+01 -0.27864629187E+02  0.42386300331E+02  0.00000000000E+00 0.  1.
</event>
<event>
 6    1  0.4988969E-006  0.1003201E+03  0.7561462E-02  0.1279624E+00
         -1   -1    0    0    0  501 -0.00000000000E+00  0.00000000000E+00  0.91750990551E+02  0.91750990551E+02  0.00000000000E+00 0.  1.
          1   -1    0    0  501    0  0.00000000000E+00 -0.00000000000E+00 -0.15326779396E+03  0.15326779396E+03  0.00000000000E+00 0. -1.
          5    1    1    2  502    0 -0.37197321468E+02  0.75395518007E+02  0.11647498171E+02  0.84978005822E+02  0.41800000000E+01 0. -1.
         -5    1    1    2    0  502  0.14370345151E+02 -0.31092451590E+02 -0.39617444753E+02  0.52538192721E+02  0.41800000000E+01 0. -1.
        -11    1    1    2    0    0  0.42486199699E+02 -0.45512185512E+02  0.67736588409E+01  0.62628417265E+02  0.00000000000E+00 0.  1.
         11    1    1    2    0    0 -0.19659223382E+02  0.12091190953E+01 -0.40320515664E+02  0.44874168698E+02  0.00000000000E+00 0. -1.
</event>
<event>
 6    1  0.4988969E-006  0.1110584E+03  0.7561462E-02  0.1258622E+00
          1   -1    0    0  501    0  0.00000000000E+00  0.00000000000E+00  0.26349526999E+03  0.26349526999E+03  0.00000000000E+00 0. -1.
         -1   -1    0    0    0  501 -0.00000000000E+00 -0.00000000000E+00 -0.51220856155E+02  0.51220856155E+02  0.00000000000E+00 0.  1.
          5    1    1    2  502    0 -0.24150207462E+02 -0.52112475935E+02  0.28076392171E+02  0.64067923846E+02  0.41800000000E+01 0. -1.
         -5    1    1    2    0  502 -0.28641396380E+02  0.71381620356E+02  0.74740124752E+02  0.10732764769E+03  0.41800000000E+01 0. -1.
        -11    1    1    2    0    0  0.17660155075E+02  0.25235813010E+02  0.17892204298E+02  0.35621037467E+02  0.00000000000E+00 0.  1.
         11    1    1    2    0    0  0.35131448766E+02 -0.44504957430E+02  0.91565692614E+02  0.10769951714E+03  0.00000000000E+00 0. -1.
</event>
<event>
 6    1  0.4988969E-006  0.1022219E+03  0.7561462E-02  0.1275692E+00
         -1   -1    0    0    0  501 -0.00000000000E+00  0.00000000000E+00  0.51457206134E+03  0.51457206134E+03  0.00000000000E+00 0.  1.
          1   -1    0    0  501    0  0.00000000000E+00 -0.00000000000E+00 -0.51962565377E+02  0.51962565377E+02  0.00000000000E+00 0. -1.
          5    1    1    2  502    0  0.17264813931E+02  0.11886504015E+02 -0.51368602545E+01  0.21982322694E+02  0.41800000000E+01 0. -1.
         -5    1    1    2    0  502  0.66864462190E+02 -0.57049684324E+00  0.39211016307E+03  0.39779270249E+03  0.41800000000E+01 0.  1.
        -11    1    1    2    0    0 -0.20013729723E+02  0.32674565737E+02  0.46095111668E-01  0.38316820697E+02  0.00000000000E+00 0.  1.
         11    1    1    2    0    0 -0.64115546397E+02 -0.43990572909E+02  0.75590098039E+02  0.10844278084E+03  0.00000000000E+00 0. -1.
</event>
<event>
 6    1  0.4988969E-006  0.9556927E+02  0.7561462E-02  0.1289899E+00
         -1   -1    0    0    0  501 -0.00000000000E+00  0.00000000000E+00  0.93422414634E+02  0.93422414634E+02  0.00000000000E+00 0.  1.
          1   -1    0    0  501    0  0.00000000000E+00 -0.00000000000E+00 -0.21929372337E+03  0.21929372337E+03  0.00000000000E+00 0. -1.
          5    1    1    2  502    0 -0.32718658613E+01  0.73330265296E+02  0.40768338780E+02  0.84068797788E+02  0.41800000000E+01 0. -1.
         -5    1    1    2    0  502  0.38628239649E+02 -0.92689927289E+01 -0.46028860439E+02  0.60944101584E+02  0.41800000000E+01 0. -1.
        -11    1    1    2    0    0 -0.29867595208E+02 -0.27175603968E+02 -0.12385416946E+03  0.13027064899E+03  0.00000000000E+00 0. -1.
         11    1    1    2    0    0 -0.54887785791E+01 -0.36885668599E+02  0.32433823848E+01  0.37432589645E+02  0.00000000000E+00 0.  1.
</event>
<event>
 6    1  0.4988969E-006  0.1025148E+03  0.7561462E-02  0.1275095E+00
          4   -1    0    0  501    0  0.00000000000E+00  0.00000000000E+00  0.24771738389E+02  0.24771738389E+02  0.00000000000E+00 0.  1.
         -4   -1    0    0    0  501 -0.00000000000E+00 -0.00000000000E+00 -0.74658582423E+03  0.74658582423E+03  0.00000000000E+00 0. -1.
          5    1    1    2  502    0 -0.55236638328E+02  0.80471908710E+02 -0.21451209398E+03  0.23571110531E+03  0.41800000000E+01 0. -1.
         -5    1    1    2    0  502  0.91624043120E+01 -0.19868227495E+02 -0.25828718273E+03  0.25924590119E+03  0.41800000000E+01 0. -1.
        -11    1    1    2    0    0  0.13314380786E+02 -0.48241478544E+02 -0.38892792789E+02  0.63381088021E+02  0.00000000000E+00 0.  1.
         11    1    1    2    0    0  0.32759853231E+02 -0.12362202670E+02 -0.21012201634E+03  0.21301946810E+03  0.00000000000E+00 0. -1.
</event>
<event>
 6    1  0.4988969E-006  0.7778350E+02  0.7561462E-02  0.1335462E+00
          2   -1    0    0  501    0  0.00000000000E+00  0.00000000000E+00  0.23281649134E+03  0.23281649134E+03  0.00000000000E+00 0. -1.
         -2   -1    0    0    0  501 -0.00000000000E+00 -0.00000000000E+00 -0.91876154501E+02  0.91876154501E+02  0.00000000000E+00 0.  1.
          5    1    1    2  502    0  0.27822845756E+02  0.21450826316E+02 -0.70417552814E+02  0.78805791918E+02  0.41800000000E+01 0.  1.
         -5    1    1    2    0  502  0.19266674491E+02 -0.40147582534E+01  0.53391036851E+02  0.57056097359E+02  0.41800000000E+01 0.  1.
        -11    1    1    2    0    0 -0.14963438245E+00 -0.45419407691E+02  0.48293150866E+02  0.66296104004E+02  0.00000000000E+00 0.  1.
         11    1    1    2    0    0 -0.46939885864E+02  0.27983339629E+02  0.10967370193E+03  0.12253465256E+03  0.00000000000E+00 0. -1.
</event>
<event>
 6    1  0.4988969E-006  0.1924748E+03  0.7561462E-02  0.1156248E+00
         -2   -1    0    0    0  501 -0.00000000000E+00  0.00000000000E+00  0.16174228198E+03  0.16174228198E+03  0.00000000000E+00 0.  1.
          2   -1    0    0  501    0  0.00000000000E+00 -0.00000000000E+00 -0.53002100698E+03  0.53002100698E+03  0.00000000000E+00 0. -1.
          5    1    1    2  502    0 -0.11438703924E+03  0.37131162059E+02  0.81327936729E+02  0.14524057159E+03  0.41800000000E+01 0.  1.
         -5    1    1    2    0  502 -0.66561806591E+02 -0.33963214162E+02 -0.30081468296E+02  0.80661894025E+02  0.41800000000E+01 0.  1.
        -11    1    1    2    0    0  0.24760887588E+02 -0.21133710152E+02 -0.15296530734E+03  0.15639092208E+03  0.00000000000E+00 0. -1.
         11    1    1    2    0    0  0.15618795825E+03  0.17965762255E+02 -0.26655988610E+03  0.30946990127E+03  0.00000000000E+00 0.  1.
</event>
<event>
 6    1  0.4988969E-006  0.1256369E+03  0.7561462E-02  0.1234077E+00
          1   -1    0    0  501    0  0.00000000000E+00  0.00000000000E+00  0.61153620269E+02  0.61153620269E+02  0.00000000000E+00 0. -1.
         -1   -1    0    0    0  501 -0.00000000000E+00 -0.00000000000E+00 -0.30865418323E+03  0.30865418323E+03  0.00000000000E+00 0.  1.
          5    1    1    2  502    0  0.30247587010E+02 -0.19510071645E+02 -0.48323484338E+02  0.60400256242E+02  0.41800000000E+01 0.  1.
         -5    1    1    2    0  502 -0.11137062426E+03  0.14701860144E+02 -0.11595139359E+03  0.16149847899E+03  0.41800000000E+01 0.  1.
        -11    1    1    2    0    0  0.58065322559E+02  0.32537240113E+02 -0.89259947370E+02  0.11134447396E+03  0.00000000000E+00 0.  1.
         11    1    1    2    0    0  0.23057714690E+02 -0.27729028611E+02  0.60342623412E+01  0.36564594302E+02  0.00000000000E+00 0. -1.
</event>
<event>
 6    1  0.4988969E-006  0.1103682E+03  0.7561462E-02  0.1259890E+00
         -2   -1    0    0    0  501 -0.00000000000E+00  0.00000000000E+00  0.80123008788E+02  0.80123008788E+02  0.00000000000E+00 0.  1.
          2   -1    0    0  501    0  0.00000000000E+00 -0.00000000000E+00 -0.38586035474E+03  0.38586035474E+03  0.00000000000E+00 0. -1.
          5    1    1    2  502    0 -0.60056152708E+02  0.21945276374E+02 -0.20465121681E+03  0.21444796473E+03  0.41800000000E+01 0. -1.
         -5    1    1    2    0  502  0.32749513894E+00 -0.48718707025E+02  0.45396025210E+02  0.66722493749E+02  0.41800000000E+01 0.  1.
        -11    1    1    2    0    0 -0.22322852371E+02  0.62613750207E+01 -0.12420023469E+02  0.26301550109E+02  0.00000000000E+00 0. -1.
         11    1    1    2    0    0  0.82051509941E+02  0.20512055630E+02 -0.13406213088E+03  0.15851135494E+03  0.00000000000E+00 0.  1.
</event>
<event>
 6    1  0.4988969E-006  0.1637448E+03  0.7561462E-02  0.1184533E+00
          2   -1    0    0  501    0  0.00000000000E+00  0.00000000000E+00  0.15772882831E+03  0.15772882831E+03  0.00000000000E+00 0. -1.
         -2   -1    0    0    0  501 -0.00000000000E+00 -0.00000000000E+00 -0.23436201782E+03  0.23436201782E+03  0.00000000000E+00 0.  1.
          5    1    1    2  502    0  0.10077569589E+03 -0.10832984520E+03 -0.12558262076E+03  0.19411224403E+03  0.41800000000E+01 0. -1.
         -5    1    1    2    0  502  0.32266451391E+01  0.59879055679E+01  0.22576193350E+02  0.23946255618E+02  0.41800000000E+01 0. -1.
        -11    1    1    2    0    0 -0.45021056464E+02 -0.86088078541E+01  0.10298687306E+01  0.45848312154E+02  0.00000000000E+00 0.  1.
         11    1    1    2    0    0 -0.58981284570E+02  0.11095074749E+03  0.25343369170E+02  0.12818403434E+03  0.00000000000E+00 0. -1.
</event>
<event>
 6    1  0.4988969E-006  0.1153220E+03  0.7561462E-02  0.1251020E+00
         -1   -1    0    0    0  501 -0.00000000000E+00  0.00000000000E+00  0.16059318068E+02  0.16059318068E+02  0.00000000000E+00 0.  1.
          1   -1    0    0  501    0  0.00000000000E+00 -0.00000000000E+00 -0.94874768628E+03  0.94874768628E+03  0.00000000000E+00 0. -1.
          5    1    1    2  502    0 -0.64534272750E+02 -0.18732412354E+01 -0.14918065965E+03  0.16260542120E+03  0.41800000000E+01 0. -1.
         -5    1    1    2    0  502  0.42456899560E+02 -0.43113150302E+02 -0.31282652410E+03  0.31865222207E+03  0.41800000000E+01 0. -1.
        -11    1    1    2    0    0  0.52600185104E+02  0.20834127382E+01 -0.31065822318E+03  0.31508673681E+03  0.00000000000E+00 0. -1.
         11    1    1    2    0    0 -0.30522811914E+02  0.42902978799E+02 -0.16002296128E+03  0.16846262426E+03  0.00000000000E+00 0.  1.
</event>
<event>
 6    1  0.4988969E-006  0.1402088E+03  0.7561462E-02  0.1213048E+00
         -1   -1    0    0    0  501 -0.00000000000E+00  0.00000000000E+00  0.80058313566E+02  0.80058313566E+02  0.00000000000E+00 0.  1.
          1   -1    0    0  501    0  0.00000000000E+00 -0.00000000000E+00 -0.25608285313E+03  0.25608285313E+03  0.00000000000E+00 0. -1.
          5    1    1    2  502    0 -0.50148831158E+02  0.50480518470E+02 -0.18712828308E+02  0.73694167712E+02  0.41800000000E+01 0. -1.
         -5    1    1    2    0  502 -0.38308801488E+02 -0.70569197433E+02 -0.55695795365E+02  0.97811399740E+02  0.41800000000E+01 0. -1.
        -11    1    1    2    0    0  0.16620227262E+02 -0.34641840847E+02 -0.38955157620E+02  0.54715568138E+02  0.00000000000E+00 0.  1.
         11    1    1    2    0    0  0.71837405384E+02  0.54730519810E+02 -0.62660758270E+02  0.10992003110E+03  0.00000000000E+00 0. -1.
</event>
<event>
 6    1  0.4988969E-006  0.1044217E+03  0.7561462E-02  0.1271263E+00
          2   -1    0    0  501    0  0.00000000000E+00  0.00000000000E+00  0.93861156376E+02  0.93861156376E+02  0.00000000000E+00 0. -1.
         -2   -1    0    0    0  501 -0.00000000000E+00 -0.00000000000E+00 -0.19123957591E+03  0.19123957591E+03  0.00000000000E+00 0.  1.
          5    1    1    2  502    0 -0.71230757548E+02  0.44149718266E+02 -0.67023810296E+02  0.10739032540E+03  0.41800000000E+01 0.  1.
         -5    1    1    2    0  502 -0.12341173285E+01 -0.21880982892E+02  0.35793616141E+02  0.42177669618E+02  0.41800000000E+01 0.  1.
        -11    1    1    2    0    0  0.22923094436E+02 -0.43151110548E+02 -0.65561247341E+02  0.81766519756E+02  0.00000000000E+00 0.  1.
         11    1    1    2    0    0  0.49541780441E+02  0.20882375175E+02 -0.58697804085E+00  0.53766217511E+02  0.00000000000E+00 0. -1.
</event>
<event>
 6    1  0.4988969E-006  0.7158740E+02  0.7561462E-02  0.1354777E+00
          1   -1    0    0  501    0  0.00000000000E+00  0.00000000000E+00  0.50597674226E+03  0.50597674226E+03  0.00000000000E+00 0. -1.
         -1   -1    0    0    0  501 -0.00000000000E+00 -0.00000000000E+00 -0.43172891189E+02  0.43172891189E+02  0.00000000000E+00 0.  1.
          5    1    1    2  502    0 -0.71356173841E+01 -0.24584297983E+02 -0.31104928686E+02  0.40500539889E+02  0.41800000000E+01 0. -1.
         -5    1    1    2    0  502  0.43331352559E+01  0.29098635138E+02  0.96062626737E+02  0.10055350458E+03  0.41800000000E+01 0. -1.
        -11    1    1    2    0    0  0.88850038200E+01 -0.45361940938E+02  0.15437640660E+03  0.16114814270E+03  0.00000000000E+00 0.  1.
         11    1    1    2    0    0 -0.60825216918E+01  0.40847603784E+02  0.24346974642E+03  0.24694744628E+03  0.00000000000E+00 0. -1.
</event>
<event>
 6    1  0.4988969E-006  0.1009422E+03  0.7561462E-02  0.1278327E+00
         -1   -1    0    0    0  501 -0.00000000000E+00  0.00000000000E+00  0.27708603724E+02  0.27708603724E+02  0.00000000000E+00 0.  1.
          1   -1    0    0  501    0  0.00000000000E+00 -0.00000000000E+00 -0.46763222018E+03  0.46763222018E+03  0.00000000000E+00 0. -1.
          5    1    1    2  502    0  0.61881068657E+02  0.23719171588E+02 -0.19017400681E+03  0.20143358962E+03  0.41800000000E+01 0. -1.
         -5    1    1    2    0  502 -0.47601273475E+02  0.34091010540E+01 -0.40378113337E+02  0.62652754473E+02  0.41800000000E+01 0. -1.
        -11    1    1    2    0    0  0.34404695933E+02 -0.84177263981E+01 -0.14030735510E+03  0.14470900150E+03  0.00000000000E+00 0. -1.
         11    1    1    2    0    0 -0.48684491115E+02 -0.18710546244E+02 -0.69064141204E+02  0.86545478311E+02  0.00000000000E+00 0.  1.
</event>
<event>
 6    1  0.4988969E-006  0.9492663E+02  0.7561462E-02  0.1291341E+00
          1   -1    0    0  501    0  0.00000000000E+00  0.00000000000E+00  0.26063478715E+03  0.26063478715E+03  0.00000000000E+00 0. -1.
         -1   -1    0    0    0  501 -0.00000000000E+00 -0.00000000000E+00 -0.94481320161E+02  0.94481320161E+02  0.00000000000E+00 0.  1.
          5    1    1    2  502    0 -0.40497655733E+02 -0.36217151391E+02  0.40433663461E+02  0.67853487129E+02  0.41800000000E+01 0. -1.
         -5    1    1    2    0  502 -0.15885523326E+02  0.31566050484E+02 -0.61484996710E+02  0.71039725611E+02  0.41800000000E+01 0. -1.
        -11    1    1    2    0    0  0.77853307434E+02  0.20850390532E+00  0.10242995091E+03  0.12865875717E+03  0.00000000000E+00 0.  1.
         11    1    1    2    0    0 -0.21470128375E+02  0.44425970013E+01  0.84774849326E+02  0.87564137401E+02  0.00000000000E+00 0. -1.
</event>
<event>
 6    1  0.4988969E-006  0.1168052E+03  0.7561462E-02  0.1248462E+00
         -1   -1    0    0    0  501 -0.00000000000E+00  0.00000000000E+00  0.92436461670E+02  0.92436461670E+02  0.00000000000E+00 0.  1.
          1   -1    0    0  501    0  0.00000000000E+00 -0.00000000000E+00 -0.18356027105E+03  0.18356027105E+03  0.00000000000E+00 0. -1.
          5    1    1    2  502    0  0.28320442312E+01 -0.90906893206E+02  0.24956284241E+01  0.91081196018E+02  0.41800000000E+01 0. -1.
         -5    1    1    2    0  502 -0.94184423862E+01  0.42130197174E+02  0.20899022076E+01  0.43422352103E+02  0.41800000000E+01 0. -1.
        -11    1    1    2    0    0 -0.13083381102E+02 -0.22074565075E+02 -0.46200161858E+02  0.52848048593E+02  0.00000000000E+00 0. -1.
         11    1    1    2    0    0  0.19669779257E+02  0.70851261107E+02 -0.49509178158E+02  0.88645136011E+02  0.00000000000E+00 0.  1.
</event>
<event>
 6    1  0.4988969E-006  0.1288681E+03  0.7561462E-02  0.1229145E+00
         -1   -1    0    0    0  501 -0.00000000000E+00  0.00000000000E+00  0.15255556989E+03  0.15255556989E+03  0.00000000000E+00 0.  1.
          1   -1    0    0  501    0  0.00000000000E+00 -0.00000000000E+00 -0.16924277879E+03  0.16924277879E+03  0.00000000000E+00 0. -1.
          5    1    1    2  502    0  0.20951912050E+02 -0.10139723839E+03  0.46886948531E+02  0.11373759675E+03  0.41800000000E+01 0. -1.
         -5    1    1    2    0  502 -0.13005093285E+02 -0.15546440436E+02 -0.54008431432E+02  0.57837767310E+02  0.41800000000E+01 0. -1.
        -11    1    1    2    0    0 -0.14759706978E+02 -0.14472722944E+01  0.22890498204E+02  0.27274868564E+02  0.00000000000E+00 0.  1.
         11    1    1    2    0    0  0.68128882124E+01  0.11839095112E+03 -0.32456224200E+02  0.12294811606E+03  0.00000000000E+00 0. -1.
</event>
<event>
 6    1  0.4988969E-006  0.8809692E+02  0.7561462E-02  0.1307527E+00
         -1   -1    0    0    0  501 -0.00000000000E+00  0.00000000000E+00  0.19675518594E+02  0.19675518594E+02  0.00000000000E+00 0.  1.
          1   -1    0    0  501    0  0.00000000000E+00 -0.00000000000E+00 -0.75036873223E+03  0.75036873223E+03  0.00000000000E+00 0. -1.
          5    1    1    2  502    0  0.43908305836E+02 -0.99532785161E+01 -0.41615557487E+03  0.41860475627E+03  0.41800000000E+01 0. -1.
         -5    1    1    2    0  502  0.50472614756E+01  0.22775344166E+02 -0.57945870396E+01  0.24397557034E+02  0.41800000000E+01 0. -1.
        -11    1    1    2    0    0  0.25386311512E+02 -0.20378193831E+02 -0.78711648027E+02  0.85177808912E+02  0.00000000000E+00 0.  1.
         11    1    1    2    0    0 -0.74341878824E+02  0.75561281807E+01 -0.23003140370E+03  0.24186412861E+03  0.00000000000E+00 0. -1.
</event>
<event>
 6    1  0.4988969E-006  0.1056271E+03  0.7561462E-02  0.1268889E+00
          2   -1    0    0  501    0  0.00000000000E+00  0.00000000000E+00  0.37486325730E+03  0.37486325730E+03  0.00000000000E+00 0.  1.
         -2   -1    0    0    0  501 -0.00000000000E+00 -0.00000000000E+00 -0.54921618680E+02  0.54921618680E+02  0.00000000000E+00 0. -1.
          5    1    1    2  502    0 -0.72761456430E+02  0.52848815207E+01  0.22047761604E+02  0.76326507232E+02  0.41800000000E+01 0. -1.
         -5    1    1    2    0  502  0.53405400754E+02  0.36510444672E+00  0.16092108394E+02  0.55934769898E+02  0.41800000000E+01 0. -1.
        -11    1    1    2    0    0  0.14085998173E+02  0.38060987558E+02  0.20516313719E+03  0.20913863101E+03  0.00000000000E+00 0.  1.
         11    1    1    2    0    0  0.52700575027E+01 -0.43710973525E+02  0.76638631433E+02  0.88384967842E+02  0.00000000000E+00 0. -1.
</event>
<event>
 6    1  0.4988969E-006  0.2274458E+03  0.7561462E-02  0.1128451E+00
         -2   -1    0    0    0  501 -0.00000000000E+00  0.00000000000E+00  0.38124670757E+03  0.38124670757E+03  0.00000000000E+00 0.  1.
          2   -1    0    0  501    0  0.00000000000E+00 -0.00000000000E+00 -0.16497113903E+03  0.16497113903E+03  0.00000000000E+00 0. -1.
          5    1    1    2  502    0  0.16054570470E+03  0.30591389816E+02  0.10950522658E+03  0.19677302528E+03  0.41800000000E+01 0. -1.
         -5    1    1    2    0  502  0.64184470497E+02 -0.15224798261E+02 -0.30400468069E+02  0.72753705019E+02  0.41800000000E+01 0. -1.
        -11    1    1    2    0    0 -0.46603463726E+02 -0.51392156313E+01  0.73637003744E+02  0.87296636184E+02  0.00000000000E+00 0.  1.
         11    1    1    2    0    0 -0.17812671147E+03 -0.10227375924E+02  0.63533806285E+02  0.18939448012E+03  0.00000000000E+00 0. -1.
</event>
<event>
 6    1  0.4988969E-006  0.4159654E+03  0.7561462E-02  0.1038387E+00
          2   -1    0    0  501    0  0.00000000000E+00  0.00000000000E+00  0.14604520151E+04  0.14604520151E+04  0.00000000000E+00 0. -1.
         -2   -1    0    0    0  501 -0.00000000000E+00 -0.00000000000E+00 -0.14515864013E+03  0.14515864013E+03  0.00000000000E+00 0.  1.
          5    1    1    2  502    0  0.14615635220E+03 -0.14648183654E+02  0.77002479186E+02  0.16590088238E+03  0.41800000000E+01 0. -1.
         -5    1    1    2    0  502  0.22200360741E+03 -0.15833558742E+03  0.26220514116E+03  0.37831834267E+03  0.41800000000E+01 0. -1.
        -11    1    1    2    0    0 -0.99453003402E+02  0.80962475888E+02  0.38089989633E+03  0.40190863814E+03  0.00000000000E+00 0. -1.
         11    1    1    2    0    0 -0.26870695621E+03  0.92021295189E+02  0.59518585833E+03  0.65948279207E+03  0.00000000000E+00 0.  1.
</event>
<event>
 6    1  0.4988969E-006  0.1692849E+03  0.7561462E-02  0.1178596E+00
         -1   -1    0    0    0  501 -0.00000000000E+00  0.00000000000E+00  0.20083233766E+03  0.20083233766E+03  0.00000000000E+00 0. -1.
          1   -1    0    0  501    0  0.00000000000E+00 -0.00000000000E+00 -0.19704592809E+03  0.19704592809E+03  0.00000000000E+00 0.  1.
          5    1    1    2  502    0  0.81228877242E+02  0.83753539265E+02  0.57646300893E+02  0.13020504692E+03  0.41800000000E+01 0. -1.
         -5    1    1    2    0  502 -0.47001677720E+02  0.55885163061E+02  0.22435029583E+02  0.76505634506E+02  0.41800000000E+01 0. -1.
        -11    1    1    2    0    0 -0.27653569985E+02 -0.38909379262E+02 -0.76561382412E+02  0.90223638833E+02  0.00000000000E+00 0.  1.
         11    1    1    2    0    0 -0.65736295360E+01 -0.10072932306E+03  0.26646150091E+00  0.10094394549E+03  0.00000000000E+00 0. -1.
</event>
<event>
 6    1  0.4988969E-006  0.1246077E+03  0.7561462E-02  0.1235684E+00
         -1   -1    0    0    0  501 -0.00000000000E+00  0.00000000000E+00  0.21176693965E+03  0.21176693965E+03  0.00000000000E+00 0.  1.
          1   -1    0    0  501    0  0.00000000000E+00 -0.00000000000E+00 -0.73614304177E+02  0.73614304177E+02  0.00000000000E+00 0. -1.
          5    1    1    2  502    0  0.57929879308E+02  0.61795927293E+02  0.40034314374E+02  0.93780735090E+02  0.41800000000E+01 0.  1.
         -5    1    1    2    0  502 -0.54197149405E+02 -0.77936043966E+00  0.29318619307E+02  0.61765623484E+02  0.41800000000E+01 0.  1.
        -11    1    1    2    0    0  0.43009042112E+02 -0.40224594720E+02  0.34639351400E+02  0.68320424392E+02  0.00000000000E+00 0. -1.
         11    1    1    2    0    0 -0.46741772015E+02 -0.20791972134E+02  0.34160350396E+02  0.61514460865E+02  0.00000000000E+00 0.  1.
</event>
<event>
 6    1  0.4988969E-006  0.1601313E+03  0.7561462E-02  0.1188549E+00
         -2   -1    0    0    0  501 -0.00000000000E+00  0.00000000000E+00  0.83535308631E+02  0.83535308631E+02  0.00000000000E+00 0.  1.
          2   -1    0    0  501    0  0.00000000000E+00 -0.00000000000E+00 -0.35604464699E+03  0.35604464699E+03  0.00000000000E+00 0. -1.
          5    1    1    2  502    0 -0.56115683513E+02 -0.44296748034E+02 -0.48542480497E+01  0.71778882317E+02  0.41800000000E+01 0.  1.
         -5    1    1    2    0  502 -0.69708328426E+02  0.64334514223E+02 -0.88148104241E+02  0.12955979876E+03  0.41800000000E+01 0.  1.
        -11    1    1    2    0    0  0.13201283710E+03  0.74250088998E+00 -0.16809902184E+03  0.21374101527E+03  0.00000000000E+00 0.  1.
         11    1    1    2    0    0 -0.61888251588E+01 -0.20780267079E+02 -0.11407964229E+02  0.24500259275E+02  0.00000000000E+00 0. -1.
</event>
<event>
 6    1  0.4988969E-006  0.1074476E+03  0.7561462E-02  0.1265371E+00
         -2   -1    0    0    0  501 -0.00000000000E+00  0.00000000000E+00  0.13754850515E+03  0.13754850515E+03  0.00000000000E+00 0.  1.
          2   -1    0    0  501    0  0.00000000000E+00 -0.00000000000E+00 -0.11661935633E+03  0.11661935633E+03  0.00000000000E+00 0. -1.
          5    1    1    2  502    0 -0.57620032666E+02  0.31266363997E+01  0.36924465950E+02  0.68634776938E+02  0.41800000000E+01 0. -1.
         -5    1    1    2    0  502  0.41885810369E+02  0.59637512972E+02 -0.13204661980E+02  0.74181463734E+02  0.41800000000E+01 0. -1.
        -11    1    1    2    0    0 -0.12790375993E+02 -0.52007300288E+02  0.34102507501E+02  0.63492787143E+02  0.00000000000E+00 0.  1.
         11    1    1    2    0    0  0.28524598290E+02 -0.10756849083E+02 -0.36893162653E+02  0.47858833671E+02  0.00000000000E+00 0. -1.
</event>
<event>
 6    1  0.4988969E-006  0.9078879E+02  0.7561462E-02  0.1300953E+00
         -1   -1    0    0    0  501 -0.00000000000E+00  0.00000000000E+00  0.36096778845E+02  0.36096778845E+02  0.00000000000E+00 0.  1.
          1   -1    0    0  501    0  0.00000000000E+00 -0.00000000000E+00 -0.42327676784E+03  0.42327676784E+03  0.00000000000E+00 0. -1.
          5    1    1    2  502    0 -0.15648526143E+02  0.23641228153E+02 -0.21937477930E+03  0.22123867255E+03  0.41800000000E+01 0.  1.
         -5    1    1    2    0  502 -0.43234279465E+02 -0.11807039791E+02 -0.88710998560E+01  0.45877858736E+02  0.41800000000E+01 0.  1.
        -11    1    1    2    0    0  0.69694468924E+01 -0.45502205016E+02 -0.61131139756E+02  0.76524767881E+02  0.00000000000E+00 0. -1.
         11    1    1    2    0    0  0.51913358716E+02  0.33668016654E+02 -0.97802970085E+02  0.11573224752E+03  0.00000000000E+00 0.  1.
</event>
<event>
 6    1  0.4988969E-006  0.4189100E+03  0.7561462E-02  0.1037422E+00
         -3   -1    0    0    0  501 -0.00000000000E+00  0.00000000000E+00  0.10561966055E+04  0.10561966055E+04  0.00000000000E+00 0.  1.
          3   -1    0    0  501    0  0.00000000000E+00 -0.00000000000E+00 -0.18166805268E+03  0.18166805268E+03  0.00000000000E+00 0. -1.
          5    1    1    2  502    0 -0.69505851722E+02 -0.15412902328E+01  0.13041084798E+03  0.14784417699E+03  0.41800000000E+01 0. -1.
         -5    1    1    2    0  502 -0.26528128511E+03  0.23700562142E+03  0.46807793719E+03  0.58792878182E+03  0.41800000000E+01 0. -1.
        -11    1    1    2    0    0  0.12219392902E+03 -0.56958774184E+02  0.48905338683E+02  0.14341335502E+03  0.00000000000E+00 0. -1.
         11    1    1    2    0    0  0.21259320780E+03 -0.17850555700E+03  0.22713442899E+03  0.35867834436E+03  0.00000000000E+00 0.  1.
</event>
<event>
 6    1  0.4988969E-006  0.1172497E+03  0.7561462E-02  0.1247704E+00
          1   -1    0    0  501    0  0.00000000000E+00  0.00000000000E+00  0.28026474887E+02  0.28026474887E+02  0.00000000000E+00 0. -1.
         -1   -1    0    0    0  501 -0.00000000000E+00 -0.00000000000E+00 -0.10026006285E+04  0.10026006285E+04  0.00000000000E+00 0.  1.
          5    1    1    2  502    0  0.10976557997E+02 -0.94164769660E+02 -0.69878710604E+03  0.70520095054E+03  0.41800000000E+01 0.  1.
         -5    1    1    2    0  502 -0.30721949582E+02 -0.59176398249E+01 -0.39694569436E+02  0.50714769939E+02  0.41800000000E+01 0.  1.
        -11    1    1    2    0    0  0.29744686501E+02  0.63592245449E+02 -0.22437693723E+03  0.23510365803E+03  0.00000000000E+00 0.  1.
         11    1    1    2    0    0 -0.99992949150E+01  0.36490164035E+02 -0.11715540874E+02  0.39607724854E+02  0.00000000000E+00 0. -1.
</event>
<event>
 6    1  0.4988969E-006  0.1890185E+03  0.7561462E-02  0.1159350E+00
          1   -1    0    0  501    0  0.00000000000E+00  0.00000000000E+00  0.10321566730E+04  0.10321566730E+04  0.00000000000E+00 0. -1.
         -1   -1    0    0    0  501 -0.00000000000E+00 -0.00000000000E+00 -0.41994034054E+02  0.41994034054E+02  0.00000000000E+00 0.  1.
          5    1    1    2  502    0  0.90426057420E+01  0.21295587776E+02  0.21512719514E+02  0.31867542708E+02  0.41800000000E+01 0.  1.
         -5    1    1    2    0  502  0.52068274560E+02 -0.17013924836E+03  0.29863921124E+03  0.34765114690E+03  0.41800000000E+01 0.  1.
        -11    1    1    2    0    0 -0.32294461293E+02  0.86614177960E+01  0.67106301280E+02  0.74974716138E+02  0.00000000000E+00 0.  1.
         11    1    1    2    0    0 -0.28816419009E+02  0.14018224279E+03  0.60290440694E+03  0.61965730134E+03  0.00000000000E+00 0. -1.
</event>
<event>
 6    1  0.4988969E-006  0.2588769E+03  0.7561462E-02  0.1107820E+00
         -1   -1    0    0    0  501 -0.00000000000E+00  0.00000000000E+00  0.11314846361E+03  0.11314846361E+03  0.00000000000E+00 0.  1.
          1   -1    0    0  501    0  0.00000000000E+00 -0.00000000000E+00 -0.64135760790E+03  0.64135760790E+03  0.00000000000E+00 0. -1.
          5    1    1    2  502    0 -0.33440201855E+02 -0.19808127021E+03 -0.16117732232E+03  0.25758501187E+03  0.41800000000E+01 0. -1.
         -5    1    1    2    0  502 -0.59572542860E+02 -0.20435432171E+02 -0.19820365666E+02  0.66157494254E+02  0.41800000000E+01 0. -1.
        -11    1    1    2    0    0  0.10858137350E+03  0.20882889251E+03 -0.30950729097E+03  0.38883696350E+03  0.00000000000E+00 0.  1.
         11    1    1    2    0    0 -0.15568628786E+02  0.96878098722E+01 -0.37704165325E+02  0.41926601880E+02  0.00000000000E+00 0. -1.
</event>
<event>
 6    1  0.4988969E-006  0.6281780E+02  0.7561462E-02  0.1386373E+00
         -1   -1    0    0    0  501 -0.00000000000E+00  0.00000000000E+00  0.30777299323E+02  0.30777299323E+02  0.00000000000E+00 0.  1.
          1   -1    0    0  501    0  0.00000000000E+00 -0.00000000000E+00 -0.40645247529E+03  0.40645247529E+03  0.00000000000E+00 0. -1.
          5    1    1    2  502    0 -0.75775652258E+01  0.18744424919E+02 -0.22357830239E+03  0.22452951400E+03  0.41800000000E+01 0.  1.
         -5    1    1    2    0  502  0.99911222773E+01  0.46578907184E+01  0.15450143966E+02  0.19434449281E+02  0.41800000000E+01 0.  1.
        -11    1    1    2    0    0 -0.43540335280E+02 -0.28078166518E+02 -0.11682987835E+03  0.12780205282E+03  0.00000000000E+00 0. -1.
         11    1    1    2    0    0  0.41126778228E+02  0.46758508808E+01 -0.50717139196E+02  0.65463758501E+02  0.00000000000E+00 0.  1.
</event>
<event>
 6    1  0.4988969E-006  0.8768656E+02  0.7561462E-02  0.1308553E+00
         -3   -1    0    0    0  501 -0.00000000000E+00  0.00000000000E+00  0.46083574202E+02  0.46083574202E+02  0.00000000000E+00 0.  1.
          3   -1    0    0  501    0  0.00000000000E+00 -0.00000000000E+00 -0.40185221114E+03  0.40185221114E+03  0.00000000000E+00 0. -1.
          5    1    1    2  502    0  0.68192527816E+02  0.12733963647E+02  0.20515972248E+01  0.69527376847E+02  0.41800000000E+01 0. -1.
         -5    1    1    2    0  502 -0.26802223852E+02 -0.13459220960E+02 -0.75445877680E+02  0.81296141921E+02  0.41800000000E+01 0. -1.
        -11    1    1    2    0    0 -0.13238122595E+02 -0.30682306247E+02 -0.45168971458E+02  0.56186188597E+02  0.00000000000E+00 0.  1.
         11    1    1    2    0    0 -0.28152181369E+02  0.31407563560E+02 -0.23720538503E+03  0.24092607798E+03  0.00000000000E+00 0. -1.
</event>
<event>
 6    1  0.4988969E-006  0.1040024E+03  0.7561462E-02  0.1272098E+00
          1   -1    0    0  501    0  0.00000000000E+00  0.00000000000E+00  0.14541272684E+03  0.14541272684E+03  0.00000000000E+00 0.  1.
         -1   -1    0    0    0  501 -0.00000000000E+00 -0.00000000000E+00 -0.12660881634E+03  0.12660881634E+03  0.00000000000E+00 0. -1.
          5    1    1    2  502    0 -0.67103087777E+02 -0.68082290730E+02  0.12938313085E+02  0.96555139924E+02  0.41800000000E+01 0. -1.
         -5    1    1    2    0  502  0.12501736562E+02  0.27125845494E+02 -0.37391869679E+02  0.48038830429E+02  0.41800000000E+01 0. -1.
        -11    1    1    2    0    0  0.31180210052E+02 -0.40334222577E+01 -0.26541973375E+02  0.41145477815E+02  0.00000000000E+00 0. -1.
         11    1    1    2    0    0  0.23421141164E+02  0.44989867493E+02  0.69799440471E+02  0.86282095017E+02  0.00000000000E+00 0.  1.
</event>
<event>
 6    1  0.4988969E-006  0.1173434E+03  0.7561462E-02  0.1247545E+00
         -2   -1    0    0    0  501 -0.00000000000E+00  0.00000000000E+00  0.20043306129E+02  0.20043306129E+02  0.00000000000E+00 0.  1.
          2   -1    0    0  501    0  0.00000000000E+00 -0.00000000000E+00 -0.12839945864E+04  0.12839945864E+04  0.00000000000E+00 0. -1.
          5    1    1    2  502    0 -0.43167584290E+02 -0.67720332835E+01 -0.69018131052E+03  0.69157574752E+03  0.41800000000E+01 0. -1.
         -5    1    1    2    0  502  0.60042799314E+02  0.60075467037E+02 -0.12562274705E+03  0.15169952692E+03  0.41800000000E+01 0.  1.
        -11    1    1    2    0    0  0.10910663393E+02  0.22506083512E+02 -0.13978845816E+03  0.14200837794E+03  0.00000000000E+00 0.  1.
         11    1    1    2    0    0 -0.27785878417E+02 -0.75809517266E+02 -0.30835876454E+03  0.31875424015E+03  0.00000000000E+00 0. -1.
</event>
<event>
 6    1  0.4988969E-006  0.1006736E+03  0.7561462E-02  0.1278886E+00
          2   -1    0    0  501    0  0.00000000000E+00  0.00000000000E+00  0.15351145912E+03  0.15351145912E+03  0.00000000000E+00 0. -1.
         -2   -1    0    0    0  501 -0.00000000000E+00 -0.00000000000E+00 -0.84950892106E+02  0.84950892106E+02  0.00000000000E+00 0.  1.
          5    1    1    2  502    0 -0.38154661327E+02  0.21061910867E+02  0.29840003871E+02  0.52983775831E+02  0.41800000000E+01 0.  1.
         -5    1    1    2    0  502  0.76697021745E+02 -0.23384161527E+02 -0.42654510900E+01  0.80404717697E+02  0.41800000000E+01 0.  1.
        -11    1    1    2    0    0  0.19180592855E+02  0.37006814375E+01  0.43115496741E+02  0.47334303044E+02  0.00000000000E+00 0. -1.
         11    1    1    2    0    0 -0.57722953274E+02 -0.13784307766E+01 -0.12948250814E+00  0.57739554655E+02  0.00000000000E+00 0.  1.
</event>
<event>
 6    1  0.4988969E-006  0.2153827E+03  0.7561462E-02  0.1137373E+00
          2   -1    0    0  501    0  0.00000000000E+00  0.00000000000E+00  0.33551073819E+02  0.33551073819E+02  0.00000000000E+00 0. -1.
         -2   -1    0    0    0  501 -0.00000000000E+00 -0.00000000000E+00 -0.14468460347E+04  0.14468460347E+04  0.00000000000E+00 0.  1.
          5    1    1    2  502    0  0.68254094366E+02  0.24485708401E+02 -0.29589950177E+03  0.30468370298E+03  0.41800000000E+01 0. -1.
         -5    1    1    2    0  502  0.90638300966E+02 -0.12139512979E+03 -0.58806543016E+03  0.60728123772E+03  0.41800000000E+01 0. -1.
        -11    1    1    2    0    0 -0.11156918027E+03  0.11081557266E+03 -0.38355231469E+03  0.41453606747E+03  0.00000000000E+00 0.  1.
         11    1    1    2    0    0 -0.47323215061E+02 -0.13906151270E+02 -0.14577771425E+03  0.15389610033E+03  0.00000000000E+00 0. -1.
</event>
<event>
 6    1  0.4988969E-006  0.1642474E+03  0.7561462E-02  0.1183983E+00
          2   -1    0    0  501    0  0.00000000000E+00  0.00000000000E+00  0.65744525855E+03  0.65744525855E+03  0.00000000000E+00 0. -1.
         -2   -1    0    0    0  501 -0.00000000000E+00 -0.00000000000E+00 -0.55701347722E+02  0.55701347722E+02  0.00000000000E+00 0.  1.
          5    1    1    2  502    0 -0.12500719647E+03 -0.15124129708E+02  0.23879652355E+03  0.26999405647E+03  0.41800000000E+01 0.  1.
         -5    1    1    2    0  502 -0.30854780419E+02  0.19629507462E+02 -0.55173737276E+01  0.37218931349E+02  0.41800000000E+01 0.  1.
        -11    1    1    2    0    0  0.12164653525E+03  0.20444864881E+02  0.22806245721E+03  0.25928431581E+03  0.00000000000E+00 0.  1.
         11    1    1    2    0    0  0.34215441635E+02 -0.24950242635E+02  0.14040230380E+03  0.14664930264E+03  0.00000000000E+00 0. -1.
</event>
<event>
 6    1  0.4988969E-006  0.1180741E+03  0.7561462E-02  0.1246308E+00
          2   -1    0    0  501    0  0.00000000000E+00  0.00000000000E+00  0.10992976880E+03  0.10992976880E+03  0.00000000000E+00 0. -1.
         -2   -1    0    0    0  501 -0.00000000000E+00 -0.00000000000E+00 -0.15664035945E+03  0.15664035945E+03  0.00000000000E+00 0.  1.
          5    1    1    2  502    0 -0.36756812265E+02 -0.42963912559E+02  0.99468670900E+01  0.57561910975E+02  0.41800000000E+01 0.  1.
         -5    1    1    2    0  502  0.64901416062E+02 -0.18134967811E+02 -0.68158452044E+02  0.95938093839E+02  0.41800000000E+01 0.  1.
        -11    1    1    2    0    0  0.32062151107E+02  0.11956670004E+02  0.86797658597E+01  0.35302716986E+02  0.00000000000E+00 0. -1.
         11    1    1    2    0    0 -0.60206754904E+02  0.49142210366E+02  0.28212284368E+01  0.77767406448E+02  0.00000000000E+00 0.  1.
</event>
<event>
 6    1  0.4988969E-006  0.8910411E+02  0.7561462E-02  0.1305036E+00
          2   -1    0    0  501    0  0.00000000000E+00  0.00000000000E+00  0.16355620424E+02  0.16355620424E+02  0.00000000000E+00 0. -1.
         -2   -1    0    0    0  501 -0.00000000000E+00 -0.00000000000E+00 -0.14186240475E+04  0.14186240475E+04  0.00000000000E+00 0.  1.
          5    1    1    2  502    0 -0.23191565979E+02 -0.12688180128E+02 -0.60251388266E+02  0.65928300718E+02  0.41800000000E+01 0.  1.
         -5    1    1    2    0  502  0.65362634918E+02 -0.20257043231E+02 -0.11290926665E+04  0.11311721106E+04  0.41800000000E+01 0.  1.
        -11    1    1    2    0    0  0.73448035920E+01 -0.13262053968E+02 -0.77320503252E+00  0.15179791214E+02  0.00000000000E+00 0. -1.
         11    1    1    2    0    0 -0.49515872530E+02  0.46207277328E+02 -0.21215116725E+03  0.22269946537E+03  0.00000000000E+00 0.  1.
</event>
<event>
 6    1  0.4988969E-006  0.1083304E+03  0.7561462E-02  0.1263693E+00
         -1   -1    0    0    0  501 -0.00000000000E+00  0.00000000000E+00  0.44687193634E+03  0.44687193634E+03  0.00000000000E+00 0.  1.
          1   -1    0    0  501    0  0.00000000000E+00 -0.00000000000E+00 -0.35966844332E+02  0.35966844332E+02  0.00000000000E+00 0. -1.
          5    1    1    2  502    0 -0.57585565882E+02 -0.25177541909E+02  0.21334959206E+03  0.22245342624E+03  0.41800000000E+01 0. -1.
         -5    1    1    2    0  502  0.61732051159E+02 -0.72405367315E+01  0.12267671363E+03  0.13758749936E+03  0.41800000000E+01 0. -1.
        -11    1    1    2    0    0 -0.71337053047E+01 -0.29011189354E+02  0.46007613398E+02  0.54856534248E+02  0.00000000000E+00 0.  1.
         11    1    1    2    0    0  0.29872200267E+01  0.61429267995E+02  0.28871172924E+02  0.67941320828E+02  0.00000000000E+00 0. -1.
</event>
<event>
 6    1  0.4988969E-006  0.1580377E+03  0.7561462E-02  0.1190930E+00
         -2   -1    0    0    0  501 -0.00000000000E+00  0.00000000000E+00  0.68610635931E+03  0.68610635931E+03  0.00000000000E+00 0.  1.
          2   -1    0    0  501    0  0.00000000000E+00 -0.00000000000E+00 -0.49269239387E+02  0.49269239387E+02  0.00000000000E+00 0. -1.
          5    1    1    2  502    0 -0.38684269697E+02 -0.96251396294E+01  0.93385334974E+02  0.10162386148E+03  0.41800000000E+01 0. -1.
         -5    1    1    2    0  502  0.15471637320E+03 -0.20440010274E+02  0.37129543108E+03  0.40278123057E+03  0.41800000000E+01 0.  1.
        -11    1    1    2    0    0 -0.28517593004E+02  0.81600907914E+01  0.12636566077E+03  0.12980030976E+03  0.00000000000E+00 0.  1.
         11    1    1    2    0    0 -0.87514510499E+02  0.21905059112E+02  0.45790693098E+02  0.10117019688E+03  0.00000000000E+00 0. -1.
</event>
<event>
 6    1  0.4988969E-006  0.9138847E+02  0.7561462E-02  0.1299524E+00
          2   -1    0    0  501    0  0.00000000000E+00  0.00000000000E+00  0.42515053489E+02  0.42515053489E+02  0.00000000000E+00 0. -1.
         -2   -1    0    0    0  501 -0.00000000000E+00 -0.00000000000E+00 -0.58585290707E+03  0.58585290707E+03  0.00000000000E+00 0.  1.
          5    1    1    2  502    0 -0.55802306382E+02 -0.32472853736E+02 -0.33947400719E+03  0.34558422647E+03  0.41800000000E+01 0.  1.
         -5    1    1    2    0  502  0.41779575775E+02  0.39232910781E+02 -0.17921633732E+03  0.18820393780E+03  0.41800000000E+01 0.  1.
        -11    1    1    2    0    0 -0.13768202928E+02 -0.24172431696E+02  0.23437677572E+02  0.36375741861E+02  0.00000000000E+00 0. -1.
         11    1    1    2    0    0  0.27790933535E+02  0.17412374652E+02 -0.48085186652E+02  0.58204054438E+02  0.00000000000E+00 0.  1.
</event>
<event>
 6    1  0.4988969E-006  0.1940480E+03  0.7561462E-02  0.1154860E+00
         -2   -1    0    0    0  501 -0.00000000000E+00  0.00000000000E+00  0.50918065313E+02  0.50918065313E+02  0.00000000000E+00 0.  1.
          2   -1    0    0  501    0  0.00000000000E+00 -0.00000000000E+00 -0.85251746890E+03  0.85251746890E+03  0.00000000000E+00 0. -1.
          5    1    1    2  502    0  0.29363838487E+02 -0.50395678880E+01 -0.32734353988E+02  0.44459448785E+02  0.41800000000E+01 0. -1.
         -5    1    1    2    0  502 -0.63944080824E+02  0.16460432292E+03 -0.24077901738E+03  0.29862256480E+03  0.41800000000E+01 0.  1.
        -11    1    1    2    0    0  0.29785996008E+02 -0.16856464016E+03 -0.51965574688E+03  0.54712278214E+03  0.00000000000E+00 0. -1.
         11    1    1    2    0    0  0.47942463289E+01  0.89998851275E+01 -0.84302853384E+01  0.13230738493E+02  0.00000000000E+00 0.  1.
</event>
<event>
 6    1  0.4988969E-006  0.8387127E+02  0.7561462E-02  0.1318411E+00
         -2   -1    0    0    0  501 -0.00000000000E+00  0.00000000000E+00  0.68770721723E+03  0.68770721723E+03  0.00000000000E+00 0.  1.
          2   -1    0    0  501    0  0.00000000000E+00 -0.00000000000E+00 -0.43948872245E+02  0.43948872245E+02  0.00000000000E+00 0. -1.
          5    1    1    2  502    0 -0.32702385727E+02  0.25983557968E+02  0.69012843476E+02  0.80776458709E+02  0.41800000000E+01 0. -1.
         -5    1    1    2    0  502  0.38120617786E+02  0.16710652494E+01  0.55209897465E+03  0.55343177011E+03  0.41800000000E+01 0. -1.
        -11    1    1    2    0    0 -0.59806398657E+01 -0.57359229361E+02 -0.36310721358E+01  0.57784374454E+02  0.00000000000E+00 0. -1.
         11    1    1    2    0    0  0.56240780697E+00  0.29704606144E+02  0.26277598998E+02  0.39663486204E+02  0.00000000000E+00 0.  1.
</event>
<event>
 6    1  0.4988969E-006  0.8033983E+02  0.7561462E-02  0.1328090E+00
          3   -1    0    0  501    0  0.00000000000E+00  0.00000000000E+00  0.80462521283E+02  0.80462521283E+02  0.00000000000E+00 0. -1.
         -3   -1    0    0    0  501 -0.00000000000E+00 -0.00000000000E+00 -0.19145952347E+03  0.19145952347E+03  0.00000000000E+00 0.  1.
          5    1    1    2  502    0 -0.31276493684E+02 -0.40377594634E+02 -0.13010478033E+03  0.13983309862E+03  0.41800000000E+01 0.  1.
         -5    1    1    2    0  502  0.28134574821E+02  0.37722405711E+01  0.16495641180E+02  0.33096263796E+02  0.41800000000E+01 0.  1.
        -11    1    1    2    0    0  0.50534244650E+00 -0.22035954107E+02 -0.25669534438E+02  0.33834355952E+02  0.00000000000E+00 0. -1.
         11    1    1    2    0    0  0.26365764166E+01  0.58641308170E+02  0.28281671405E+02  0.65158326379E+02  0.00000000000E+00 0.  1.
</event>
<event>
 6    1  0.4988969E-006  0.1799261E+03  0.7561462E-02  0.1167875E+00
          1   -1    0    0  501    0  0.00000000000E+00  0.00000000000E+00  0.30061040639E+03  0.30061040639E+03  0.00000000000E+00 0. -1.
         -1   -1    0    0    0  501 -0.00000000000E+00 -0.00000000000E+00 -0.15542847440E+03  0.15542847440E+03  0.00000000000E+00 0.  1.
          5    1    1    2  502    0  0.11903422081E+03 -0.69501545127E+02 -0.41869318986E+02  0.14411843314E+03  0.41800000000E+01 0. -1.
         -5    1    1    2    0  502 -0.26065839905E+02 -0.49360723271E+02  0.15250595610E+01  0.55997385818E+02  0.41800000000E+01 0. -1.
        -11    1    1    2    0    0  0.20414686986E+01  0.46499599740E+02  0.17388281454E+02  0.49686343218E+02  0.00000000000E+00 0.  1.
         11    1    1    2    0    0 -0.95009849601E+02  0.72362668658E+02  0.16813790997E+03  0.20623671861E+03  0.00000000000E+00 0. -1.
</event>
<event>
 6    1  0.4988969E-006  0.1186831E+03  0.7561462E-02  0.1245285E+00
          1   -1    0    0  501    0  0.00000000000E+00  0.00000000000E+00  0.29649988166E+03  0.29649988166E+03  0.00000000000E+00 0. -1.
         -1   -1    0    0    0  501 -0.00000000000E+00 -0.00000000000E+00 -0.70643666728E+02  0.70643666728E+02  0.00000000000E+00 0.  1.
          5    1    1    2  502    0  0.15460976379E+02 -0.29877653310E+02  0.15000847671E+02  0.37070389649E+02  0.41800000000E+01 0. -1.
         -5    1    1    2    0  502 -0.12894379250E+02  0.10312198918E+03  0.18780846654E+02  0.10569106996E+03  0.41800000000E+01 0.  1.
        -11    1    1    2    0    0 -0.13820608841E+02 -0.83255648420E+02  0.19154172104E+03  0.20931016010E+03  0.00000000000E+00 0. -1.
         11    1    1    2    0    0  0.11254011711E+02  0.10011312549E+02  0.53279956522E+00  0.15071928673E+02  0.00000000000E+00 0.  1.
</event>
<event>
 6    1  0.4988969E-006  0.2232186E+03  0.7561462E-02  0.1131506E+00
         -2   -1    0    0    0  501 -0.00000000000E+00  0.00000000000E+00  0.61901542212E+02  0.61901542212E+02  0.00000000000E+00 0.  1.
          2   -1    0    0  501    0  0.00000000000E+00 -0.00000000000E+00 -0.88382024076E+03  0.88382024076E+03  0.00000000000E+00 0. -1.
          5    1    1    2  502    0 -0.65654593059E+02 -0.79680385401E+02 -0.21712784775E+03  0.24046094085E+03  0.41800000000E+01 0. -1.
         -5    1    1    2    0  502  0.38509490984E+02 -0.11818705056E+03 -0.13834372111E+03  0.18603122691E+03  0.41800000000E+01 0. -1.
        -11    1    1    2    0    0 -0.31740429230E+02  0.95531246592E+02 -0.28954668319E+03  0.30654682460E+03  0.00000000000E+00 0. -1.
         11    1    1    2    0    0  0.58885531305E+02  0.10233618937E+03 -0.17690044651E+03  0.21268279062E+03  0.00000000000E+00 0.  1.
</event>
<event>
 6    1  0.4988969E-006  0.1320758E+03  0.7561462E-02  0.1224408E+00
         -2   -1    0    0    0  501 -0.00000000000E+00  0.00000000000E+00  0.63382461618E+02  0.63382461618E+02  0.00000000000E+00 0.  1.
          2   -1    0    0  501    0  0.00000000000E+00 -0.00000000000E+00 -0.32181756714E+03  0.32181756714E+03  0.00000000000E+00 0. -1.
          5    1    1    2  502    0  0.45190388974E+02  0.37210946707E+02 -0.31455311451E+02  0.66586296105E+02  0.41800000000E+01 0. -1.
         -5    1    1    2    0  502  0.13730085401E+02 -0.86907757636E+02 -0.37953677739E+02  0.95913646768E+02  0.41800000000E+01 0. -1.
        -11    1    1    2    0    0 -0.66661459996E+02  0.69387760240E+02 -0.14778977608E+03  0.17635257138E+03  0.00000000000E+00 0.  1.
         11    1    1    2    0    0  0.77409856213E+01 -0.19690949311E+02 -0.41236340259E+02  0.46347514508E+02  0.00000000000E+00 0. -1.
</event>
<event>
 6    1  0.4988969E-006  0.9867487E+02  0.7561462E-02  0.1283107E+00
         -1   -1    0    0    0  501 -0.00000000000E+00  0.00000000000E+00  0.18597104243E+03  0.18597104243E+03  0.00000000000E+00 0.  1.
          1   -1    0    0  501    0  0.00000000000E+00 -0.00000000000E+00 -0.74484798022E+02  0.74484798022E+02  0.00000000000E+00 0. -1.
          5    1    1    2  502    0  0.10333658069E+02 -0.51843727276E+02  0.20710374228E+01  0.53068994177E+02  0.41800000000E+01 0. -1.
         -5    1    1    2    0  502 -0.50905455046E+02  0.41159930933E+02  0.75364681931E+02  0.99914027796E+02  0.41800000000E+01 0. -1.
        -11    1    1    2    0    0  0.29476315894E+02  0.38667327038E+02 -0.14155333963E+02  0.50639795207E+02  0.00000000000E+00 0. -1.
         11    1    1    2    0    0  0.11095481082E+02 -0.27983530694E+02  0.48205859018E+02  0.56833023272E+02  0.00000000000E+00 0.  1.
</event>
<event>
 6    1  0.4988969E-006  0.7262393E+02  0.7561462E-02  0.1351391E+00
          2   -1    0    0  501    0  0.00000000000E+00  0.00000000000E+00  0.45852929470E+03  0.45852929470E+03  0.00000000000E+00 0.  1.
         -2   -1    0    0    0  501 -0.00000000000E+00 -0.00000000000E+00 -0.46607002354E+02  0.46607002354E+02  0.00000000000E+00 0. -1.
          5    1    1    2  502    0  0.99199203425E+00 -0.27698977318E+02  0.11046158649E+03  0.11396250209E+03  0.41800000000E+01 0. -1.
         -5    1    1    2    0  502  0.44135676101E+02 -0.97661381534E+01 -0.21634857669E+02  0.50287919282E+02  0.41800000000E+01 0. -1.
        -11    1    1    2    0    0 -0.52693511875E+02  0.27893713386E+02  0.32323191169E+03  0.32868455116E+03  0.00000000000E+00 0.  1.
         11    1    1    2    0    0  0.75658437397E+01  0.95714020855E+01 -0.13634815683E+00  0.12201324526E+02  0.00000000000E+00 0. -1.
</event>
<event>
 6    1  0.4988969E-006  0.1928733E+03  0.7561462E-02  0.1155895E+00
         -2   -1    0    0    0  501 -0.00000000000E+00  0.00000000000E+00  0.59043962275E+02  0.59043962275E+02  0.00000000000E+00 0.  1.
          2   -1    0    0  501    0  0.00000000000E+00 -0.00000000000E+00 -0.70995107369E+03  0.70995107369E+03  0.00000000000E+00 0. -1.
          5    1    1    2  502    0  0.13016217916E+03  0.12947777835E+03 -0.22844905268E+03  0.29310941650E+03  0.41800000000E+01 0. -1.
         -5    1    1    2    0  502 -0.83782646222E+01 -0.59892230795E+01 -0.88725868753E+02  0.89419339615E+02  0.41800000000E+01 0. -1.
        -11    1    1    2    0    0 -0.24680279895E+02 -0.81575721805E+02 -0.11142405741E+03  0.14028198449E+03  0.00000000000E+00 0.  1.
         11    1    1    2    0    0 -0.97103634646E+02 -0.41912833470E+02 -0.22230813257E+03  0.24618429535E+03  0.00000000000E+00 0. -1.
</event>
<event>
 6    1  0.4988969E-006  0.1171989E+03  0.7561462E-02  0.1247791E+00
         -2   -1    0    0    0  501 -0.00000000000E+00  0.00000000000E+00  0.23696868855E+02  0.23696868855E+02  0.00000000000E+00 0.  1.
          2   -1    0    0  501    0  0.00000000000E+00 -0.00000000000E+00 -0.96278642324E+03  0.96278642324E+03  0.00000000000E+00 0. -1.
          5    1    1    2  502    0  0.11200895497E+01  0.19636490097E+02 -0.34956969784E+03  0.35014752947E+03  0.41800000000E+01 0. -1.
         -5    1    1    2    0  502  0.10080811021E+02  0.87002127116E+02 -0.12891281022E+03  0.15590695274E+03  0.41800000000E+01 0. -1.
        -11    1    1    2    0    0 -0.39015212827E+02 -0.49237374214E+02 -0.13870572066E+03  0.15226878470E+03  0.00000000000E+00 0.  1.
         11    1    1    2    0    0  0.27814312256E+02 -0.57401242999E+02 -0.32190132567E+03  0.32816002519E+03  0.00000000000E+00 0. -1.
</event>
<event>
 6    1  0.4988969E-006  0.9209531E+02  0.7561462E-02  0.1297855E+00
          2   -1    0    0  501    0  0.00000000000E+00  0.00000000000E+00  0.13884563559E+03  0.13884563559E+03  0.00000000000E+00 0.  1.
         -2   -1    0    0    0  501 -0.00000000000E+00 -0.00000000000E+00 -0.10158556446E+03  0.10158556446E+03  0.00000000000E+00 0. -1.
          5    1    1    2  502    0 -0.30470057153E+02  0.26775794738E+01 -0.27820423736E+02  0.41557697140E+02  0.41800000000E+01 0.  1.
         -5    1    1    2    0  502  0.76335693112E+02  0.95114053946E+00  0.55743481559E+02  0.94619505640E+02  0.41800000000E+01 0.  1.
        -11    1    1    2    0    0  0.15290746724E+02 -0.35898308041E+01  0.34667304873E+02  0.38059372667E+02  0.00000000000E+00 0.  1.
         11    1    1    2    0    0 -0.61156382683E+02 -0.38889209171E-01 -0.25330291561E+02  0.66194624599E+02  0.00000000000E+00 0. -1.
</event>
<event>
 6    1  0.4988969E-006  0.1193426E+03  0.7561462E-02  0.1244186E+00
          1   -1    0    0  501    0  0.00000000000E+00  0.00000000000E+00  0.27229742555E+02  0.27229742555E+02  0.00000000000E+00 0. -1.
         -1   -1    0    0    0  501 -0.00000000000E+00 -0.00000000000E+00 -0.73002988243E+03  0.73002988243E+03  0.00000000000E+00 0.  1.
          5    1    1    2  502    0 -0.31559921673E+02 -0.68267003802E+02 -0.43564135860E+03  0.44210550571E+03  0.41800000000E+01 0. -1.
         -5    1    1    2    0  502  0.51558086846E+02 -0.59147952402E+01 -0.93462810917E+02  0.10698593621E+03  0.41800000000E+01 0. -1.
        -11    1    1    2    0    0 -0.46109149916E+02  0.18287750667E+02 -0.52824796784E+02  0.72463471389E+02  0.00000000000E+00 0.  1.
         11    1    1    2    0    0  0.26110984743E+02  0.55894048375E+02 -0.12087117358E+03  0.13570471168E+03  0.00000000000E+00 0. -1.
</event>
<event>
 6    1  0.4988969E-006  0.1054155E+03  0.7561462E-02  0.1269303E+00
         -2   -1    0    0    0  501 -0.00000000000E+00  0.00000000000E+00  0.21276361346E+02  0.21276361346E+02  0.00000000000E+00 0.  1.
          2   -1    0    0  501    0  0.00000000000E+00 -0.00000000000E+00 -0.59161403922E+03  0.59161403922E+03  0.00000000000E+00 0. -1.
          5    1    1    2  502    0 -0.66767506454E+02 -0.27124405222E+02 -0.18794808478E+03  0.20133451828E+03  0.41800000000E+01 0. -1.
         -5    1    1    2    0  502  0.51180667472E+02  0.10994881112E+02 -0.88156516123E+02  0.10261282507E+03  0.41800000000E+01 0. -1.
        -11    1    1    2    0    0 -0.25071056452E+02  0.33560487084E+02 -0.81239375284E+02  0.91404049480E+02  0.00000000000E+00 0.  1.
         11    1    1    2    0    0  0.40657895434E+02 -0.17430962973E+02 -0.21299370169E+03  0.21753900774E+03  0.00000000000E+00 0. -1.
</event>
<event>
 6    1  0.4988969E-006  0.1030376E+03  0.7561462E-02  0.1274035E+00
          2   -1    0    0  501    0  0.00000000000E+00  0.00000000000E+00  0.51102528768E+03  0.51102528768E+03  0.00000000000E+00 0. -1.
         -2   -1    0    0    0  501 -0.00000000000E+00 -0.00000000000E+00 -0.25280495887E+02  0.25280495887E+02  0.00000000000E+00 0.  1.
          5    1    1    2  502    0 -0.48047215981E+02  0.11239341916E+02  0.14856359166E+03  0.15659971563E+03  0.41800000000E+01 0. -1.
         -5    1    1    2    0  502  0.63120668811E+02 -0.27201900733E+01  0.60089643870E+02  0.87291786358E+02  0.41800000000E+01 0. -1.
        -11    1    1    2    0    0  0.11552076652E+02  0.37955974002E+02  0.12692045941E+03  0.13297710124E+03  0.00000000000E+00 0. -1.
         11    1    1    2    0    0 -0.26625529482E+02 -0.46475125845E+02  0.15017109685E+03  0.15943718033E+03  0.00000000000E+00 0.  1.
</event>
<event>
 6    1  0.4988969E-006  0.2154847E+03  0.7561462E-02  0.1137295E+00
          2   -1    0    0  501    0  0.00000000000E+00  0.00000000000E+00  0.71022398623E+02  0.71022398623E+02  0.00000000000E+00 0. -1.
         -2   -1    0    0    0  501 -0.00000000000E+00 -0.00000000000E+00 -0.72337199137E+03  0.72337199137E+03  0.00000000000E+00 0.  1.
          5    1    1    2  502    0  0.25608617197E+02 -0.39543060135E+02 -0.87779440052E+02  0.99710367442E+02  0.41800000000E+01 0.  1.
         -5    1    1    2    0  502  0.16614260415E+03  0.82206076191E+02 -0.30794248403E+03  0.35945409964E+03  0.41800000000E+01 0.  1.
        -11    1    1    2    0    0 -0.70475693281E+02 -0.25526060478E+01 -0.16067154713E+03  0.17546704875E+03  0.00000000000E+00 0.  1.
         11    1    1    2    0    0 -0.12127552807E+03 -0.40110410009E+02 -0.95956121537E+02  0.15976287416E+03  0.00000000000E+00 0. -1.
</event>
<event>
 6    1  0.4988969E-006  0.1040585E+03  0.7561462E-02  0.1271986E+00
          1   -1    0    0  501    0  0.00000000000E+00  0.00000000000E+00  0.33783354949E+03  0.33783354949E+03  0.00000000000E+00 0. -1.
         -1   -1    0    0    0  501 -0.00000000000E+00 -0.00000000000E+00 -0.80782352795E+02  0.80782352795E+02  0.00000000000E+00 0.  1.
          5    1    1    2  502    0 -0.57062417890E+02 -0.42131181348E+02 -0.27261012294E+02  0.76103818357E+02  0.41800000000E+01 0.  1.
         -5    1    1    2    0  502  0.27810466868E+02  0.44058076405E+02  0.10928940778E+02  0.53398972935E+02  0.41800000000E+01 0.  1.
        -11    1    1    2    0    0  0.26043523031E+02 -0.39375446479E+02  0.21154247275E+03  0.21674618487E+03  0.00000000000E+00 0. -1.
         11    1    1    2    0    0  0.32084279903E+01  0.37448551422E+02  0.61840795461E+02  0.72366926127E+02  0.00000000000E+00 0.  1.
</event>
<event>
 6    1  0.4988969E-006  0.7978126E+02  0.7561462E-02  0.1329673E+00
         -2   -1    0    0    0  501 -0.00000000000E+00  0.00000000000E+00  0.21202619420E+03  0.21202619420E+03  0.00000000000E+00 0.  1.
          2   -1    0    0  501    0  0.00000000000E+00 -0.00000000000E+00 -0.95692582091E+02  0.95692582091E+02  0.00000000000E+00 0. -1.
          5    1    1    2  502    0 -0.30007378101E+02  0.16734452851E+02 -0.88329371712E+01  0.35720831902E+02  0.41800000000E+01 0. -1.
         -5    1    1    2    0  502  0.49218923892E+02  0.39904857463E+02  0.14648106652E+03  0.15965298421E+03  0.41800000000E+01 0. -1.
        -11    1    1    2    0    0 -0.13040686438E+02 -0.17485323904E+02  0.36337440951E+02  0.42381666669E+02  0.00000000000E+00 0.  1.
         11    1    1    2    0    0 -0.61708593532E+01 -0.39153986410E+02 -0.57651958186E+02  0.69963293516E+02  0.00000000000E+00 0. -1.
</event>
<event>
 6    1  0.9465861E-006  0.1180418E+03  0.7561462E-02  0.1246363E+00
          1   -1    0    0  501    0  0.00000000000E+00  0.00000000000E+00  0.27696472540E+03  0.27696472540E+03  0.00000000000E+00 0.  1.
         -1   -1    0    0    0  501 -0.00000000000E+00 -0.00000000000E+00 -0.76296419119E+02  0.76296419119E+02  0.00000000000E+00 0. -1.
          5    1    1    2  502    0 -0.50539518635E+02 -0.10174855311E+02 -0.20842448170E+01  0.51764728348E+02  0.41800000000E+01 0.  1.
         -5    1    1    2    0  502  0.16919100501E+02  0.91728204350E+02  0.64789597081E+02  0.11364630977E+03  0.41800000000E+01 0.  1.
        -11    1    1    2    0    0  0.15616289313E+02 -0.13646579092E+02  0.11048506381E+03  0.11241462065E+03  0.00000000000E+00 0.  1.
         11    1    1    2    0    0  0.18004128820E+02 -0.67906769948E+02  0.27477890215E+02  0.75435485748E+02  0.00000000000E+00 0. -1.
</event>
<event>
 6    1  0.4988969E-006  0.7077339E+02  0.7561462E-02  0.1357483E+00
          2   -1    0    0  501    0  0.00000000000E+00  0.00000000000E+00  0.13039054207E+03  0.13039054207E+03  0.00000000000E+00 0. -1.
         -2   -1    0    0    0  501 -0.00000000000E+00 -0.00000000000E+00 -0.10279449896E+03  0.10279449896E+03  0.00000000000E+00 0.  1.
          5    1    1    2  502    0  0.22296295358E+02 -0.43199052795E+02  0.63063050666E+02  0.79735209966E+02  0.41800000000E+01 0.  1.
         -5    1    1    2    0  502 -0.35344871708E+02  0.57377123410E+01 -0.39623635023E+02  0.53569451662E+02  0.41800000000E+01 0.  1.
        -11    1    1    2    0    0 -0.12122573505E+02  0.69066509468E+00 -0.37171681709E+02  0.39104574256E+02  0.00000000000E+00 0.  1.
         11    1    1    2    0    0  0.25171149855E+02  0.36770675359E+02  0.41328309183E+02  0.60775805147E+02  0.00000000000E+00 0. -1.
</event>
<event>
 6    1  0.4988969E-006  0.8795205E+02  0.7561462E-02  0.1307888E+00
          1   -1    0    0  501    0  0.00000000000E+00  0.00000000000E+00  0.30708285829E+02  0.30708285829E+02  0.00000000000E+00 0. -1.
         -1   -1    0    0    0  501 -0.00000000000E+00 -0.00000000000E+00 -0.44140550719E+03  0.44140550719E+03  0.00000000000E+00 0.  1.
          5    1    1    2  502    0  0.17301505309E+02  0.74565228444E+02 -0.14669168413E+03  0.16551506871E+03  0.41800000000E+01 0.  1.
         -5    1    1    2    0  502 -0.11076311290E+02 -0.47652073088E+02 -0.14459555116E+03  0.15270478236E+03  0.41800000000E+01 0.  1.
        -11    1    1    2    0    0 -0.18862027901E+02  0.16254808619E+01  0.95545817536E+01  0.21206327288E+02  0.00000000000E+00 0. -1.
         11    1    1    2    0    0  0.12636833882E+02 -0.28538636219E+02 -0.12896456783E+03  0.13268761465E+03  0.00000000000E+00 0.  1.
</event>
<event>
 6    1  0.4988969E-006  0.2260753E+03  0.7561462E-02  0.1129433E+00
          1   -1    0    0  501    0  0.00000000000E+00  0.00000000000E+00  0.75824412840E+02  0.75824412840E+02  0.00000000000E+00 0. -1.
         -1   -1    0    0    0  501 -0.00000000000E+00 -0.00000000000E+00 -0.88255554817E+03  0.88255554817E+03  0.00000000000E+00 0.  1.
          5    1    1    2  502    0  0.51516704569E+01  0.48983070158E-01 -0.16230833293E+03  0.16244386552E+03  0.41800000000E+01 0. -1.
         -5    1    1    2    0  502  0.19439073199E+03  0.93059305396E+02 -0.40394503544E+03  0.45786117444E+03  0.41800000000E+01 0. -1.
        -11    1    1    2    0    0 -0.52835170036E+02  0.56062595012E+01 -0.96031772058E+02  0.10975010972E+03  0.00000000000E+00 0.  1.
         11    1    1    2    0    0 -0.14670723242E+03 -0.98714547968E+02 -0.14444599490E+03  0.22832481132E+03  0.00000000000E+00 0. -1.
</event>
<event>
 6    1  0.4988969E-006  0.1174392E+03  0.7561462E-02  0.1247382E+00
          1   -1    0    0  501    0  0.00000000000E+00  0.00000000000E+00  0.32549839527E+03  0.32549839527E+03  0.00000000000E+00 0. -1.
         -1   -1    0    0    0  501 -0.00000000000E+00 -0.00000000000E+00 -0.10677885616E+03  0.10677885616E+03  0.00000000000E+00 0.  1.
          5    1    1    2  502    0 -0.79567851205E+01 -0.79629591639E+02 -0.44418145204E+02  0.91622193368E+02  0.41800000000E+01 0. -1.
         -5    1    1    2    0  502  0.61724797436E+02  0.57751252213E+01  0.19816645778E+02  0.65218667111E+02  0.41800000000E+01 0. -1.
        -11    1    1    2    0    0 -0.21275736154E+02  0.42126635046E+02  0.26942401042E+02  0.54343383251E+02  0.00000000000E+00 0.  1.
         11    1    1    2    0    0 -0.32492276161E+02  0.31727831372E+02  0.21637863749E+03  0.22109300770E+03  0.00000000000E+00 0. -1.
</event>
<event>
 6    1  0.4988969E-006  0.1562573E+03  0.7561462E-02  0.1192988E+00
         -2   -1    0    0    0  501 -0.00000000000E+00  0.00000000000E+00  0.56532870917E+02  0.56532870917E+02  0.00000000000E+00 0.  1.
          2   -1    0    0  501    0  0.00000000000E+00 -0.00000000000E+00 -0.66142217309E+03  0.66142217309E+03  0.00000000000E+00 0. -1.
          5    1    1    2  502    0  0.83719891390E+02 -0.56714580837E+02 -0.34011011177E+03  0.35484915728E+03  0.41800000000E+01 0. -1.
         -5    1    1    2    0  502 -0.10497292488E+03  0.54788709969E+02 -0.49690339560E+02  0.12848237211E+03  0.41800000000E+01 0.  1.
        -11    1    1    2    0    0 -0.23717850262E+02  0.31178402166E+02 -0.75021087915E+02  0.84633284319E+02  0.00000000000E+00 0.  1.
         11    1    1    2    0    0  0.44970883752E+02 -0.29252531297E+02 -0.14006776292E+03  0.14999023029E+03  0.00000000000E+00 0. -1.
</event>
<event>
 6    1  0.4988969E-006  0.1121015E+03  0.7561462E-02  0.1256727E+00
          1   -1    0    0  501    0  0.00000000000E+00  0.00000000000E+00  0.17171060276E+03  0.17171060276E+03  0.00000000000E+00 0.  1.
         -1   -1    0    0    0  501 -0.00000000000E+00 -0.00000000000E+00 -0.89890756345E+02  0.89890756345E+02  0.00000000000E+00 0. -1.
          5    1    1    2  502    0  0.36696669209E+02 -0.66498941648E+02 -0.19646872351E+02  0.78563520571E+02  0.41800000000E+01 0.  1.
         -5    1    1    2    0  502 -0.40281656352E+01  0.49428900710E+02  0.14831274042E+02  0.51931507137E+02  0.41800000000E+01 0.  1.
        -11    1    1    2    0    0 -0.55284787414E+02 -0.16674360859E+02  0.49105037397E+02  0.75800704002E+02  0.00000000000E+00 0. -1.
         11    1    1    2    0    0  0.22616283840E+02  0.33744401797E+02  0.37530407324E+02  0.55305627392E+02  0.00000000000E+00 0.  1.
</event>
<event>
 6    1  0.4988969E-006  0.1079329E+03  0.7561462E-02  0.1264446E+00
          2   -1    0    0  501    0  0.00000000000E+00  0.00000000000E+00  0.41326194351E+03  0.41326194351E+03  0.00000000000E+00 0. -1.
         -2   -1    0    0    0  501 -0.00000000000E+00 -0.00000000000E+00 -0.32660418424E+02  0.32660418424E+02  0.00000000000E+00 0.  1.
          5    1    1    2  502    0 -0.29155984544E+02  0.58045300448E+02  0.56484037350E+02  0.86181478371E+02  0.41800000000E+01 0. -1.
         -5    1    1    2    0  502  0.44132690559E+02 -0.35792617487E+02  0.10903239382E+03  0.12302171005E+03  0.41800000000E+01 0. -1.
        -11    1    1    2    0    0 -0.43730857865E+02 -0.40614775832E+02  0.97795264503E+02  0.11456815310E+03  0.00000000000E+00 0.  1.
         11    1    1    2    0    0  0.28754151850E+02  0.18362092871E+02  0.11728982941E+03  0.12215102041E+03  0.00000000000E+00 0. -1.
</event>
<event>
 6    1  0.4988969E-006  0.1732104E+03  0.7561462E-02  0.1174541E+00
          1   -1    0    0  501    0  0.00000000000E+00  0.00000000000E+00  0.50038191421E+03  0.50038191421E+03  0.00000000000E+00 0. -1.
         -1   -1    0    0    0  501 -0.00000000000E+00 -0.00000000000E+00 -0.65753467826E+02  0.65753467826E+02  0.00000000000E+00 0.  1.
          5    1    1    2  502    0 -0.15769488309E+02 -0.16795342103E+02  0.45230577420E+02  0.50931697514E+02  0.41800000000E+01 0. -1.
         -5    1    1    2    0  502  0.15397308125E+03  0.53052340462E+02  0.15063708861E+03  0.22188119669E+03  0.41800000000E+01 0. -1.
        -11    1    1    2    0    0 -0.99447392643E+02  0.97692511990E+01  0.96744100331E+02  0.13908502120E+03  0.00000000000E+00 0.  1.
         11    1    1    2    0    0 -0.38756200300E+02 -0.46026249558E+02  0.14201668002E+03  0.15423746664E+03  0.00000000000E+00 0. -1.
</event>
<event>
 6    1  0.4988969E-006  0.9491499E+02  0.7561462E-02  0.1291368E+00
         -1   -1    0    0    0  501 -0.00000000000E+00  0.00000000000E+00  0.50369257789E+02  0.50369257789E+02  0.00000000000E+00 0.  1.
          1   -1    0    0  501    0  0.00000000000E+00 -0.00000000000E+00 -0.32439322937E+03  0.32439322937E+03  0.00000000000E+00 0. -1.
          5    1    1    2  502    0 -0.44052858197E+02 -0.70660759858E+01 -0.15041950523E+02  0.47268556364E+02  0.41800000000E+01 0.  1.
         -5    1    1    2    0  502  0.82444803194E+02  0.23281890035E+02 -0.56908694688E+02  0.10293329835E+03  0.41800000000E+01 0.  1.
        -11    1    1    2    0    0 -0.17454736897E+02 -0.29624894488E+02 -0.19596433827E+03  0.19895809631E+03  0.00000000000E+00 0. -1.
         11    1    1    2    0    0 -0.20937208100E+02  0.13409080439E+02 -0.61089881006E+01  0.25602536141E+02  0.00000000000E+00 0.  1.
</event>
<event>
 6    1  0.4988969E-006  0.1231603E+03  0.7561462E-02  0.1237973E+00
         -2   -1    0    0    0  501 -0.00000000000E+00  0.00000000000E+00  0.45227816440E+02  0.45227816440E+02  0.00000000000E+00 0.  1.
          2   -1    0    0  501    0  0.00000000000E+00 -0.00000000000E+00 -0.45268232874E+03  0.45268232874E+03  0.00000000000E+00 0. -1.
          5    1    1    2  502    0  0.96363700428E+02  0.13958831105E+02 -0.60171377154E+02  0.11453767395E+03  0.41800000000E+01 0.  1.
         -5    1    1    2    0  502 -0.20645734784E+02  0.24574572954E+01 -0.10307399490E+03  0.10523310451E+03  0.41800000000E+01 0.  1.
        -11    1    1    2    0    0 -0.38454500544E+02  0.42894974456E+02 -0.71866059239E+02  0.92105688837E+02  0.00000000000E+00 0. -1.
         11    1    1    2    0    0 -0.37263465101E+02 -0.59311262856E+02 -0.17234308101E+03  0.18603367788E+03  0.00000000000E+00 0.  1.
</event>
<event>
 6    1  0.4988969E-006  0.1045401E+03  0.7561462E-02  0.1271028E+00
         -2   -1    0    0    0  501 -0.00000000000E+00  0.00000000000E+00  0.43996770302E+02  0.43996770302E+02  0.00000000000E+00 0.  1.
          2   -1    0    0  501    0  0.00000000000E+00 -0.00000000000E+00 -0.64191601993E+03  0.64191601993E+03  0.00000000000E+00 0. -1.
          5    1    1    2  502    0 -0.25243981425E+02  0.36622588239E+02  0.17662070371E+02  0.48040542225E+02  0.41800000000E+01 0. -1.
         -5    1    1    2    0  502 -0.14034393234E+02 -0.14715273919E+02 -0.11459748020E+03  0.11646269080E+03  0.41800000000E+01 0. -1.
        -11    1    1    2    0    0  0.82578027504E+02  0.18270957194E+02 -0.26639272735E+03  0.27949605308E+03  0.00000000000E+00 0.  1.
         11    1    1    2    0    0 -0.43299652844E+02 -0.40178271514E+02 -0.23459111244E+03  0.24191350412E+03  0.00000000000E+00 0. -1.
</event>
<event>
 6    1  0.4988969E-006  0.1179263E+03  0.7561462E-02  0.1246558E+00
          2   -1    0    0  501    0  0.00000000000E+00  0.00000000000E+00  0.21007283432E+03  0.21007283432E+03  0.00000000000E+00 0. -1.
         -2   -1    0    0    0  501 -0.00000000000E+00 -0.00000000000E+00 -0.69604674371E+02  0.69604674371E+02  0.00000000000E+00 0.  1.
          5    1    1    2  502    0 -0.26344409122E+02 -0.35516626137E+02  0.47338793108E+01  0.44669235918E+02  0.41800000000E+01 0. -1.
         -5    1    1    2    0  502  0.15991181980E+02  0.85717337764E+02  0.54572322284E+02  0.10295042814E+03  0.41800000000E+01 0. -1.
        -11    1    1    2    0    0 -0.79552453141E+01  0.25262880455E+02  0.22132813660E+02  0.34516090413E+02  0.00000000000E+00 0.  1.
         11    1    1    2    0    0  0.18308472456E+02 -0.75463592081E+02  0.59029144697E+02  0.97541754224E+02  0.00000000000E+00 0. -1.
</event>
<event>
 6    1  0.4988969E-006  0.1031614E+03  0.7561462E-02  0.1273785E+00
         -3   -1    0    0    0  501 -0.00000000000E+00  0.00000000000E+00  0.99534413860E+02  0.99534413860E+02  0.00000000000E+00 0.  1.
          3   -1    0    0  501    0  0.00000000000E+00 -0.00000000000E+00 -0.20033314112E+03  0.20033314112E+03  0.00000000000E+00 0. -1.
          5    1    1    2  502    0  0.94073386823E+01  0.20533138851E+02 -0.47772752797E+02  0.53007698704E+02  0.41800000000E+01 0. -1.
         -5    1    1    2    0  502 -0.61644428803E+02 -0.69353442942E+02  0.16738409273E+02  0.94379989379E+02  0.41800000000E+01 0. -1.
        -11    1    1    2    0    0  0.30527564485E+01 -0.11924811511E+02  0.26060387199E+02  0.28821246199E+02  0.00000000000E+00 0.  1.
         11    1    1    2    0    0  0.49184333672E+02  0.60745115602E+02 -0.95824770939E+02  0.12365862070E+03  0.00000000000E+00 0. -1.
</event>
<event>
 6    1  0.4988969E-006  0.1230169E+03  0.7561462E-02  0.1238201E+00
          2   -1    0    0  501    0  0.00000000000E+00  0.00000000000E+00  0.44056919443E+03  0.44056919443E+03  0.00000000000E+00 0. -1.
         -2   -1    0    0    0  501 -0.00000000000E+00 -0.00000000000E+00 -0.75109048933E+02  0.75109048933E+02  0.00000000000E+00 0.  1.
          5    1    1    2  502    0  0.40342906621E+02  0.10065058262E+02 -0.20969857234E+02  0.46755350762E+02  0.41800000000E+01 0. -1.
         -5    1    1    2    0  502 -0.10267892400E+03  0.10607711688E+02  0.48913287102E+02  0.11430427392E+03  0.41800000000E+01 0.  1.
        -11    1    1    2    0    0  0.56777188680E+02 -0.47198206421E+02  0.29577037297E+03  0.30484657349E+03  0.00000000000E+00 0. -1.
         11    1    1    2    0    0  0.55588287029E+01  0.26525436470E+02  0.41746342664E+02  0.49772045189E+02  0.00000000000E+00 0.  1.
</event>
<event>
 6    1  0.4988969E-006  0.3720407E+03  0.7561462E-02  0.1053915E+00
          2   -1    0    0  501    0  0.00000000000E+00  0.00000000000E+00  0.33871973670E+03  0.33871973670E+03  0.00000000000E+00 0.  1.
         -2   -1    0    0    0  501 -0.00000000000E+00 -0.00000000000E+00 -0.45516733373E+03  0.45516733373E+03  0.00000000000E+00 0. -1.
          5    1    1    2  502    0  0.40756518929E+02 -0.10736744519E+02  0.14982218926E+01  0.42380285356E+02  0.41800000000E+01 0.  1.
         -5    1    1    2    0  502  0.26040998791E+03  0.21004979353E+03 -0.17021914332E+03  0.37540152732E+03  0.41800000000E+01 0.  1.
        -11    1    1    2    0    0 -0.21265526876E+03 -0.10285916800E+03  0.30453601908E+01  0.23624467400E+03  0.00000000000E+00 0.  1.
         11    1    1    2    0    0 -0.88511238079E+02 -0.96453881010E+02  0.49227964209E+02  0.13986058375E+03  0.00000000000E+00 0. -1.
</event>
<event>
 6    1  0.4988969E-006  0.1472842E+03  0.7561462E-02  0.1203850E+00
         -1   -1    0    0    0  501 -0.00000000000E+00  0.00000000000E+00  0.18954842238E+03  0.18954842238E+03  0.00000000000E+00 0.  1.
          1   -1    0    0  501    0  0.00000000000E+00 -0.00000000000E+00 -0.15461135793E+03  0.15461135793E+03  0.00000000000E+00 0. -1.
          5    1    1    2  502    0  0.85378382185E+02 -0.44100141755E+02  0.72603928442E+02  0.12051179806E+03  0.41800000000E+01 0.  1.
         -5    1    1    2    0  502  0.45194676669E+02  0.30898920146E+02 -0.34377179519E+02  0.64780899477E+02  0.41800000000E+01 0.  1.
        -11    1    1    2    0    0 -0.13802023511E+02  0.22434165238E+02  0.27164127384E+02  0.37837513653E+02  0.00000000000E+00 0.  1.
         11    1    1    2    0    0 -0.11677103534E+03 -0.92329436284E+01 -0.30453811860E+02  0.12102956911E+03  0.00000000000E+00 0. -1.
</event>
<event>
 6    1  0.4988969E-006  0.1323910E+03  0.7561462E-02  0.1223950E+00
          1   -1    0    0  501    0  0.00000000000E+00  0.00000000000E+00  0.39006944557E+03  0.39006944557E+03  0.00000000000E+00 0. -1.
         -1   -1    0    0    0  501 -0.00000000000E+00 -0.00000000000E+00 -0.75681160025E+02  0.75681160025E+02  0.00000000000E+00 0.  1.
          5    1    1    2  502    0  0.72047113267E+02  0.10582642781E+02 -0.12470402814E+02  0.73998393258E+02  0.41800000000E+01 0.  1.
         -5    1    1    2    0  502 -0.24844280187E+02  0.62478801397E+02  0.47246912554E+02  0.82283546520E+02  0.41800000000E+01 0.  1.
        -11    1    1    2    0    0 -0.10055122352E+02  0.21033078723E+02  0.10600455755E+03  0.10853783722E+03  0.00000000000E+00 0. -1.
         11    1    1    2    0    0 -0.37147710728E+02 -0.94094522901E+02  0.17360721826E+03  0.20093082860E+03  0.00000000000E+00 0.  1.
</event>
<event>
 6    1  0.4988969E-006  0.1300361E+03  0.7561462E-02  0.1227402E+00
         -1   -1    0    0    0  501 -0.00000000000E+00  0.00000000000E+00  0.15304624915E+03  0.15304624915E+03  0.00000000000E+00 0.  1.
          1   -1    0    0  501    0  0.00000000000E+00 -0.00000000000E+00 -0.15484295014E+03  0.15484295014E+03  0.00000000000E+00 0. -1.
          5    1    1    2  502    0 -0.15264568766E+02  0.29440906937E+02  0.38970691006E+01  0.33651650903E+02  0.41800000000E+01 0. -1.
         -5    1    1    2    0  502  0.10284737516E+03 -0.67408806689E+02  0.47334013972E+02  0.13183137364E+03  0.41800000000E+01 0. -1.
        -11    1    1    2    0    0 -0.21954376362E+02  0.30463589723E+02  0.21136054102E+02  0.43090111665E+02  0.00000000000E+00 0.  1.
         11    1    1    2    0    0 -0.65628430030E+02  0.75043100282E+01 -0.74163838156E+02  0.99316063087E+02  0.00000000000E+00 0. -1.
</event>
<event>
 6    1  0.4988969E-006  0.9038114E+02  0.7561462E-02  0.1301931E+00
          2   -1    0    0  501    0  0.00000000000E+00  0.00000000000E+00  0.12988774147E+03  0.12988774147E+03  0.00000000000E+00 0. -1.
         -2   -1    0    0    0  501 -0.00000000000E+00 -0.00000000000E+00 -0.11577300248E+03  0.11577300248E+03  0.00000000000E+00 0.  1.
          5    1    1    2  502    0  0.96598515845E+01  0.15352531519E+02 -0.46441903913E+02  0.50033346837E+02  0.41800000000E+01 0. -1.
         -5    1    1    2    0  502  0.26922395144E+02 -0.59963278316E+02  0.58774559659E+02  0.88274182918E+02  0.41800000000E+01 0. -1.
        -11    1    1    2    0    0 -0.38081620437E+02 -0.11789951018E+02  0.24207539619E+02  0.46639229566E+02  0.00000000000E+00 0. -1.
         11    1    1    2    0    0  0.14993737088E+01  0.56400697815E+02 -0.22425456377E+02  0.60713984627E+02  0.00000000000E+00 0.  1.
</event>
<event>
 6    1  0.4988969E-006  0.8794408E+02  0.7561462E-02  0.1307908E+00
         -1   -1    0    0    0  501 -0.00000000000E+00  0.00000000000E+00  0.33263046427E+03  0.33263046427E+03  0.00000000000E+00 0.  1.
          1   -1    0    0  501    0  0.00000000000E+00 -0.00000000000E+00 -0.40344646805E+02  0.40344646805E+02  0.00000000000E+00 0. -1.
          5    1    1    2  502    0 -0.56085850420E+02  0.37387662833E+01  0.70025521403E+02  0.89892419248E+02  0.41800000000E+01 0. -1.
         -5    1    1    2    0  502  0.65512232702E+02  0.32311757290E+02  0.12310848736E+03  0.14320989615E+03  0.41800000000E+01 0. -1.
        -11    1    1    2    0    0  0.86679878267E+01 -0.21350129246E+02  0.11124726004E+03  0.11360860397E+03  0.00000000000E+00 0.  1.
         11    1    1    2    0    0 -0.18094370109E+02 -0.14700394327E+02 -0.12095451335E+02  0.26264191707E+02  0.00000000000E+00 0. -1.
</event>
<event>
 6    1  0.4988969E-006  0.1372688E+03  0.7561462E-02  0.1217052E+00
         -3   -1    0    0    0  501 -0.00000000000E+00  0.00000000000E+00  0.26880238242E+03  0.26880238242E+03  0.00000000000E+00 0.  1.
          3   -1    0    0  501    0  0.00000000000E+00 -0.00000000000E+00 -0.77879444271E+02  0.77879444271E+02  0.00000000000E+00 0. -1.
          5    1    1    2  502    0 -0.95185932043E+02 -0.48123725131E+02  0.10799700370E+03  0.15184557876E+03  0.41800000000E+01 0.  1.
         -5    1    1    2    0  502  0.50940555085E+01  0.44258117450E+02  0.22097928273E+02  0.49905121939E+02  0.41800000000E+01 0.  1.
        -11    1    1    2    0    0 -0.41255943693E+01 -0.24351206194E+02 -0.67452446091E+01  0.25602736120E+02  0.00000000000E+00 0. -1.
         11    1    1    2    0    0  0.94217470904E+02  0.28216813875E+02  0.67573250781E+02  0.11932838987E+03  0.00000000000E+00 0.  1.
</event>
<event>
 6    1  0.5169480E-006  0.8045189E+02  0.7561462E-02  0.1327774E+00
         -2   -1    0    0    0  501 -0.00000000000E+00  0.00000000000E+00  0.61884802250E+02  0.61884802250E+02  0.00000000000E+00 0.  1.
          2   -1    0    0  501    0  0.00000000000E+00 -0.00000000000E+00 -0.16429552218E+03  0.16429552218E+03  0.00000000000E+00 0. -1.
          5    1    1    2  502    0  0.41701882969E+02  0.61488987296E+02 -0.39046624376E+01  0.74516182072E+02  0.41800000000E+01 0. -1.
         -5    1    1    2    0  502 -0.99413129613E+01 -0.49510467717E+02 -0.32183758207E+02  0.60028183458E+02  0.41800000000E+01 0. -1.
        -11    1    1    2    0    0 -0.22588415935E+02 -0.26620073388E+01  0.12803302205E+01  0.22780738860E+02  0.00000000000E+00 0.  1.
         11    1    1    2    0    0 -0.91721540725E+01 -0.93165122405E+01 -0.67602629505E+02  0.68855220039E+02  0.00000000000E+00 0. -1.
</event>
<event>
 6    1  0.4988969E-006  0.9585596E+02  0.7561462E-02  0.1289260E+00
          3   -1    0    0  501    0  0.00000000000E+00  0.00000000000E+00  0.49736396116E+03  0.49736396116E+03  0.00000000000E+00 0. -1.
         -3   -1    0    0    0  501 -0.00000000000E+00 -0.00000000000E+00 -0.29276315964E+02  0.29276315964E+02  0.00000000000E+00 0.  1.
          5    1    1    2  502    0  0.36362582689E+02  0.20378090901E+02  0.18159505981E+03  0.18636454103E+03  0.41800000000E+01 0. -1.
         -5    1    1    2    0  502 -0.45567274096E+02  0.25968513896E+02  0.21581725095E+02  0.56868123238E+02  0.41800000000E+01 0. -1.
        -11    1    1    2    0    0 -0.37199709408E+02 -0.30708153962E+02  0.94481952640E+02  0.10608321486E+03  0.00000000000E+00 0.  1.
         11    1    1    2    0    0  0.46404400815E+02 -0.15638450835E+02  0.17042890765E+03  0.17732439799E+03  0.00000000000E+00 0. -1.
</event>
<event>
 6    1  0.4988969E-006  0.9156464E+02  0.7561462E-02  0.1299106E+00
         -2   -1    0    0    0  501 -0.00000000000E+00  0.00000000000E+00  0.90215659961E+03  0.90215659961E+03  0.00000000000E+00 0.  1.
          2   -1    0    0  501    0  0.00000000000E+00 -0.00000000000E+00 -0.67138116026E+02  0.67138116026E+02  0.00000000000E+00 0. -1.
          5    1    1    2  502    0  0.11130724005E+02 -0.34098987310E+02  0.64461909165E+02  0.73888051035E+02  0.41800000000E+01 0.  1.
         -5    1    1    2    0  502  0.48063031827E+02  0.24407235513E+02  0.78199805069E+03  0.78386490664E+03  0.41800000000E+01 0.  1.
        -11    1    1    2    0    0  0.11665919330E+02  0.18161812714E+02  0.23647306351E+02  0.32017810864E+02  0.00000000000E+00 0. -1.
         11    1    1    2    0    0 -0.70859675162E+02 -0.84700609162E+01 -0.35088782625E+02  0.79523947098E+02  0.00000000000E+00 0.  1.
</event>
<event>
 6    1  0.4988969E-006  0.1040821E+03  0.7561462E-02  0.1271939E+00
         -2   -1    0    0    0  501 -0.00000000000E+00  0.00000000000E+00  0.25139479257E+02  0.25139479257E+02  0.00000000000E+00 0.  1.
          2   -1    0    0  501    0  0.00000000000E+00 -0.00000000000E+00 -0.67814640376E+03  0.67814640376E+03  0.00000000000E+00 0. -1.
          5    1    1    2  502    0 -0.17896851155E+02 -0.70030858870E+01 -0.21747300293E+03  0.21836052733E+03  0.41800000000E+01 0.  1.
         -5    1    1    2    0  502  0.43986979104E+02  0.72401035531E+02 -0.10769369113E+03  0.13708452789E+03  0.41800000000E+01 0.  1.
        -11    1    1    2    0    0  0.64015800205E+01  0.15353539413E+02 -0.12778201874E+02  0.20976030187E+02  0.00000000000E+00 0.  1.
         11    1    1    2    0    0 -0.32491707970E+02 -0.80751489057E+02 -0.31506202857E+03  0.32686479762E+03  0.00000000000E+00 0. -1.
</event>
<event>
 6    1  0.4988969E-006  0.9516399E+02  0.7561462E-02  0.1290807E+00
         -1   -1    0    0    0  501 -0.00000000000E+00  0.00000000000E+00  0.56201511958E+02  0.56201511958E+02  0.00000000000E+00 0.  1.
          1   -1    0    0  501    0  0.00000000000E+00 -0.00000000000E+00 -0.20107591947E+03  0.20107591947E+03  0.00000000000E+00 0. -1.
          5    1    1    2  502    0  0.13529751032E+02 -0.67449749486E+02 -0.59781460764E+02  0.91234962157E+02  0.41800000000E+01 0. -1.
         -5    1    1    2    0  502  0.70497743388E+01  0.41260283164E+02 -0.86697904088E+01  0.42950529109E+02  0.41800000000E+01 0.  1.
        -11    1    1    2    0    0  0.25954502980E+01  0.47671084201E+02 -0.78002259042E+02  0.91452835094E+02  0.00000000000E+00 0.  1.
         11    1    1    2    0    0 -0.23174975669E+02 -0.21481617879E+02  0.15791027050E+01  0.31639105065E+02  0.00000000000E+00 0. -1.
</event>
<event>
 6    1  0.4988969E-006  0.1606570E+03  0.7561462E-02  0.1187957E+00
         -2   -1    0    0    0  501 -0.00000000000E+00  0.00000000000E+00  0.70949705203E+03  0.70949705203E+03  0.00000000000E+00 0. -1.
          2   -1    0    0  501    0  0.00000000000E+00 -0.00000000000E+00 -0.55419974503E+02  0.55419974503E+02  0.00000000000E+00 0.  1.
          5    1    1    2  502    0  0.98811377127E+02  0.74568655156E+02  0.20285523299E+03  0.23768022747E+03  0.41800000000E+01 0. -1.
         -5    1    1    2    0  502  0.79969061426E+01  0.22581972940E+02  0.28817027820E+03  0.28919453253E+03  0.41800000000E+01 0. -1.
        -11    1    1    2    0    0 -0.91485781522E+02 -0.11670678243E+03  0.14434118102E+03  0.20694080754E+03  0.00000000000E+00 0. -1.
         11    1    1    2    0    0 -0.15322501748E+02  0.19556154338E+02  0.18710385321E+02  0.31101458988E+02  0.00000000000E+00 0.  1.
</event>
<event>
 6    1  0.4988969E-006  0.1442049E+03  0.7561462E-02  0.1207780E+00
         -2   -1    0    0    0  501 -0.00000000000E+00  0.00000000000E+00  0.36936941332E+03  0.36936941332E+03  0.00000000000E+00 0.  1.
          2   -1    0    0  501    0  0.00000000000E+00 -0.00000000000E+00 -0.61549600141E+02  0.61549600141E+02  0.00000000000E+00 0. -1.
          5    1    1    2  502    0 -0.27091971695E+02  0.40137220624E+02  0.57180033115E+02  0.75046652136E+02  0.41800000000E+01 0. -1.
         -5    1    1    2    0  502  0.10624237245E+03  0.99224979665E+01  0.16693051578E+03  0.19816449523E+03  0.41800000000E+01 0. -1.
        -11    1    1    2    0    0  0.66323062697E+01 -0.46701205864E+02  0.37178384432E+02  0.60060156381E+02  0.00000000000E+00 0.  1.
         11    1    1    2    0    0 -0.85782707027E+02 -0.33585127268E+01  0.46530879848E+02  0.97647709712E+02  0.00000000000E+00 0. -1.
</event>
<event>
 6    1  0.4988969E-006  0.1021740E+03  0.7561462E-02  0.1275790E+00
         -2   -1    0    0    0  501 -0.00000000000E+00  0.00000000000E+00  0.10223709979E+04  0.10223709979E+04  0.00000000000E+00 0. -1.
          2   -1    0    0  501    0  0.00000000000E+00 -0.00000000000E+00 -0.40685913249E+02  0.40685913249E+02  0.00000000000E+00 0.  1.
          5    1    1    2  502    0 -0.90666060766E+01  0.46705832585E+02  0.22625589089E+03  0.23124194842E+03  0.41800000000E+01 0. -1.
         -5    1    1    2    0  502  0.67375005495E+02 -0.52672583204E+02  0.71099054896E+03  0.71612766005E+03  0.41800000000E+01 0. -1.
        -11    1    1    2    0    0 -0.34287801820E+02  0.23201688889E+02 -0.19110371670E+02  0.45598004631E+02  0.00000000000E+00 0.  1.
         11    1    1    2    0    0 -0.24020597598E+02 -0.17234938269E+02  0.63549016434E+02  0.70089298012E+02  0.00000000000E+00 0. -1.
</event>
<event>
 6    1  0.4988969E-006  0.1093978E+03  0.7561462E-02  0.1261689E+00
         -1   -1    0    0    0  501 -0.00000000000E+00  0.00000000000E+00  0.36678699168E+02  0.36678699168E+02  0.00000000000E+00 0.  1.
          1   -1    0    0  501    0  0.00000000000E+00 -0.00000000000E+00 -0.34617103690E+03  0.34617103690E+03  0.00000000000E+00 0. -1.
          5    1    1    2  502    0  0.52770822439E+01 -0.46892388123E+02 -0.67272103056E+02  0.82278502116E+02  0.41800000000E+01 0. -1.
         -5    1    1    2    0  502 -0.29961305292E+02  0.73872030972E+02 -0.88446210205E+02  0.11914260898E+03  0.41800000000E+01 0.  1.
        -11    1    1    2    0    0  0.66359371103E+01 -0.56558143570E+02 -0.12101644655E+03  0.13374542834E+03  0.00000000000E+00 0. -1.
         11    1    1    2    0    0  0.18048285938E+02  0.29578500721E+02 -0.32757577921E+02  0.47683196636E+02  0.00000000000E+00 0.  1.
</event>
<event>
 6    1  0.4988969E-006  0.1502767E+03  0.7561462E-02  0.1200133E+00
         -1   -1    0    0    0  501 -0.00000000000E+00  0.00000000000E+00  0.15834965651E+03  0.15834965651E+03  0.00000000000E+00 0.  1.
          1   -1    0    0  501    0  0.00000000000E+00 -0.00000000000E+00 -0.25069301759E+03  0.25069301759E+03  0.00000000000E+00 0. -1.
          5    1    1    2  502    0 -0.14456072759E+03  0.11538479432E+02 -0.30790273100E+01  0.14511338077E+03  0.41800000000E+01 0.  1.
         -5    1    1    2    0  502  0.35093902000E+01 -0.12175507594E+02  0.46462163886E+02  0.48340085619E+02  0.41800000000E+01 0.  1.
        -11    1    1    2    0    0  0.11242574143E+03 -0.65482022393E+01 -0.14595716771E+03  0.18435270840E+03  0.00000000000E+00 0. -1.
         11    1    1    2    0    0  0.28625595960E+02  0.71852304019E+01  0.10230670056E+02  0.31236499320E+02  0.00000000000E+00 0.  1.
</event>
<event>
 6    1  0.4988969E-006  0.1267040E+03  0.7561462E-02  0.1232430E+00
          2   -1    0    0  501    0  0.00000000000E+00  0.00000000000E+00  0.26904485764E+03  0.26904485764E+03  0.00000000000E+00 0.  1.
         -2   -1    0    0    0  501 -0.00000000000E+00 -0.00000000000E+00 -0.68029486692E+02  0.68029486692E+02  0.00000000000E+00 0. -1.
          5    1    1    2  502    0 -0.35413126586E+02  0.96779173095E+01 -0.54647773976E+01  0.37350874287E+02  0.41800000000E+01 0. -1.
         -5    1    1    2    0  502  0.50971913250E+02 -0.83512424403E+02  0.81123391885E+02  0.12716500337E+03  0.41800000000E+01 0. -1.
        -11    1    1    2    0    0 -0.41567728322E+02  0.81438189038E+02  0.94505697766E+02  0.13149669799E+03  0.00000000000E+00 0.  1.
         11    1    1    2    0    0  0.26008941658E+02 -0.76036819444E+01  0.30851058690E+02  0.41061768685E+02  0.00000000000E+00 0. -1.
</event>
<event>
 6    1  0.4988969E-006  0.1347608E+03  0.7561462E-02  0.1220558E+00
          1   -1    0    0  501    0  0.00000000000E+00  0.00000000000E+00  0.77181196995E+03  0.77181196995E+03  0.00000000000E+00 0. -1.
         -1   -1    0    0    0  501 -0.00000000000E+00 -0.00000000000E+00 -0.32501012486E+02  0.32501012486E+02  0.00000000000E+00 0.  1.
          5    1    1    2  502    0  0.57661824967E+02 -0.10083897152E+03  0.15116259298E+03  0.19068556881E+03  0.41800000000E+01 0.  1.
         -5    1    1    2    0  502  0.16764055575E+02  0.18573885214E+02  0.16523638040E+03  0.16717223627E+03  0.41800000000E+01 0.  1.
        -11    1    1    2    0    0  0.22779848611E+01  0.40532470832E+02  0.24418952402E+03  0.24754109567E+03  0.00000000000E+00 0. -1.
         11    1    1    2    0    0 -0.76703865404E+02  0.41732615470E+02  0.17872246007E+03  0.19891408169E+03  0.00000000000E+00 0.  1.
</event>
<event>
 6    1  0.4988969E-006  0.2037060E+03  0.7561462E-02  0.1146649E+00
         -2   -1    0    0    0  501 -0.00000000000E+00  0.00000000000E+00  0.26797854011E+02  0.26797854011E+02  0.00000000000E+00 0. -1.
          2   -1    0    0  501    0  0.00000000000E+00 -0.00000000000E+00 -0.17948272856E+04  0.17948272856E+04  0.00000000000E+00 0.  1.
          5    1    1    2  502    0 -0.10929231507E+02  0.20853924818E+02 -0.16542852915E+03  0.16714785353E+03  0.41800000000E+01 0. -1.
         -5    1    1    2    0  502  0.18038380248E+03  0.33897650826E+02 -0.47486542714E+03  0.50911885962E+03  0.41800000000E+01 0. -1.
        -11    1    1    2    0    0 -0.16235225229E+03 -0.18999740421E+02 -0.94274616770E+03  0.95681219718E+03  0.00000000000E+00 0.  1.
         11    1    1    2    0    0 -0.71023186808E+01 -0.35751835222E+02 -0.18498930760E+03  0.18854622929E+03  0.00000000000E+00 0. -1.
</event>
<event>
 6    1  0.4988969E-006  0.1331170E+03  0.7561462E-02  0.1222903E+00
         -4   -1    0    0    0  501 -0.00000000000E+00  0.00000000000E+00  0.40310042406E+03  0.40310042406E+03  0.00000000000E+00 0. -1.
          4   -1    0    0  501    0  0.00000000000E+00 -0.00000000000E+00 -0.58424281759E+02  0.58424281759E+02  0.00000000000E+00 0.  1.
          5    1    1    2  502    0 -0.53356354199E+02 -0.14287878139E+02  0.96132791489E+02  0.11095057456E+03  0.41800000000E+01 0. -1.
         -5    1    1    2    0  502  0.64669445366E+02 -0.71494455561E+02  0.18945171553E+03  0.21261001683E+03  0.41800000000E+01 0. -1.
        -11    1    1    2    0    0 -0.37629170595E+02  0.78481051240E+02  0.66653639161E+02  0.10962635402E+03  0.00000000000E+00 0.  1.
         11    1    1    2    0    0  0.26316079428E+02  0.73012824597E+01 -0.75620038809E+01  0.28337760404E+02  0.00000000000E+00 0. -1.
</event>
<event>
 6    1  0.4988969E-006  0.7442658E+02  0.7561462E-02  0.1345656E+00
         -3   -1    0    0    0  501 -0.00000000000E+00  0.00000000000E+00  0.18665832591E+03  0.18665832591E+03  0.00000000000E+00 0.  1.
          3   -1    0    0  501    0  0.00000000000E+00 -0.00000000000E+00 -0.68521212331E+02  0.68521212331E+02  0.00000000000E+00 0. -1.
          5    1    1    2  502    0  0.42387347614E+01  0.18290814284E+02 -0.29413426193E+02  0.35144598446E+02  0.41800000000E+01 0.  1.
         -5    1    1    2    0  502  0.36183218499E+01 -0.50827984629E+02  0.10006047412E+03  0.11236612993E+03  0.41800000000E+01 0.  1.
        -11    1    1    2    0    0 -0.31029636762E+02  0.43031276474E+02  0.59347349213E+02  0.79602995994E+02  0.00000000000E+00 0.  1.
         11    1    1    2    0    0  0.23172580151E+02 -0.10494106129E+02 -0.11857283567E+02  0.28065813864E+02  0.00000000000E+00 0. -1.
</event>
<event>
 6    1  0.4988969E-006  0.1478882E+03  0.7561462E-02  0.1203092E+00
          3   -1    0    0  501    0  0.00000000000E+00  0.00000000000E+00  0.48928851319E+02  0.48928851319E+02  0.00000000000E+00 0. -1.
         -3   -1    0    0    0  501 -0.00000000000E+00 -0.00000000000E+00 -0.51145769633E+03  0.51145769633E+03  0.00000000000E+00 0.  1.
          5    1    1    2  502    0 -0.13411727170E+03  0.48479376163E+01 -0.21790580943E+03  0.25595186902E+03  0.41800000000E+01 0. -1.
         -5    1    1    2    0  502  0.24500336657E+02  0.90944453842E+01 -0.95829479145E+02  0.99416984999E+02  0.41800000000E+01 0. -1.
        -11    1    1    2    0    0 -0.72962344516E+01 -0.16562113514E+02 -0.33736029094E+01  0.18409775605E+02  0.00000000000E+00 0. -1.
         11    1    1    2    0    0  0.11691316949E+03  0.26197305134E+01 -0.14541995352E+03  0.18660791803E+03  0.00000000000E+00 0.  1.
</event>
<event>
 6    1  0.4988969E-006  0.6730904E+02  0.7561462E-02  0.1369490E+00
          2   -1    0    0  501    0  0.00000000000E+00  0.00000000000E+00  0.40624651013E+02  0.40624651013E+02  0.00000000000E+00 0. -1.
         -2   -1    0    0    0  501 -0.00000000000E+00 -0.00000000000E+00 -0.37148013200E+03  0.37148013200E+03  0.00000000000E+00 0.  1.
          5    1    1    2  502    0  0.52162795897E+01 -0.15686350234E+02  0.12263994857E+02  0.21003550325E+02  0.41800000000E+01 0.  1.
         -5    1    1    2    0  502 -0.50402889093E+02 -0.16631287916E+02 -0.23081381607E+03  0.23687452597E+03  0.41800000000E+01 0.  1.
        -11    1    1    2    0    0  0.20394468296E+02 -0.35735961639E+01 -0.10847947719E+03  0.11043777388E+03  0.00000000000E+00 0.  1.
         11    1    1    2    0    0  0.24792141207E+02  0.35891234313E+02 -0.38261825849E+01  0.43788932840E+02  0.00000000000E+00 0. -1.
</event>
<event>
 6    1  0.4988969E-006  0.1243668E+03  0.7561462E-02  0.1236062E+00
          2   -1    0    0  501    0  0.00000000000E+00  0.00000000000E+00  0.64993842725E+03  0.64993842725E+03  0.00000000000E+00 0. -1.
         -2   -1    0    0    0  501 -0.00000000000E+00 -0.00000000000E+00 -0.32654906610E+02  0.32654906610E+02  0.00000000000E+00 0.  1.
          5    1    1    2  502    0 -0.51697376631E+02  0.19346542706E+02  0.51575127499E+02  0.75659590547E+02  0.41800000000E+01 0.  1.
         -5    1    1    2    0  502  0.43690679400E+02  0.76088491311E+02  0.24324078631E+03  0.25861532535E+03  0.41800000000E+01 0.  1.
        -11    1    1    2    0    0 -0.18420316931E+02 -0.44297664914E+02  0.47944130664E+02  0.67825001716E+02  0.00000000000E+00 0.  1.
         11    1    1    2    0    0  0.26427014162E+02 -0.51137369103E+02  0.27452347616E+03  0.28049341625E+03  0.00000000000E+00 0. -1.
</event>
<event>
 6    1  0.4988969E-006  0.8438150E+02  0.7561462E-02  0.1317058E+00
          3   -1    0    0  501    0  0.00000000000E+00  0.00000000000E+00  0.17888130407E+03  0.17888130407E+03  0.00000000000E+00 0. -1.
         -3   -1    0    0    0  501 -0.00000000000E+00 -0.00000000000E+00 -0.74817232080E+02  0.74817232080E+02  0.00000000000E+00 0.  1.
          5    1    1    2  502    0 -0.22366566866E+02 -0.17703332406E+02 -0.39428458018E+02  0.48844109095E+02  0.41800000000E+01 0.  1.
         -5    1    1    2    0  502  0.21670902118E+02  0.38853607363E+02  0.67793533303E+02  0.81195236076E+02  0.41800000000E+01 0.  1.
        -11    1    1    2    0    0  0.23616114403E+02 -0.51827722234E+02  0.31161188243E+02  0.64921901575E+02  0.00000000000E+00 0.  1.
         11    1    1    2    0    0 -0.22920449656E+02  0.30677447277E+02  0.44537808463E+02  0.58737289404E+02  0.00000000000E+00 0. -1.
</event>
<event>
 6    1  0.4988969E-006  0.2268294E+03  0.7561462E-02  0.1128892E+00
          1   -1    0    0  501    0  0.00000000000E+00  0.00000000000E+00  0.19851535955E+03  0.19851535955E+03  0.00000000000E+00 0. -1.
         -1   -1    0    0    0  501 -0.00000000000E+00 -0.00000000000E+00 -0.32928169314E+03  0.32928169314E+03  0.00000000000E+00 0.  1.
          5    1    1    2  502    0  0.62076283223E+02 -0.79115182126E+02  0.13689338687E+02  0.10157532858E+03  0.41800000000E+01 0.  1.
         -5    1    1    2    0  502  0.57874523938E+02 -0.11245105999E+03 -0.13102173840E+03  0.18215067869E+03  0.41800000000E+01 0.  1.
        -11    1    1    2    0    0 -0.10441893190E+03  0.15672363739E+03 -0.46060392388E+02  0.19387411277E+03  0.00000000000E+00 0.  1.
         11    1    1    2    0    0 -0.15531875266E+02  0.34842604720E+02  0.32626458517E+02  0.50196932658E+02  0.00000000000E+00 0. -1.
</event>
<event>
 6    1  0.4988969E-006  0.7308728E+02  0.7561462E-02  0.1349899E+00
          2   -1    0    0  501    0  0.00000000000E+00  0.00000000000E+00  0.99172621085E+02  0.99172621085E+02  0.00000000000E+00 0.  1.
         -2   -1    0    0    0  501 -0.00000000000E+00 -0.00000000000E+00 -0.16606203235E+03  0.16606203235E+03  0.00000000000E+00 0. -1.
          5    1    1    2  502    0 -0.10257635777E+02 -0.13242155177E+02  0.24323186139E+02  0.29827228323E+02  0.41800000000E+01 0.  1.
         -5    1    1    2    0  502  0.23740034060E+02  0.27508506556E+02 -0.13015136057E+03  0.13519303313E+03  0.41800000000E+01 0.  1.
        -11    1    1    2    0    0 -0.30000790636E+02 -0.46948526818E+02  0.22972942131E+02  0.60265808543E+02  0.00000000000E+00 0. -1.
         11    1    1    2    0    0  0.16518392353E+02  0.32682175439E+02  0.15965821032E+02  0.39948583437E+02  0.00000000000E+00 0.  1.
</event>
<event>
 6    1  0.4988969E-006  0.4022475E+03  0.7561462E-02  0.1043004E+00
         -2   -1    0    0    0  501 -0.00000000000E+00  0.00000000000E+00  0.86424321163E+02  0.86424321163E+02  0.00000000000E+00 0.  1.
          2   -1    0    0  501    0  0.00000000000E+00 -0.00000000000E+00 -0.20956760369E+04  0.20956760369E+04  0.00000000000E+00 0. -1.
          5    1    1    2  502    0 -0.75040146710E+01 -0.18336876479E+02 -0.31644049504E+02  0.37568198575E+02  0.41800000000E+01 0. -1.
         -5    1    1    2    0  502  0.35760540150E+03 -0.14854018177E+03 -0.63182971172E+03  0.74106144535E+03  0.41800000000E+01 0. -1.
        -11    1    1    2    0    0 -0.16944590947E+03  0.34224496262E+02 -0.53111858331E+03  0.55854290964E+03  0.00000000000E+00 0.  1.
         11    1    1    2    0    0 -0.18065547735E+03  0.13265256199E+03 -0.81465937118E+03  0.84492780446E+03  0.00000000000E+00 0. -1.
</event>
<event>
 6    1  0.4988969E-006  0.1352778E+03  0.7561462E-02  0.1219828E+00
          4   -1    0    0  501    0  0.00000000000E+00  0.00000000000E+00  0.40338213236E+03  0.40338213236E+03  0.00000000000E+00 0. -1.
         -4   -1    0    0    0  501 -0.00000000000E+00 -0.00000000000E+00 -0.52933286874E+02  0.52933286874E+02  0.00000000000E+00 0.  1.
          5    1    1    2  502    0 -0.57637435923E+02 -0.28799063553E+02  0.44691639949E+02  0.78525633794E+02  0.41800000000E+01 0.  1.
         -5    1    1    2    0  502  0.66133462500E+02 -0.55186819164E+02  0.67801606631E+02  0.10969845092E+03  0.41800000000E+01 0.  1.
        -11    1    1    2    0    0 -0.46297241815E+02  0.56329104317E+02  0.17533773498E+03  0.18989398068E+03  0.00000000000E+00 0. -1.
         11    1    1    2    0    0  0.37801215239E+02  0.27656778399E+02  0.62617863932E+02  0.78197353845E+02  0.00000000000E+00 0.  1.
</event>
<event>
 6    1  0.4988969E-006  0.1186231E+03  0.7561462E-02  0.1245386E+00
          2   -1    0    0  501    0  0.00000000000E+00  0.00000000000E+00  0.37760969040E+02  0.37760969040E+02  0.00000000000E+00 0. -1.
         -2   -1    0    0    0  501 -0.00000000000E+00 -0.00000000000E+00 -0.38096909085E+03  0.38096909085E+03  0.00000000000E+00 0.  1.
          5    1    1    2  502    0  0.31212980117E+02  0.58345344094E+02 -0.95611269966E+02  0.11635040460E+03  0.41800000000E+01 0. -1.
         -5    1    1    2    0  502  0.19395755036E+02 -0.65776460389E+02 -0.88635416565E+02  0.11214476147E+03  0.41800000000E+01 0. -1.
        -11    1    1    2    0    0  0.25307437966E+02  0.72463122949E+01 -0.59899465454E+02  0.65428750714E+02  0.00000000000E+00 0. -1.
         11    1    1    2    0    0 -0.75916173119E+02  0.18480400002E+00 -0.99061969825E+02  0.12480614312E+03  0.00000000000E+00 0.  1.
</event>
<event>
 6    1  0.4988969E-006  0.9865201E+02  0.7561462E-02  0.1283156E+00
         -1   -1    0    0    0  501 -0.00000000000E+00  0.00000000000E+00  0.19149610021E+03  0.19149610021E+03  0.00000000000E+00 0.  1.
          1   -1    0    0  501    0  0.00000000000E+00 -0.00000000000E+00 -0.10947839317E+03  0.10947839317E+03  0.00000000000E+00 0. -1.
          5    1    1    2  502    0  0.30053434335E+02  0.18608017420E+02  0.10773987187E+03  0.11346726232E+03  0.41800000000E+01 0.  1.
         -5    1    1    2    0  502 -0.69960521031E+02 -0.28271546669E+01  0.26449939343E+02  0.74963584477E+02  0.41800000000E+01 0.  1.
        -11    1    1    2    0    0  0.53826938322E+02  0.16594323844E+02 -0.93704760112E+01  0.57100934262E+02  0.00000000000E+00 0.  1.
         11    1    1    2    0    0 -0.13919851627E+02 -0.32375186597E+02 -0.42801628165E+02  0.55442712326E+02  0.00000000000E+00 0. -1.
</event>
<event>
 6    1  0.4988969E-006  0.9082173E+02  0.7561462E-02  0.1300874E+00
         -4   -1    0    0    0  501 -0.00000000000E+00  0.00000000000E+00  0.10675033754E+03  0.10675033754E+03  0.00000000000E+00 0.  1.
          4   -1    0    0  501    0  0.00000000000E+00 -0.00000000000E+00 -0.12344079156E+03  0.12344079156E+03  0.00000000000E+00 0. -1.
          5    1    1    2  502    0 -0.41242604122E+02 -0.37991470758E+02 -0.16905830715E+01  0.56255086137E+02  0.41800000000E+01 0. -1.
         -5    1    1    2    0  502  0.38987105355E+02  0.57336082727E+02  0.14860498934E+02  0.71033285121E+02  0.41800000000E+01 0. -1.
        -11    1    1    2    0    0 -0.18808495717E+02 -0.27540312323E+02  0.26230290173E+02  0.42429428897E+02  0.00000000000E+00 0.  1.
         11    1    1    2    0    0  0.21063994484E+02  0.81957003537E+01 -0.56090660058E+02  0.60473328945E+02  0.00000000000E+00 0. -1.
</event>
<event>
 6    1  0.4988969E-006  0.1279161E+03  0.7561462E-02  0.1230581E+00
         -1   -1    0    0    0  501 -0.00000000000E+00  0.00000000000E+00  0.45496376852E+02  0.45496376852E+02  0.00000000000E+00 0.  1.
          1   -1    0    0  501    0  0.00000000000E+00 -0.00000000000E+00 -0.39397629427E+03  0.39397629427E+03  0.00000000000E+00 0. -1.
          5    1    1    2  502    0  0.10556894052E+03 -0.17582393689E+01 -0.84266892829E+02  0.13515278109E+03  0.41800000000E+01 0. -1.
         -5    1    1    2    0  502 -0.34328149398E+02 -0.56723089726E+01 -0.55426572681E+02  0.65575714173E+02  0.41800000000E+01 0. -1.
        -11    1    1    2    0    0 -0.92897640444E+02  0.94201180425E+01 -0.15854928546E+03  0.18400159278E+03  0.00000000000E+00 0.  1.
         11    1    1    2    0    0  0.21656849318E+02 -0.19895697010E+01 -0.50237166447E+02  0.54742583082E+02  0.00000000000E+00 0. -1.
</event>
<event>
 6    1  0.4988969E-006  0.1155151E+03  0.7561462E-02  0.1250685E+00
         -2   -1    0    0    0  501 -0.00000000000E+00  0.00000000000E+00  0.11933900863E+03  0.11933900863E+03  0.00000000000E+00 0.  1.
          2   -1    0    0  501    0  0.00000000000E+00 -0.00000000000E+00 -0.14378105764E+03  0.14378105764E+03  0.00000000000E+00 0. -1.
          5    1    1    2  502    0  0.43683904002E+02  0.54905606868E+02  0.34124470233E+02  0.78133609945E+02  0.41800000000E+01 0. -1.
         -5    1    1    2    0  502 -0.30827548075E+01 -0.60001681964E+02  0.12540143566E+02  0.61517743915E+02  0.41800000000E+01 0. -1.
        -11    1    1    2    0    0 -0.38707348664E+02  0.45687998876E+02 -0.47832966913E+02  0.76639707760E+02  0.00000000000E+00 0.  1.
         11    1    1    2    0    0 -0.18938005304E+01 -0.40591923780E+02 -0.23273695894E+02  0.46829004657E+02  0.00000000000E+00 0. -1.
</event>
<event>
 6    1  0.4988969E-006  0.1576631E+03  0.7561462E-02  0.1191361E+00
         -1   -1    0    0    0  501 -0.00000000000E+00  0.00000000000E+00  0.15474118935E+02  0.15474118935E+02  0.00000000000E+00 0.  1.
          1   -1    0    0  501    0  0.00000000000E+00 -0.00000000000E+00 -0.20704589400E+04  0.20704589400E+04  0.00000000000E+00 0. -1.
          5    1    1    2  502    0  0.80010832870E+02  0.30243880154E+02 -0.35368390122E+03  0.36390410831E+03  0.41800000000E+01 0.  1.
         -5    1    1    2    0  502  0.13826689830E+02  0.67289747681E+02 -0.98579025360E+03  0.98818975101E+03  0.41800000000E+01 0.  1.
        -11    1    1    2    0    0  0.31371139364E+01 -0.54804762951E+02 -0.30312616996E+03  0.30805661564E+03  0.00000000000E+00 0. -1.
         11    1    1    2    0    0 -0.96974636637E+02 -0.42728864884E+02 -0.41238449630E+03  0.42578258400E+03  0.00000000000E+00 0.  1.
</event>
<event>
 6    1  0.4988969E-006  0.9235633E+02  0.7561462E-02  0.1297244E+00
         -2   -1    0    0    0  501 -0.00000000000E+00  0.00000000000E+00  0.42703064468E+02  0.42703064468E+02  0.00000000000E+00 0.  1.
          2   -1    0    0  501    0  0.00000000000E+00 -0.00000000000E+00 -0.28569383091E+03  0.28569383091E+03  0.00000000000E+00 0. -1.
          5    1    1    2  502    0  0.49610864259E+01  0.46553408818E+02 -0.10391204898E+02  0.48138153167E+02  0.41800000000E+01 0.  1.
         -5    1    1    2    0  502 -0.26089813691E+02 -0.45458586254E+02 -0.13468454016E+03  0.14458409041E+03  0.41800000000E+01 0.  1.
        -11    1    1    2    0    0 -0.29360377234E+02 -0.14706786933E+02 -0.11736769794E+02  0.34872239653E+02  0.00000000000E+00 0. -1.
         11    1    1    2    0    0  0.50489104499E+02  0.13611964368E+02 -0.86178251593E+02  0.10080241215E+03  0.00000000000E+00 0.  1.
</event>
<event>
 6    1  0.4988969E-006  0.1076400E+03  0.7561462E-02  0.1265004E+00
         -3   -1    0    0    0  501 -0.00000000000E+00  0.00000000000E+00  0.37686161821E+03  0.37686161821E+03  0.00000000000E+00 0.  1.
          3   -1    0    0  501    0  0.00000000000E+00 -0.00000000000E+00 -0.37589506459E+02  0.37589506459E+02  0.00000000000E+00 0. -1.
          5    1    1    2  502    0  0.53669257783E+02 -0.52664015456E+02  0.20779775966E+03  0.22102323198E+03  0.41800000000E+01 0. -1.
         -5    1    1    2    0  502 -0.14081598612E+02  0.37447777453E+02  0.27226597224E+02  0.48573526247E+02  0.41800000000E+01 0. -1.
        -11    1    1    2    0    0 -0.26786529839E+02 -0.37171224717E+02  0.38708614989E+02  0.59979788280E+02  0.00000000000E+00 0. -1.
         11    1    1    2    0    0 -0.12801129331E+02  0.52387462720E+02  0.65539139882E+02  0.84874578166E+02  0.00000000000E+00 0.  1.
</event>
<event>
 6    1  0.4988969E-006  0.1067830E+03  0.7561462E-02  0.1266646E+00
         -2   -1    0    0    0  501 -0.00000000000E+00  0.00000000000E+00  0.75200813859E+03  0.75200813859E+03  0.00000000000E+00 0.  1.
          2   -1    0    0  501    0  0.00000000000E+00 -0.00000000000E+00 -0.25301699994E+02  0.25301699994E+02  0.00000000000E+00 0. -1.
          5    1    1    2  502    0 -0.73825409640E+01  0.87359885865E+01  0.33028989026E+03  0.33051430137E+03  0.41800000000E+01 0.  1.
         -5    1    1    2    0  502  0.27937743985E+02  0.72601584733E+02  0.10973770187E+03  0.13457839075E+03  0.41800000000E+01 0.  1.
        -11    1    1    2    0    0  0.32770944750E+02 -0.54967028613E+02  0.13996983835E+03  0.15390537580E+03  0.00000000000E+00 0.  1.
         11    1    1    2    0    0 -0.53326147772E+02 -0.26370544706E+02  0.14670900812E+03  0.15831177066E+03  0.00000000000E+00 0. -1.
</event>
<event>
 6    1  0.4988969E-006  0.9422628E+02  0.7561462E-02  0.1292928E+00
          2   -1    0    0  501    0  0.00000000000E+00  0.00000000000E+00  0.62368654505E+02  0.62368654505E+02  0.00000000000E+00 0. -1.
         -2   -1    0    0    0  501 -0.00000000000E+00 -0.00000000000E+00 -0.19844829952E+03  0.19844829952E+03  0.00000000000E+00 0.  1.
          5    1    1    2  502    0  0.42252724503E+01  0.46452719735E+02  0.30305126151E+01  0.46929356535E+02  0.41800000000E+01 0.  1.
         -5    1    1    2    0  502  0.26572068905E+02 -0.59330515242E+02 -0.81965648189E+02  0.10469968848E+03  0.41800000000E+01 0.  1.
        -11    1    1    2    0    0  0.67276387966E+01 -0.23361336885E+02  0.81249260233E+01  0.25632549770E+02  0.00000000000E+00 0. -1.
         11    1    1    2    0    0 -0.37524980152E+02  0.36239132391E+02 -0.65269435459E+02  0.83555359236E+02  0.00000000000E+00 0.  1.
</event>
<event>
 6    1  0.4988969E-006  0.8182622E+02  0.7561462E-02  0.1323947E+00
          1   -1    0    0  501    0  0.00000000000E+00  0.00000000000E+00  0.33164198995E+03  0.33164198995E+03  0.00000000000E+00 0. -1.
         -1   -1    0    0    0  501 -0.00000000000E+00 -0.00000000000E+00 -0.54401938534E+02  0.54401938534E+02  0.00000000000E+00 0.  1.
          5    1    1    2  502    0 -0.47743791215E+02 -0.35547125581E+02  0.14002664161E+03  0.15221038235E+03  0.41800000000E+01 0. -1.
         -5    1    1    2    0  502 -0.24557583615E+02  0.13812447758E+02 -0.21693775949E+02  0.35804342488E+02  0.41800000000E+01 0. -1.
        -11    1    1    2    0    0  0.53652405867E+02  0.16279468676E+02  0.16760975183E+03  0.17673887706E+03  0.00000000000E+00 0. -1.
         11    1    1    2    0    0  0.18648968962E+02  0.54552091464E+01 -0.87025660640E+01  0.21290326589E+02  0.00000000000E+00 0.  1.
</event>
<event>
 6    1  0.4988969E-006  0.1280116E+03  0.7561462E-02  0.1230436E+00
         -1   -1    0    0    0  501 -0.00000000000E+00  0.00000000000E+00  0.47391433416E+03  0.47391433416E+03  0.00000000000E+00 0.  1.
          1   -1    0    0  501    0  0.00000000000E+00 -0.00000000000E+00 -0.49969090921E+02  0.49969090921E+02  0.00000000000E+00 0. -1.
          5    1    1    2  502    0 -0.51849996052E+02 -0.55010202868E+02  0.20540883815E+03  0.21891735358E+03  0.41800000000E+01 0.  1.
         -5    1    1    2    0  502  0.28477798874E+02 -0.52707969938E+02  0.23994018739E+02  0.64670707890E+02  0.41800000000E+01 0.  1.
        -11    1    1    2    0    0 -0.22059711303E+01  0.87830548269E+02  0.18760833635E+03  0.20716167451E+03  0.00000000000E+00 0.  1.
         11    1    1    2    0    0  0.25578168308E+02  0.19887624536E+02  0.69340499998E+01  0.33133689096E+02  0.00000000000E+00 0. -1.
</event>
<event>
 6    1  0.5206504E-006  0.6605854E+02  0.7561462E-02  0.1374033E+00
         -3   -1    0    0    0  501 -0.00000000000E+00  0.00000000000E+00  0.94264668724E+02  0.94264668724E+02  0.00000000000E+00 0.  1.
          3   -1    0    0  501    0  0.00000000000E+00 -0.00000000000E+00 -0.88527593234E+02  0.88527593234E+02  0.00000000000E+00 0. -1.
          5    1    1    2  502    0 -0.34028737387E+02  0.11272175399E+02 -0.25969878783E+02  0.44462612501E+02  0.41800000000E+01 0. -1.
         -5    1    1    2    0  502  0.57710618227E+02 -0.20709783294E+02  0.65609134806E+02  0.89896838377E+02  0.41800000000E+01 0.  1.
        -11    1    1    2    0    0 -0.23633932340E+02 -0.14543573555E+01 -0.22488236096E+02  0.32655760226E+02  0.00000000000E+00 0.  1.
         11    1    1    2    0    0 -0.47948499462E-01  0.10891965250E+02 -0.11413944436E+02  0.15777050855E+02  0.00000000000E+00 0. -1.
</event>
<event>
 6    1  0.4988969E-006  0.1340423E+03  0.7561462E-02  0.1221578E+00
          2   -1    0    0  501    0  0.00000000000E+00  0.00000000000E+00  0.37751754771E+03  0.37751754771E+03  0.00000000000E+00 0. -1.
         -2   -1    0    0    0  501 -0.00000000000E+00 -0.00000000000E+00 -0.53257072393E+02  0.53257072393E+02  0.00000000000E+00 0.  1.
          5    1    1    2  502    0 -0.40352988501E+02 -0.31489185948E+02  0.26303511015E+02  0.57699909916E+02  0.41800000000E+01 0.  1.
         -5    1    1    2    0  502 -0.10820519892E+02  0.95272843491E+02  0.91450242009E+02  0.13256929328E+03  0.41800000000E+01 0.  1.
        -11    1    1    2    0    0 -0.21838291138E+02 -0.37036764597E+02  0.51495832211E+02  0.67085420374E+02  0.00000000000E+00 0.  1.
         11    1    1    2    0    0  0.73011799532E+02 -0.26746892946E+02  0.15501089008E+03  0.17341999653E+03  0.00000000000E+00 0. -1.
</event>
<event>
 6    1  0.4988969E-006  0.1088744E+03  0.7561462E-02  0.1262669E+00
         -2   -1    0    0    0  501 -0.00000000000E+00  0.00000000000E+00  0.20421917197E+02  0.20421917197E+02  0.00000000000E+00 0.  1.
          2   -1    0    0  501    0  0.00000000000E+00 -0.00000000000E+00 -0.69565863860E+03  0.69565863860E+03  0.00000000000E+00 0. -1.
          5    1    1    2  502    0 -0.20025827789E+02  0.53169327865E+02 -0.12311412676E+03  0.13565607915E+03  0.41800000000E+01 0.  1.
         -5    1    1    2    0  502 -0.14834058430E+02 -0.72642044160E+02 -0.17394752706E+03  0.18913521735E+03  0.41800000000E+01 0.  1.
        -11    1    1    2    0    0  0.19300679491E+02  0.49264614544E+02 -0.31793236179E+03  0.32230498778E+03  0.00000000000E+00 0. -1.
         11    1    1    2    0    0  0.15559206728E+02 -0.29791898248E+02 -0.60242705793E+02  0.68984271515E+02  0.00000000000E+00 0.  1.
</event>
<event>
 6    1  0.4988969E-006  0.3660785E+03  0.7561462E-02  0.1056203E+00
         -1   -1    0    0    0  501 -0.00000000000E+00  0.00000000000E+00  0.23722870788E+03  0.23722870788E+03  0.00000000000E+00 0.  1.
          1   -1    0    0  501    0  0.00000000000E+00 -0.00000000000E+00 -0.66219715750E+03  0.66219715750E+03  0.00000000000E+00 0. -1.
          5    1    1    2  502    0 -0.97229513398E+02 -0.92212030476E+02 -0.66112639735E+02  0.14948240824E+03  0.41800000000E+01 0.  1.
         -5    1    1    2    0  502 -0.64080082532E+02 -0.22901231187E+03 -0.61895549222E+01  0.23792578456E+03  0.41800000000E+01 0.  1.
        -11    1    1    2    0    0  0.29621531772E+02  0.40597761219E+02 -0.12485962106E+02  0.51783323670E+02  0.00000000000E+00 0.  1.
         11    1    1    2    0    0  0.13168806416E+03  0.28062658113E+03 -0.34018029285E+03  0.46023434892E+03  0.00000000000E+00 0. -1.
</event>
<event>
 6    1  0.4988969E-006  0.1727464E+03  0.7561462E-02  0.1175014E+00
         -1   -1    0    0    0  501 -0.00000000000E+00  0.00000000000E+00  0.18979821136E+03  0.18979821136E+03  0.00000000000E+00 0.  1.
          1   -1    0    0  501    0  0.00000000000E+00 -0.00000000000E+00 -0.17666557177E+03  0.17666557177E+03  0.00000000000E+00 0. -1.
          5    1    1    2  502    0 -0.56067629996E+02 -0.43304944121E+02 -0.19250568280E+02  0.73531993701E+02  0.41800000000E+01 0. -1.
         -5    1    1    2    0  502 -0.87046044099E+02  0.68751805310E+02  0.45764166339E+02  0.12006521498E+03  0.41800000000E+01 0.  1.
        -11    1    1    2    0    0  0.11136510905E+03  0.14710540880E+02  0.16583502812E+02  0.11354998940E+03  0.00000000000E+00 0.  1.
         11    1    1    2    0    0  0.31748565047E+02 -0.40157402069E+02 -0.29964461282E+02  0.59316585062E+02  0.00000000000E+00 0. -1.
</event>
<event>
 6    1  0.4988969E-006  0.8439293E+02  0.7561462E-02  0.1317028E+00
          2   -1    0    0  501    0  0.00000000000E+00  0.00000000000E+00  0.43773983926E+03  0.43773983926E+03  0.00000000000E+00 0. -1.
         -2   -1    0    0    0  501 -0.00000000000E+00 -0.00000000000E+00 -0.39657665968E+02  0.39657665968E+02  0.00000000000E+00 0.  1.
          5    1    1    2  502    0  0.38400083161E+02 -0.29794539670E+02 -0.22653139477E+01  0.48835284664E+02  0.41800000000E+01 0.  1.
         -5    1    1    2    0  502  0.25019824938E+02 -0.56821462113E+01  0.17301777094E+03  0.17495970932E+03  0.41800000000E+01 0.  1.
        -11    1    1    2    0    0 -0.29292675661E+02 -0.15130024696E+02  0.22611019098E+02  0.39977952415E+02  0.00000000000E+00 0.  1.
         11    1    1    2    0    0 -0.34127232438E+02  0.50606710577E+02  0.20471869721E+03  0.21362455883E+03  0.00000000000E+00 0. -1.
</event>
<event>
 6    1  0.4988969E-006  0.1159236E+03  0.7561462E-02  0.1249978E+00
         -3   -1    0    0    0  501 -0.00000000000E+00  0.00000000000E+00  0.33601965571E+02  0.33601965571E+02  0.00000000000E+00 0.  1.
          3   -1    0    0  501    0  0.00000000000E+00 -0.00000000000E+00 -0.52304728677E+03  0.52304728677E+03  0.00000000000E+00 0. -1.
          5    1    1    2  502    0  0.23107232326E+02 -0.49083294092E+00 -0.48304910042E+01  0.23978972999E+02  0.41800000000E+01 0. -1.
         -5    1    1    2    0  502 -0.96461260287E+02 -0.21900386477E+02 -0.26977398550E+03  0.28736714725E+03  0.41800000000E+01 0. -1.
        -11    1    1    2    0    0  0.68194887241E+02 -0.16468026236E+02 -0.17872910524E+03  0.19200476972E+03  0.00000000000E+00 0. -1.
         11    1    1    2    0    0  0.51591407201E+01  0.38859245653E+02 -0.36111739448E+02  0.53298362374E+02  0.00000000000E+00 0.  1.
</event>
<event>
 6    1  0.4988969E-006  0.1156828E+03  0.7561462E-02  0.1250394E+00
          2   -1    0    0  501    0  0.00000000000E+00  0.00000000000E+00  0.64396026378E+03  0.64396026378E+03  0.00000000000E+00 0. -1.
         -2   -1    0    0    0  501 -0.00000000000E+00 -0.00000000000E+00 -0.37071857023E+02  0.37071857023E+02  0.00000000000E+00 0.  1.
          5    1    1    2  502    0 -0.93522217084E+02 -0.12383966837E+01  0.31184768067E+03  0.32559850592E+03  0.41800000000E+01 0.  1.
         -5    1    1    2    0  502 -0.12914699192E+02  0.23371685121E+02 -0.58649687790E+00  0.27034080328E+02  0.41800000000E+01 0.  1.
        -11    1    1    2    0    0  0.39263209153E+02 -0.18603720127E+02  0.23123259169E+03  0.23527900343E+03  0.00000000000E+00 0. -1.
         11    1    1    2    0    0  0.67173707123E+02 -0.35295683101E+01  0.64394631276E+02  0.93120531131E+02  0.00000000000E+00 0.  1.
</event>
<event>
 6    1  0.4988969E-006  0.1379175E+03  0.7561462E-02  0.1216159E+00
          1   -1    0    0  501    0  0.00000000000E+00  0.00000000000E+00  0.41001435966E+03  0.41001435966E+03  0.00000000000E+00 0. -1.
         -1   -1    0    0    0  501 -0.00000000000E+00 -0.00000000000E+00 -0.50204921924E+02  0.50204921924E+02  0.00000000000E+00 0.  1.
          5    1    1    2  502    0 -0.85080523665E+02 -0.62230971261E+02  0.11975474310E+03  0.15959342150E+03  0.41800000000E+01 0.  1.
         -5    1    1    2    0  502 -0.63764441296E+01  0.48359681104E+02  0.37047515619E+02  0.61394695290E+02  0.41800000000E+01 0.  1.
        -11    1    1    2    0    0  0.11220155379E+02 -0.28512921300E+02  0.25458541512E+02  0.39837368182E+02  0.00000000000E+00 0.  1.
         11    1    1    2    0    0  0.80236812415E+02  0.42384211457E+02  0.17754863750E+03  0.19939379661E+03  0.00000000000E+00 0. -1.
</event>
<event>
 6    1  0.4988969E-006  0.1300706E+03  0.7561462E-02  0.1227351E+00
          1   -1    0    0  501    0  0.00000000000E+00  0.00000000000E+00  0.10156174108E+04  0.10156174108E+04  0.00000000000E+00 0.  1.
         -1   -1    0    0    0  501 -0.00000000000E+00 -0.00000000000E+00 -0.18196869705E+02  0.18196869705E+02  0.00000000000E+00 0. -1.
          5    1    1    2  502    0 -0.93023738712E+02  0.16770757329E+02  0.34651826384E+03  0.35920336000E+03  0.41800000000E+01 0.  1.
         -5    1    1    2    0  502  0.16585892989E+02 -0.48780624293E+02  0.11445646664E+03  0.12558820131E+03  0.41800000000E+01 0.  1.
        -11    1    1    2    0    0  0.38571232341E+02 -0.24583810017E+02  0.15748280573E+03  0.16399066369E+03  0.00000000000E+00 0.  1.
         11    1    1    2    0    0  0.37866613381E+02  0.56593676982E+02  0.37896300486E+03  0.38503205546E+03  0.00000000000E+00 0. -1.
</event>
<event>
 6    1  0.4988969E-006  0.1248866E+03  0.7561462E-02  0.1235247E+00
          1   -1    0    0  501    0  0.00000000000E+00  0.00000000000E+00  0.12203591788E+03  0.12203591788E+03  0.00000000000E+00 0. -1.
         -1   -1    0    0    0  501 -0.00000000000E+00 -0.00000000000E+00 -0.13560909079E+03  0.13560909079E+03  0.00000000000E+00 0.  1.
          5    1    1    2  502    0 -0.31497525340E+02  0.23450104082E+02 -0.11656951887E+02  0.41174730252E+02  0.41800000000E+01 0. -1.
         -5    1    1    2    0  502  0.52919948600E+02 -0.87638511286E+02 -0.15854459625E+02  0.10368156013E+03  0.41800000000E+01 0. -1.
        -11    1    1    2    0    0 -0.52355284367E+02  0.25350594401E+02 -0.76061298706E+01  0.58664995092E+02  0.00000000000E+00 0.  1.
         11    1    1    2    0    0  0.30932861106E+02  0.38837812803E+02  0.21544368471E+02  0.54123723194E+02  0.00000000000E+00 0. -1.
</event>
<event>
 6    1  0.4988969E-006  0.1108849E+03  0.7561462E-02  0.1258940E+00
          2   -1    0    0  501    0  0.00000000000E+00  0.00000000000E+00  0.37067682555E+03  0.37067682555E+03  0.00000000000E+00 0. -1.
         -2   -1    0    0    0  501 -0.00000000000E+00 -0.00000000000E+00 -0.57056169079E+02  0.57056169079E+02  0.00000000000E+00 0.  1.
          5    1    1    2  502    0 -0.34276839211E+02 -0.22233877166E+02 -0.17290228124E+02  0.44560872845E+02  0.41800000000E+01 0.  1.
         -5    1    1    2    0  502 -0.19354024836E+02 -0.52170769953E+02  0.14837599134E+03  0.15852215846E+03  0.41800000000E+01 0.  1.
        -11    1    1    2    0    0  0.74852859997E+02  0.41065072649E+02  0.90127564597E+02  0.12414615879E+03  0.00000000000E+00 0.  1.
         11    1    1    2    0    0 -0.21221995950E+02  0.33339574470E+02  0.92407328661E+02  0.10050380455E+03  0.00000000000E+00 0. -1.
</event>
<event>
 6    1  0.4988969E-006  0.1395397E+03  0.7561462E-02  0.1213950E+00
          2   -1    0    0  501    0  0.00000000000E+00  0.00000000000E+00  0.14298200844E+04  0.14298200844E+04  0.00000000000E+00 0.  1.
         -2   -1    0    0    0  501 -0.00000000000E+00 -0.00000000000E+00 -0.14283157454E+02  0.14283157454E+02  0.00000000000E+00 0. -1.
          5    1    1    2  502    0 -0.10514080672E+03  0.20387504123E+02  0.55770992394E+03  0.56791554937E+03  0.41800000000E+01 0.  1.
         -5    1    1    2    0  502  0.29556038915E+02  0.38603235692E+02  0.34810946593E+03  0.35151307503E+03  0.41800000000E+01 0.  1.
        -11    1    1    2    0    0  0.58912463446E+01 -0.52805536040E+02  0.25797047312E+03  0.26338545218E+03  0.00000000000E+00 0. -1.
         11    1    1    2    0    0  0.69693521459E+02 -0.61852037741E+01  0.25174706401E+03  0.26128916532E+03  0.00000000000E+00 0.  1.
</event>
<event>
 6    1  0.4988969E-006  0.2028646E+03  0.7561462E-02  0.1147344E+00
         -2   -1    0    0    0  501 -0.00000000000E+00  0.00000000000E+00  0.85076972201E+02  0.85076972201E+02  0.00000000000E+00 0. -1.
          2   -1    0    0  501    0  0.00000000000E+00 -0.00000000000E+00 -0.51971570360E+03  0.51971570360E+03  0.00000000000E+00 0.  1.
          5    1    1    2  502    0 -0.65613330510E+01  0.36096591881E+02 -0.19937901692E+02  0.41964358219E+02  0.41800000000E+01 0.  1.
         -5    1    1    2    0  502  0.17774821867E+03  0.40483387002E+01 -0.15191631783E+03  0.23389497282E+03  0.41800000000E+01 0.  1.
        -11    1    1    2    0    0 -0.62128128116E+02  0.21428911748E+02 -0.13424631158E+03  0.14946964486E+03  0.00000000000E+00 0.  1.
         11    1    1    2    0    0 -0.10905875750E+03 -0.61573842329E+02 -0.12853820030E+03  0.17946369990E+03  0.00000000000E+00 0. -1.
</event>
<event>
 6    1  0.4988969E-006  0.1070450E+03  0.7561462E-02  0.1266142E+00
          1   -1    0    0  501    0  0.00000000000E+00  0.00000000000E+00  0.64222658147E+02  0.64222658147E+02  0.00000000000E+00 0. -1.
         -1   -1    0    0    0  501 -0.00000000000E+00 -0.00000000000E+00 -0.22728225431E+03  0.22728225431E+03  0.00000000000E+00 0.  1.
          5    1    1    2  502    0 -0.47194591570E+02 -0.55930622105E+01 -0.63388207971E+02  0.79335673742E+02  0.41800000000E+01 0. -1.
         -5    1    1    2    0  502  0.67890843460E+02 -0.31273695583E+02 -0.81126266912E+02  0.11039091559E+03  0.41800000000E+01 0.  1.
        -11    1    1    2    0    0  0.20359711099E+02 -0.15057359487E+02 -0.24603937739E+02  0.35307161638E+02  0.00000000000E+00 0.  1.
         11    1    1    2    0    0 -0.41055962988E+02  0.51924117281E+02  0.60588164621E+01  0.66471161485E+02  0.00000000000E+00 0. -1.
</event>
<event>
 6    1  0.4988969E-006  0.1093473E+03  0.7561462E-02  0.1261783E+00
          1   -1    0    0  501    0  0.00000000000E+00  0.00000000000E+00  0.41168432516E+02  0.41168432516E+02  0.00000000000E+00 0. -1.
         -1   -1    0    0    0  501 -0.00000000000E+00 -0.00000000000E+00 -0.33180760829E+03  0.33180760829E+03  0.00000000000E+00 0.  1.
          5    1    1    2  502    0  0.43589859919E+02  0.11712997479E+02 -0.88875640731E+02  0.99767841077E+02  0.41800000000E+01 0.  1.
         -5    1    1    2    0  502 -0.79401339552E+02  0.13877029163E+02 -0.67127107543E+02  0.10497935810E+03  0.41800000000E+01 0.  1.
        -11    1    1    2    0    0  0.32319463123E+02  0.25669866430E+02 -0.94203818560E+02  0.10284867121E+03  0.00000000000E+00 0.  1.
         11    1    1    2    0    0  0.34920165105E+01 -0.51259893072E+02 -0.40432608936E+02  0.65380170407E+02  0.00000000000E+00 0. -1.
</event>
<event>
 6    1  0.4988969E-006  0.1339317E+03  0.7561462E-02  0.1221736E+00
         -2   -1    0    0    0  501 -0.00000000000E+00  0.00000000000E+00  0.20913055624E+03  0.20913055624E+03  0.00000000000E+00 0. -1.
          2   -1    0    0  501    0  0.00000000000E+00 -0.00000000000E+00 -0.11079631852E+03  0.11079631852E+03  0.00000000000E+00 0.  1.
          5    1    1    2  502    0  0.88025002829E+02  0.67819929230E+01  0.86286042717E+02  0.12351983694E+03  0.41800000000E+01 0.  1.
         -5    1    1    2    0  502 -0.14763454423E+02  0.54100088267E+02  0.84194729262E+00  0.56240202811E+02  0.41800000000E+01 0.  1.
        -11    1    1    2    0    0 -0.74333789913E+02 -0.77038130568E+02  0.33896896619E+02  0.11229152009E+03  0.00000000000E+00 0. -1.
         11    1    1    2    0    0  0.10722415069E+01  0.16156049378E+02 -0.22690648913E+02  0.27875314912E+02  0.00000000000E+00 0.  1.
</event>
<event>
 6    1  0.4988969E-006  0.7296974E+02  0.7561462E-02  0.1350276E+00
         -1   -1    0    0    0  501 -0.00000000000E+00  0.00000000000E+00  0.90319979301E+02  0.90319979301E+02  0.00000000000E+00 0.  1.
          1   -1    0    0  501    0  0.00000000000E+00 -0.00000000000E+00 -0.12702335791E+03  0.12702335791E+03  0.00000000000E+00 0. -1.
          5    1    1    2  502    0  0.90171154165E+01 -0.18587638287E+02 -0.55332729390E+02  0.59211417896E+02  0.41800000000E+01 0. -1.
         -5    1    1    2    0  502 -0.14609919311E+02  0.35329243370E+02  0.49088318614E+02  0.62359767509E+02  0.41800000000E+01 0.  1.
        -11    1    1    2    0    0  0.32385788142E+02 -0.39619128904E+02 -0.32265702887E+02  0.60494547122E+02  0.00000000000E+00 0.  1.
         11    1    1    2    0    0 -0.26792984247E+02  0.22877523821E+02  0.18067350500E+01  0.35277604689E+02  0.00000000000E+00 0. -1.
</event>
<event>
 6    1  0.4988969E-006  0.1132149E+03  0.7561462E-02  0.1254730E+00
          1   -1    0    0  501    0  0.00000000000E+00  0.00000000000E+00  0.48948845280E+03  0.48948845280E+03  0.00000000000E+00 0. -1.
         -1   -1    0    0    0  501 -0.00000000000E+00 -0.00000000000E+00 -0.44723344360E+02  0.44723344360E+02  0.00000000000E+00 0.  1.
          5    1    1    2  502    0 -0.34402199960E+02  0.71252910828E+02  0.28257558930E+02  0.84121642282E+02  0.41800000000E+01 0.  1.
         -5    1    1    2    0  502 -0.90718601906E+01 -0.48555510676E+02  0.54584581469E+02  0.73735237156E+02  0.41800000000E+01 0.  1.
        -11    1    1    2    0    0  0.28502537063E+00  0.29711198443E+02  0.60836755760E+02  0.67704855097E+02  0.00000000000E+00 0.  1.
         11    1    1    2    0    0  0.43189034780E+02 -0.52408598595E+02  0.30108621229E+03  0.30865006263E+03  0.00000000000E+00 0. -1.
</event>
<event>
 6    1  0.4988969E-006  0.7947017E+02  0.7561462E-02  0.1330562E+00
          3   -1    0    0  501    0  0.00000000000E+00  0.00000000000E+00  0.11138537495E+03  0.11138537495E+03  0.00000000000E+00 0. -1.
         -3   -1    0    0    0  501 -0.00000000000E+00 -0.00000000000E+00 -0.13295821801E+03  0.13295821801E+03  0.00000000000E+00 0.  1.
          5    1    1    2  502    0 -0.13385882404E+01 -0.53036513029E+02  0.42268174433E+02  0.67961272079E+02  0.41800000000E+01 0.  1.
         -5    1    1    2    0  502 -0.15225223119E+02  0.27615777495E+01 -0.68532322642E+02  0.70381711953E+02  0.41800000000E+01 0.  1.
        -11    1    1    2    0    0 -0.21396128472E+02 -0.56255926333E+01 -0.23955204485E+02  0.32608180385E+02  0.00000000000E+00 0. -1.
         11    1    1    2    0    0  0.37959939831E+02  0.55900527912E+02  0.28646509638E+02  0.73392428542E+02  0.00000000000E+00 0.  1.
</event>
<event>
 6    1  0.4988969E-006  0.2457493E+03  0.7561462E-02  0.1116021E+00
          1   -1    0    0  501    0  0.00000000000E+00  0.00000000000E+00  0.55445632753E+03  0.55445632753E+03  0.00000000000E+00 0. -1.
         -1   -1    0    0    0  501 -0.00000000000E+00 -0.00000000000E+00 -0.11865963431E+03  0.11865963431E+03  0.00000000000E+00 0.  1.
          5    1    1    2  502    0 -0.13490580148E+03 -0.26727267477E+02  0.15816674024E+03  0.20963805050E+03  0.41800000000E+01 0. -1.
         -5    1    1    2    0  502 -0.88178258882E+02  0.85362003321E+02  0.98146849027E+02  0.15720163270E+03  0.41800000000E+01 0. -1.
        -11    1    1    2    0    0  0.12951124860E+03 -0.41353822507E+02  0.48430959813E+02  0.14432207045E+03  0.00000000000E+00 0.  1.
         11    1    1    2    0    0  0.93572811767E+02 -0.17280913338E+02  0.13105214414E+03  0.16195420819E+03  0.00000000000E+00 0. -1.
</event>
<event>
 6    1  0.4988969E-006  0.1004549E+03  0.7561462E-02  0.1279342E+00
         -1   -1    0    0    0  501 -0.00000000000E+00  0.00000000000E+00  0.14138322320E+03  0.14138322320E+03  0.00000000000E+00 0.  1.
          1   -1    0    0  501    0  0.00000000000E+00 -0.00000000000E+00 -0.11050503860E+03  0.11050503860E+03  0.00000000000E+00 0. -1.
          5    1    1    2  502    0 -0.24914284334E+02 -0.32861160835E+02 -0.37483265559E+01  0.41618503184E+02  0.41800000000E+01 0. -1.
         -5    1    1    2    0  502  0.54589419552E+02  0.48676484339E+02  0.80931842577E+02  0.10916428169E+03  0.41800000000E+01 0. -1.
        -11    1    1    2    0    0 -0.55210803895E+02 -0.22791224224E+02 -0.44665476739E+02  0.74583359945E+02  0.00000000000E+00 0. -1.
         11    1    1    2    0    0  0.25535668677E+02  0.69759007201E+01 -0.16398546878E+01  0.26522116979E+02  0.00000000000E+00 0.  1.
</event>
<event>
 6    1  0.4988969E-006  0.1627617E+03  0.7561462E-02  0.1185614E+00
         -2   -1    0    0    0  501 -0.00000000000E+00  0.00000000000E+00  0.12289924306E+04  0.12289924306E+04  0.00000000000E+00 0.  1.
          2   -1    0    0  501    0  0.00000000000E+00 -0.00000000000E+00 -0.26500759258E+02  0.26500759258E+02  0.00000000000E+00 0. -1.
          5    1    1    2  502    0  0.51709428805E+02 -0.90865142230E+02  0.62515195474E+03  0.63384759841E+03  0.41800000000E+01 0.  1.
         -5    1    1    2    0  502 -0.38840072851E+02 -0.46633129212E+02  0.12383505969E+03  0.13797026639E+03  0.41800000000E+01 0.  1.
        -11    1    1    2    0    0 -0.36751291567E+02  0.23583789751E+02  0.20024340823E+03  0.20494944526E+03  0.00000000000E+00 0.  1.
         11    1    1    2    0    0  0.23881935613E+02  0.11391448169E+03  0.25326124871E+03  0.27872587983E+03  0.00000000000E+00 0. -1.
</event>
<event>
 6    1  0.4988969E-006  0.1057668E+03  0.7561462E-02  0.1268616E+00
         -2   -1    0    0    0  501 -0.00000000000E+00  0.00000000000E+00  0.53646227838E+03  0.53646227838E+03  0.00000000000E+00 0. -1.
          2   -1    0    0  501    0  0.00000000000E+00 -0.00000000000E+00 -0.25141811351E+02  0.25141811351E+02  0.00000000000E+00 0.  1.
          5    1    1    2  502    0  0.27904132674E+02 -0.38341290929E+02  0.88306695991E+02  0.10032068664E+03  0.41800000000E+01 0. -1.
         -5    1    1    2    0  502 -0.45209298950E+02  0.59785089713E+02  0.26776509827E+03  0.27808947826E+03  0.41800000000E+01 0. -1.
        -11    1    1    2    0    0 -0.90191815755E+01  0.29861570260E+02  0.94138299410E+02  0.99171963933E+02  0.00000000000E+00 0. -1.
         11    1    1    2    0    0  0.26324347852E+02 -0.51305369044E+02  0.61110373350E+02  0.84021960901E+02  0.00000000000E+00 0.  1.
</event>
<event>
 6    1  0.4988969E-006  0.8157113E+02  0.7561462E-02  0.1324651E+00
          1   -1    0    0  501    0  0.00000000000E+00  0.00000000000E+00  0.22209778604E+03  0.22209778604E+03  0.00000000000E+00 0. -1.
         -1   -1    0    0    0  501 -0.00000000000E+00 -0.00000000000E+00 -0.71337889353E+02  0.71337889353E+02  0.00000000000E+00 0.  1.
          5    1    1    2  502    0  0.42983712806E+01  0.10231592067E+02  0.70283540441E+02  0.71276994386E+02  0.41800000000E+01 0.  1.
         -5    1    1    2    0  502  0.11237773374E+02 -0.56470183413E+02 -0.35052041417E+02  0.67537302083E+02  0.41800000000E+01 0.  1.
        -11    1    1    2    0    0  0.13403989372E+02  0.60021280214E+02  0.10348294510E+03  0.12037832419E+03  0.00000000000E+00 0. -1.
         11    1    1    2    0    0 -0.28940134026E+02 -0.13782688867E+02  0.12045452569E+02  0.34243054733E+02  0.00000000000E+00 0.  1.
</event>
<event>
 6    1  0.4988969E-006  0.1518733E+03  0.7561462E-02  0.1198190E+00
         -1   -1    0    0    0  501 -0.00000000000E+00  0.00000000000E+00  0.17295499400E+02  0.17295499400E+02  0.00000000000E+00 0.  1.
          1   -1    0    0  501    0  0.00000000000E+00 -0.00000000000E+00 -0.13779628092E+04  0.13779628092E+04  0.00000000000E+00 0. -1.
          5    1    1    2  502    0  0.69784113332E+02  0.86270740851E+01 -0.27089484048E+03  0.27990308302E+03  0.41800000000E+01 0.  1.
         -5    1    1    2    0  502 -0.24964902805E+02  0.91017837553E+02 -0.46526444751E+03  0.47475885630E+03  0.41800000000E+01 0.  1.
        -11    1    1    2    0    0 -0.32829250090E+02  0.52593057577E+01 -0.94632586968E+02  0.10030327250E+03  0.00000000000E+00 0.  1.
         11    1    1    2    0    0 -0.11989960437E+02 -0.10490421740E+03 -0.52987543488E+03  0.54029309682E+03  0.00000000000E+00 0. -1.
</event>
<event>
 6    1  0.4988969E-006  0.1067079E+03  0.7561462E-02  0.1266791E+00
         -1   -1    0    0    0  501 -0.00000000000E+00  0.00000000000E+00  0.65282189257E+02  0.65282189257E+02  0.00000000000E+00 0.  1.
          1   -1    0    0  501    0  0.00000000000E+00 -0.00000000000E+00 -0.26201775427E+03  0.26201775427E+03  0.00000000000E+00 0. -1.
          5    1    1    2  502    0  0.99347420858E-01 -0.41681647875E+02  0.16552198365E+02  0.45042394588E+02  0.41800000000E+01 0.  1.
         -5    1    1    2    0  502 -0.17193778014E+02  0.73271191028E+02 -0.46286345232E+02  0.88454460555E+02  0.41800000000E+01 0.  1.
        -11    1    1    2    0    0  0.30945962308E+02 -0.58331067869E+02 -0.13224782758E+03  0.14781628449E+03  0.00000000000E+00 0. -1.
         11    1    1    2    0    0 -0.13851531715E+02  0.26741524716E+02 -0.34753590566E+02  0.45986803892E+02  0.00000000000E+00 0.  1.
</event>
<event>
 6    1  0.4988969E-006  0.8884985E+02  0.7561462E-02  0.1305661E+00
          1   -1    0    0  501    0  0.00000000000E+00  0.00000000000E+00  0.93520589859E+02  0.93520589859E+02  0.00000000000E+00 0. -1.
         -1   -1    0    0    0  501 -0.00000000000E+00 -0.00000000000E+00 -0.16688059994E+03  0.16688059994E+03  0.00000000000E+00 0.  1.
          5    1    1    2  502    0  0.80446856617E+01 -0.23674813332E+02  0.23613558512E+02  0.34645148279E+02  0.41800000000E+01 0. -1.
         -5    1    1    2    0  502  0.15119127487E+02  0.73874883125E+02 -0.89669985758E+02  0.11723593783E+03  0.41800000000E+01 0. -1.
        -11    1    1    2    0    0 -0.18606170857E+01 -0.54965381246E+02 -0.40841756191E+02  0.68503314374E+02  0.00000000000E+00 0.  1.
         11    1    1    2    0    0 -0.21303196063E+02  0.47653114528E+01  0.33538173352E+02  0.40016789320E+02  0.00000000000E+00 0. -1.
</event>
<event>
 6    1  0.4988969E-006  0.1116282E+03  0.7561462E-02  0.1257584E+00
          2   -1    0    0  501    0  0.00000000000E+00  0.00000000000E+00  0.42180240658E+03  0.42180240658E+03  0.00000000000E+00 0.  1.
         -2   -1    0    0    0  501 -0.00000000000E+00 -0.00000000000E+00 -0.43668110608E+02  0.43668110608E+02  0.00000000000E+00 0. -1.
          5    1    1    2  502    0 -0.14630261774E+02  0.16083984547E+01  0.13481165594E+03  0.13567714061E+03  0.41800000000E+01 0. -1.
         -5    1    1    2    0  502  0.81424457454E+02  0.43870307265E+02  0.63263837948E+02  0.11213532772E+03  0.41800000000E+01 0. -1.
        -11    1    1    2    0    0 -0.45351466117E+02 -0.69615590792E+02  0.15813175518E+03  0.17863017090E+03  0.00000000000E+00 0.  1.
         11    1    1    2    0    0 -0.21442729564E+02  0.24136885072E+02  0.21927046905E+02  0.39027877961E+02  0.00000000000E+00 0. -1.
</event>
<event>
 6    1  0.4988969E-006  0.1344022E+03  0.7561462E-02  0.1221066E+00
          2   -1    0    0  501    0  0.00000000000E+00  0.00000000000E+00  0.12754616892E+04  0.12754616892E+04  0.00000000000E+00 0. -1.
         -2   -1    0    0    0  501 -0.00000000000E+00 -0.00000000000E+00 -0.16093226569E+02  0.16093226569E+02  0.00000000000E+00 0.  1.
          5    1    1    2  502    0  0.65549190832E+02 -0.18486812473E+02  0.49782206206E+03  0.50247660296E+03  0.41800000000E+01 0.  1.
         -5    1    1    2    0  502 -0.32688164304E+02 -0.66012703113E+02  0.22936324698E+03  0.24093809271E+03  0.41800000000E+01 0.  1.
        -11    1    1    2    0    0  0.28310411035E+02  0.47504072441E+02  0.16375437643E+03  0.17283984515E+03  0.00000000000E+00 0. -1.
         11    1    1    2    0    0 -0.61171437563E+02  0.36995443144E+02  0.36842877722E+03  0.37530037499E+03  0.00000000000E+00 0.  1.
</event>
<event>
 6    1  0.4988969E-006  0.1334100E+03  0.7561462E-02  0.1222482E+00
         -2   -1    0    0    0  501 -0.00000000000E+00  0.00000000000E+00  0.36514302507E+02  0.36514302507E+02  0.00000000000E+00 0.  1.
          2   -1    0    0  501    0  0.00000000000E+00 -0.00000000000E+00 -0.82218075285E+03  0.82218075285E+03  0.00000000000E+00 0. -1.
          5    1    1    2  502    0  0.52517617494E+02  0.41759589559E+02 -0.35673340538E+02  0.76105342076E+02  0.41800000000E+01 0.  1.
         -5    1    1    2    0  502  0.32466089841E+02 -0.66476910315E+02 -0.12949338488E+03  0.14919529390E+03  0.41800000000E+01 0.  1.
        -11    1    1    2    0    0  0.13889530712E+02  0.22685465135E+02 -0.94179674917E+02  0.97863990105E+02  0.00000000000E+00 0. -1.
         11    1    1    2    0    0 -0.98873238047E+02  0.20318556208E+01 -0.52632005001E+03  0.53553042927E+03  0.00000000000E+00 0.  1.
</event>
<event>
 6    1  0.4988969E-006  0.8295542E+02  0.7561462E-02  0.1320868E+00
         -2   -1    0    0    0  501 -0.00000000000E+00  0.00000000000E+00  0.46870599490E+03  0.46870599490E+03  0.00000000000E+00 0.  1.
          2   -1    0    0  501    0  0.00000000000E+00 -0.00000000000E+00 -0.27242868166E+02  0.27242868166E+02  0.00000000000E+00 0. -1.
          5    1    1    2  502    0  0.31156476872E+02 -0.15076089204E+02  0.25997143082E+03  0.26229874525E+03  0.41800000000E+01 0. -1.
         -5    1    1    2    0  502 -0.25052245590E+02 -0.27912609381E+02  0.11023723315E+02  0.39315692126E+02  0.41800000000E+01 0. -1.
        -11    1    1    2    0    0 -0.19816689670E+02  0.64679252504E+02  0.12384885872E+03  0.14111926410E+03  0.00000000000E+00 0.  1.
         11    1    1    2    0    0  0.13712458388E+02 -0.21690553918E+02  0.46619113874E+02  0.53215161587E+02  0.00000000000E+00 0. -1.
</event>
<event>
 6    1  0.4988969E-006  0.1362024E+03  0.7561462E-02  0.1218532E+00
          1   -1    0    0  501    0  0.00000000000E+00  0.00000000000E+00  0.85653354439E+02  0.85653354439E+02  0.00000000000E+00 0. -1.
         -1   -1    0    0    0  501 -0.00000000000E+00 -0.00000000000E+00 -0.23323690526E+03  0.23323690526E+03  0.00000000000E+00 0.  1.
          5    1    1    2  502    0  0.82018494939E+02 -0.10489976325E+02 -0.69743613166E+02  0.10825302348E+03  0.41800000000E+01 0.  1.
         -5    1    1    2    0  502 -0.31756091692E+02 -0.60286552556E+02 -0.36513887485E+02  0.77418693853E+02  0.41800000000E+01 0.  1.
        -11    1    1    2    0    0  0.22810506093E+02  0.29929525723E+02  0.43031040013E+01  0.37876277566E+02  0.00000000000E+00 0. -1.
         11    1    1    2    0    0 -0.73072909339E+02  0.40847003158E+02 -0.45629154170E+02  0.95342264797E+02  0.00000000000E+00 0.  1.
</event>
<event>
 6    1  0.6974803E-006  0.1242255E+03  0.7561462E-02  0.1236285E+00
         -1   -1    0    0    0  501 -0.00000000000E+00  0.00000000000E+00  0.41414637446E+02  0.41414637446E+02  0.00000000000E+00 0.  1.
          1   -1    0    0  501    0  0.00000000000E+00 -0.00000000000E+00 -0.49911043643E+03  0.49911043643E+03  0.00000000000E+00 0. -1.
          5    1    1    2  502    0 -0.91722694081E+02  0.79476484639E+02 -0.14173190047E+03  0.18664128222E+03  0.41800000000E+01 0.  1.
         -5    1    1    2    0  502  0.24079050929E+02 -0.16415569712E+02 -0.71334119002E+02  0.77170593858E+02  0.41800000000E+01 0.  1.
        -11    1    1    2    0    0  0.25812987230E+02 -0.54576809331E+01 -0.51569462092E+01  0.26882906932E+02  0.00000000000E+00 0.  1.
         11    1    1    2    0    0  0.41830655921E+02 -0.57603233994E+02 -0.23947283331E+03  0.24983029086E+03  0.00000000000E+00 0. -1.
</event>
<event>
 6    1  0.4988969E-006  0.1466314E+03  0.7561462E-02  0.1204674E+00
         -1   -1    0    0    0  501 -0.00000000000E+00  0.00000000000E+00  0.60029781399E+02  0.60029781399E+02  0.00000000000E+00 0.  1.
          1   -1    0    0  501    0  0.00000000000E+00 -0.00000000000E+00 -0.45552533351E+03  0.45552533351E+03  0.00000000000E+00 0. -1.
          5    1    1    2  502    0 -0.96290392205E+02 -0.47115850479E+02 -0.76977007248E+02  0.13204042957E+03  0.41800000000E+01 0.  1.
         -5    1    1    2    0  502 -0.25010696009E+02  0.56213078770E+02 -0.92715152365E+02  0.11135087345E+03  0.41800000000E+01 0.  1.
        -11    1    1    2    0    0  0.80278271090E+02 -0.18149275636E+02 -0.21284051406E+03  0.22819965258E+03  0.00000000000E+00 0. -1.
         11    1    1    2    0    0  0.41022817124E+02  0.90520473441E+01 -0.12962878444E+02  0.43964159306E+02  0.00000000000E+00 0.  1.
</event>
<event>
 6    1  0.4988969E-006  0.1261234E+03  0.7561462E-02  0.1233324E+00
          4   -1    0    0  501    0  0.00000000000E+00  0.00000000000E+00  0.58445833652E+02  0.58445833652E+02  0.00000000000E+00 0. -1.
         -4   -1    0    0    0  501 -0.00000000000E+00 -0.00000000000E+00 -0.36776062416E+03  0.36776062416E+03  0.00000000000E+00 0.  1.
          5    1    1    2  502    0  0.45401333282E+02  0.14898825284E+02 -0.32468563399E+02  0.57921809950E+02  0.41800000000E+01 0. -1.
         -5    1    1    2    0  502 -0.61510409952E+02  0.75621484931E+02 -0.18675562337E+03  0.21070660829E+03  0.41800000000E+01 0. -1.
        -11    1    1    2    0    0  0.34751877697E+02 -0.74201402600E+02 -0.21587830953E+02  0.84732376319E+02  0.00000000000E+00 0. -1.
         11    1    1    2    0    0 -0.18642801028E+02 -0.16318907615E+02 -0.68502772783E+02  0.72845663254E+02  0.00000000000E+00 0.  1.
</event>
<event>
 6    1  0.4988969E-006  0.1712682E+03  0.7561462E-02  0.1176532E+00
          2   -1    0    0  501    0  0.00000000000E+00  0.00000000000E+00  0.12412018344E+03  0.12412018344E+03  0.00000000000E+00 0. -1.
         -2   -1    0    0    0  501 -0.00000000000E+00 -0.00000000000E+00 -0.33760594820E+03  0.33760594820E+03  0.00000000000E+00 0.  1.
          5    1    1    2  502    0  0.75539000448E+02 -0.65918537183E+02 -0.19109914634E+03  0.21584195668E+03  0.41800000000E+01 0.  1.
         -5    1    1    2    0  502  0.59721560074E+02 -0.15983276037E+02 -0.30017133532E-01  0.61964531400E+02  0.41800000000E+01 0.  1.
        -11    1    1    2    0    0 -0.11435235058E+02  0.51460753178E+02 -0.20009657106E+02  0.56385814670E+02  0.00000000000E+00 0.  1.
         11    1    1    2    0    0 -0.12382532546E+03  0.30441060041E+02 -0.23469441764E+01  0.12753382888E+03  0.00000000000E+00 0. -1.
</event>
<event>
 6    1  0.4988969E-006  0.1016596E+03  0.7561462E-02  0.1276844E+00
          2   -1    0    0  501    0  0.00000000000E+00  0.00000000000E+00  0.29387584031E+03  0.29387584031E+03  0.00000000000E+00 0. -1.
         -2   -1    0    0    0  501 -0.00000000000E+00 -0.00000000000E+00 -0.91521557478E+02  0.91521557478E+02  0.00000000000E+00 0.  1.
          5    1    1    2  502    0  0.25006630744E+02 -0.64247553351E+02 -0.39923758001E+02  0.79777556654E+02  0.41800000000E+01 0.  1.
         -5    1    1    2    0  502 -0.41588183747E+02  0.32140858541E+02  0.10364754375E+02  0.53735578051E+02  0.41800000000E+01 0.  1.
        -11    1    1    2    0    0  0.45079630408E+02  0.27072402959E+02  0.20738745245E+03  0.21395009585E+03  0.00000000000E+00 0. -1.
         11    1    1    2    0    0 -0.28498077404E+02  0.50342918508E+01  0.24525834011E+02  0.37934167239E+02  0.00000000000E+00 0.  1.
</event>
<event>
 6    1  0.4988969E-006  0.1109937E+03  0.7561462E-02  0.1258741E+00
          1   -1    0    0  501    0  0.00000000000E+00  0.00000000000E+00  0.45498847260E+03  0.45498847260E+03  0.00000000000E+00 0. -1.
         -1   -1    0    0    0  501 -0.00000000000E+00 -0.00000000000E+00 -0.30267929689E+02  0.30267929689E+02  0.00000000000E+00 0.  1.
          5    1    1    2  502    0  0.47610749679E+02 -0.99985368801E+01  0.11822701885E+03  0.12791346533E+03  0.41800000000E+01 0.  1.
         -5    1    1    2    0  502 -0.66504328847E+02  0.27446811225E+02  0.77891506999E+02  0.10611650420E+03  0.41800000000E+01 0.  1.
        -11    1    1    2    0    0 -0.36294905402E+02  0.12392805157E+02  0.58777810310E+02  0.70183564761E+02  0.00000000000E+00 0. -1.
         11    1    1    2    0    0  0.55188484571E+02 -0.29841079501E+02  0.16982420675E+03  0.18104286800E+03  0.00000000000E+00 0.  1.
</event>
<event>
 6    1  0.4988969E-006  0.2865456E+03  0.7561462E-02  0.1092167E+00
          2   -1    0    0  501    0  0.00000000000E+00  0.00000000000E+00  0.15896982719E+03  0.15896982719E+03  0.00000000000E+00 0. -1.
         -2   -1    0    0    0  501 -0.00000000000E+00 -0.00000000000E+00 -0.57415534510E+03  0.57415534510E+03  0.00000000000E+00 0.  1.
          5    1    1    2  502    0  0.29336906504E+02 -0.75360976401E+02 -0.12947075129E+03  0.15270913099E+03  0.41800000000E+01 0. -1.
         -5    1    1    2    0  502  0.15464786914E+03 -0.13779150239E+03 -0.91669183361E+02  0.22654618324E+03  0.41800000000E+01 0. -1.
        -11    1    1    2    0    0 -0.34887187893E+02  0.70174532968E+02 -0.99585285096E+02  0.12672335998E+03  0.00000000000E+00 0.  1.
         11    1    1    2    0    0 -0.14909758775E+03  0.14297794583E+03 -0.94460298166E+02  0.22714649809E+03  0.00000000000E+00 0. -1.
</event>
<event>
 6    1  0.4988969E-006  0.8484682E+02  0.7561462E-02  0.1315834E+00
          3   -1    0    0  501    0  0.00000000000E+00  0.00000000000E+00  0.14077417845E+03  0.14077417845E+03  0.00000000000E+00 0. -1.
         -3   -1    0    0    0  501 -0.00000000000E+00 -0.00000000000E+00 -0.98526808031E+02  0.98526808031E+02  0.00000000000E+00 0.  1.
          5    1    1    2  502    0  0.39497325981E+02 -0.47360304164E+01  0.37785003274E+02  0.55024063974E+02  0.41800000000E+01 0. -1.
         -5    1    1    2    0  502 -0.41313190502E+02  0.19367487863E+02 -0.55835356803E+02  0.72228379221E+02  0.41800000000E+01 0. -1.
        -11    1    1    2    0    0  0.23283066256E+02 -0.42642385314E+02  0.84259773098E+01  0.49309951259E+02  0.00000000000E+00 0. -1.
         11    1    1    2    0    0 -0.21467201735E+02  0.28010927867E+02  0.51871746633E+02  0.62738592024E+02  0.00000000000E+00 0.  1.
</event>
<event>
 6    1  0.4988969E-006  0.8560267E+02  0.7561462E-02  0.1313864E+00
          3   -1    0    0  501    0  0.00000000000E+00  0.00000000000E+00  0.29513220314E+02  0.29513220314E+02  0.00000000000E+00 0. -1.
         -3   -1    0    0    0  501 -0.00000000000E+00 -0.00000000000E+00 -0.48053833506E+03  0.48053833506E+03  0.00000000000E+00 0.  1.
          5    1    1    2  502    0 -0.40742955557E+02  0.29884849332E+02 -0.63487812534E+02  0.81248183902E+02  0.41800000000E+01 0. -1.
         -5    1    1    2    0  502  0.42895981084E+02 -0.22006426525E+02 -0.28543540268E+03  0.28950853097E+03  0.41800000000E+01 0. -1.
        -11    1    1    2    0    0  0.32477503832E+02 -0.16494392851E+02 -0.61758219958E+01  0.36945825583E+02  0.00000000000E+00 0. -1.
         11    1    1    2    0    0 -0.34630529359E+02  0.86159700438E+01 -0.95926077541E+02  0.10234901492E+03  0.00000000000E+00 0.  1.
</event>
<event>
 6    1  0.4988969E-006  0.1838348E+03  0.7561462E-02  0.1164143E+00
          3   -1    0    0  501    0  0.00000000000E+00  0.00000000000E+00  0.21639489477E+03  0.21639489477E+03  0.00000000000E+00 0. -1.
         -3   -1    0    0    0  501 -0.00000000000E+00 -0.00000000000E+00 -0.19601859224E+03  0.19601859224E+03  0.00000000000E+00 0.  1.
          5    1    1    2  502    0  0.56649321465E+02  0.11216653121E+03 -0.69602423640E+02  0.14370958953E+03  0.41800000000E+01 0. -1.
         -5    1    1    2    0  502  0.21227697310E+02  0.41643512599E+02  0.51966134837E+02  0.70019631851E+02  0.41800000000E+01 0. -1.
        -11    1    1    2    0    0 -0.96871662594E+02 -0.14421774879E+03  0.34181082629E+02  0.17706276991E+03  0.00000000000E+00 0.  1.
         11    1    1    2    0    0  0.18994643820E+02 -0.95922950223E+01  0.38315087010E+01  0.21621495706E+02  0.00000000000E+00 0. -1.
</event>
<event>
 6    1  0.4988969E-006  0.1025609E+03  0.7561462E-02  0.1275001E+00
         -2   -1    0    0    0  501 -0.00000000000E+00  0.00000000000E+00  0.89646084216E+02  0.89646084216E+02  0.00000000000E+00 0.  1.
          2   -1    0    0  501    0  0.00000000000E+00 -0.00000000000E+00 -0.17130203366E+03  0.17130203366E+03  0.00000000000E+00 0. -1.
          5    1    1    2  502    0  0.12111645639E+02 -0.32732297157E+02 -0.30792105544E+02  0.46730304954E+02  0.41800000000E+01 0.  1.
         -5    1    1    2    0  502 -0.29693285604E+02  0.80025141275E+02  0.22613721569E+02  0.88400041003E+02  0.41800000000E+01 0.  1.
        -11    1    1    2    0    0 -0.26174209275E+02 -0.20021117033E+02  0.35317464379E+01  0.33142232745E+02  0.00000000000E+00 0.  1.
         11    1    1    2    0    0  0.43755849239E+02 -0.27271727086E+02 -0.77009311905E+02  0.92675539173E+02  0.00000000000E+00 0. -1.
</event>
<event>
 6    1  0.4988969E-006  0.8265559E+02  0.7561462E-02  0.1321680E+00
          2   -1    0    0  501    0  0.00000000000E+00  0.00000000000E+00  0.50979782895E+02  0.50979782895E+02  0.00000000000E+00 0. -1.
         -2   -1    0    0    0  501 -0.00000000000E+00 -0.00000000000E+00 -0.24898223457E+03  0.24898223457E+03  0.00000000000E+00 0.  1.
          5    1    1    2  502    0 -0.47007159656E+02 -0.18945467064E+02 -0.43465457334E+02  0.66897848714E+02  0.41800000000E+01 0.  1.
         -5    1    1    2    0  502  0.71212679081E+02  0.28814723428E+02 -0.66835958768E+02  0.10191198032E+03  0.41800000000E+01 0.  1.
        -11    1    1    2    0    0 -0.28919775903E+01 -0.15265133798E+02  0.17660062736E+02  0.23521599863E+02  0.00000000000E+00 0. -1.
         11    1    1    2    0    0 -0.21313541834E+02  0.53958774343E+01 -0.10536109831E+03  0.10763058857E+03  0.00000000000E+00 0.  1.
</event>
<event>
 6    1  0.4988969E-006  0.3134687E+03  0.7561462E-02  0.1078695E+00
         -2   -1    0    0    0  501 -0.00000000000E+00  0.00000000000E+00  0.18915652733E+03  0.18915652733E+03  0.00000000000E+00 0. -1.
          2   -1    0    0  501    0  0.00000000000E+00 -0.00000000000E+00 -0.68145224928E+03  0.68145224928E+03  0.00000000000E+00 0.  1.
          5    1    1    2  502    0  0.13235745542E+02 -0.10738816051E+02  0.10238371313E+02  0.20317573117E+02  0.41800000000E+01 0.  1.
         -5    1    1    2    0  502 -0.23358080828E+03 -0.18831400217E+03 -0.53277018078E+02  0.30475903672E+03  0.41800000000E+01 0.  1.
        -11    1    1    2    0    0  0.15758492511E+03  0.84765637063E+02 -0.26826295530E+03  0.32246431591E+03  0.00000000000E+00 0.  1.
         11    1    1    2    0    0  0.62760137630E+02  0.11428718116E+03 -0.18099411988E+03  0.22306785085E+03  0.00000000000E+00 0. -1.
</event>
<event>
 6    1  0.4988969E-006  0.1107348E+03  0.7561462E-02  0.1259215E+00
          2   -1    0    0  501    0  0.00000000000E+00  0.00000000000E+00  0.24276191977E+03  0.24276191977E+03  0.00000000000E+00 0. -1.
         -2   -1    0    0    0  501 -0.00000000000E+00 -0.00000000000E+00 -0.70912523020E+02  0.70912523020E+02  0.00000000000E+00 0.  1.
          5    1    1    2  502    0 -0.41713024344E+02  0.75638576558E+02  0.10630572891E+03  0.13703850212E+03  0.41800000000E+01 0. -1.
         -5    1    1    2    0  502 -0.12357713165E+01 -0.19860895785E+02 -0.23681455733E+02  0.31213235298E+02  0.41800000000E+01 0.  1.
        -11    1    1    2    0    0 -0.14491302779E+02 -0.55349589623E+02  0.48551585623E+02  0.75038865891E+02  0.00000000000E+00 0. -1.
         11    1    1    2    0    0  0.57440098439E+02 -0.42809114964E+00  0.40673537946E+02  0.70383839478E+02  0.00000000000E+00 0.  1.
</event>
<event>
 6    1  0.4988969E-006  0.8870354E+02  0.7561462E-02  0.1306022E+00
          1   -1    0    0  501    0  0.00000000000E+00  0.00000000000E+00  0.40577470884E+02  0.40577470884E+02  0.00000000000E+00 0. -1.
         -1   -1    0    0    0  501 -0.00000000000E+00 -0.00000000000E+00 -0.42321221390E+03  0.42321221390E+03  0.00000000000E+00 0.  1.
          5    1    1    2  502    0 -0.18367291404E+02 -0.59777949750E+02 -0.23568200816E+03  0.24387341396E+03  0.41800000000E+01 0.  1.
         -5    1    1    2    0  502 -0.29619647865E+02  0.83617897569E+01  0.11248946406E+01  0.31080232553E+02  0.41800000000E+01 0.  1.
        -11    1    1    2    0    0 -0.86225982067E+01  0.11636487782E+02  0.90996390249E+01  0.17104399379E+02  0.00000000000E+00 0. -1.
         11    1    1    2    0    0  0.56609537476E+02  0.39779672211E+02 -0.15717726853E+03  0.17173163889E+03  0.00000000000E+00 0.  1.
</event>
<event>
 6    1  0.4988969E-006  0.1611700E+03  0.7561462E-02  0.1187382E+00
          2   -1    0    0  501    0  0.00000000000E+00  0.00000000000E+00  0.71354449288E+03  0.71354449288E+03  0.00000000000E+00 0. -1.
         -2   -1    0    0    0  501 -0.00000000000E+00 -0.00000000000E+00 -0.44225999290E+02  0.44225999290E+02  0.00000000000E+00 0.  1.
          5    1    1    2  502    0 -0.40809725240E+02  0.90250097540E+01  0.31498163337E+02  0.52502296796E+02  0.41800000000E+01 0.  1.
         -5    1    1    2    0  502  0.15553582813E+02  0.12886672662E+03  0.33629179727E+03  0.36049714628E+03  0.41800000000E+01 0.  1.
        -11    1    1    2    0    0  0.37694579732E+02 -0.55187422959E+02  0.21186812238E+03  0.22215902925E+03  0.00000000000E+00 0. -1.
         11    1    1    2    0    0 -0.12438437305E+02 -0.82704313419E+02  0.89660410602E+02  0.12261201984E+03  0.00000000000E+00 0.  1.
</event>
<event>
 6    1  0.4988969E-006  0.1887087E+03  0.7561462E-02  0.1159631E+00
         -2   -1    0    0    0  501 -0.00000000000E+00  0.00000000000E+00  0.10196234817E+03  0.10196234817E+03  0.00000000000E+00 0.  1.
          2   -1    0    0  501    0  0.00000000000E+00 -0.00000000000E+00 -0.38905107166E+03  0.38905107166E+03  0.00000000000E+00 0. -1.
          5    1    1    2  502    0 -0.24090938148E+02  0.68387839983E+02 -0.84243077254E+02  0.11122786712E+03  0.41800000000E+01 0. -1.
         -5    1    1    2    0  502 -0.12912984654E+03 -0.29950172630E+01 -0.62190150600E+02  0.14341748369E+03  0.41800000000E+01 0. -1.
        -11    1    1    2    0    0  0.70181757713E+02 -0.60017742287E+02 -0.28360181712E+02  0.96601803356E+02  0.00000000000E+00 0.  1.
         11    1    1    2    0    0  0.83039026978E+02 -0.53750804334E+01 -0.11229531392E+03  0.13976626567E+03  0.00000000000E+00 0. -1.
</event>
<event>
 6    1  0.4988969E-006  0.1139178E+03  0.7561462E-02  0.1253482E+00
          2   -1    0    0  501    0  0.00000000000E+00  0.00000000000E+00  0.11327748033E+04  0.11327748033E+04  0.00000000000E+00 0.  1.
         -2   -1    0    0    0  501 -0.00000000000E+00 -0.00000000000E+00 -0.12889133720E+02  0.12889133720E+02  0.00000000000E+00 0. -1.
          5    1    1    2  502    0  0.61372757404E+02 -0.39564967716E+01  0.32456860669E+03  0.33037028024E+03  0.41800000000E+01 0.  1.
         -5    1    1    2    0  502 -0.59911678814E+02 -0.34355685858E+02  0.36545431652E+03  0.37194630294E+03  0.41800000000E+01 0.  1.
        -11    1    1    2    0    0 -0.38523591061E+01  0.67554414014E+02  0.37573646391E+03  0.38178047335E+03  0.00000000000E+00 0.  1.
         11    1    1    2    0    0  0.23912805161E+01 -0.29242231384E+02  0.54126282423E+02  0.61566880445E+02  0.00000000000E+00 0. -1.
</event>
<event>
 6    1  0.4988969E-006  0.9097580E+02  0.7561462E-02  0.1300506E+00
         -2   -1    0    0    0  501 -0.00000000000E+00  0.00000000000E+00  0.12815395104E+03  0.12815395104E+03  0.00000000000E+00 0.  1.
          2   -1    0    0  501    0  0.00000000000E+00 -0.00000000000E+00 -0.18586042188E+03  0.18586042188E+03  0.00000000000E+00 0. -1.
          5    1    1    2  502    0 -0.52125446835E+02 -0.17760361755E+01  0.91171341970E+02  0.10511851649E+03  0.41800000000E+01 0. -1.
         -5    1    1    2    0  502  0.33415229981E+02 -0.21326999000E+02 -0.16978691066E+02  0.43326283378E+02  0.41800000000E+01 0. -1.
        -11    1    1    2    0    0  0.10336301258E+02 -0.32208254237E+02 -0.17183158791E+02  0.37940370461E+02  0.00000000000E+00 0.  1.
         11    1    1    2    0    0  0.83739155964E+01  0.55311289413E+02 -0.11471596295E+03  0.12762920260E+03  0.00000000000E+00 0. -1.
</event>
<event>
 6    1  0.4988969E-006  0.1115461E+03  0.7561462E-02  0.1257733E+00
          2   -1    0    0  501    0  0.00000000000E+00  0.00000000000E+00  0.53568926474E+03  0.53568926474E+03  0.00000000000E+00 0.  1.
         -2   -1    0    0    0  501 -0.00000000000E+00 -0.00000000000E+00 -0.29866748101E+02  0.29866748101E+02  0.00000000000E+00 0. -1.
          5    1    1    2  502    0 -0.63204351391E+01  0.58430566666E+02  0.83116526845E+02  0.10188183575E+03  0.41800000000E+01 0.  1.
         -5    1    1    2    0  502 -0.38099680495E+02 -0.63147849448E+02  0.98351919676E+02  0.12300328877E+03  0.41800000000E+01 0.  1.
        -11    1    1    2    0    0  0.66549757455E+02  0.10638241870E+02  0.29899709193E+03  0.30649845577E+03  0.00000000000E+00 0.  1.
         11    1    1    2    0    0 -0.22129641821E+02 -0.59209590876E+01  0.25356978190E+02  0.34172432553E+02  0.00000000000E+00 0. -1.
</event>
<event>
 6    1  0.4988969E-006  0.1151888E+03  0.7561462E-02  0.1251252E+00
          1   -1    0    0  501    0  0.00000000000E+00  0.00000000000E+00  0.47028201646E+03  0.47028201646E+03  0.00000000000E+00 0. -1.
         -1   -1    0    0    0  501 -0.00000000000E+00 -0.00000000000E+00 -0.32000931429E+02  0.32000931429E+02  0.00000000000E+00 0.  1.
          5    1    1    2  502    0  0.56125377295E+02 -0.44866033010E+02  0.79622859021E+02  0.10733261840E+03  0.41800000000E+01 0. -1.
         -5    1    1    2    0  502 -0.51099916693E+02 -0.11863516460E+02  0.16587358300E+03  0.17402144249E+03  0.41800000000E+01 0. -1.
        -11    1    1    2    0    0  0.42111445485E+02  0.28120043932E+02  0.70633732335E+02  0.86909348491E+02  0.00000000000E+00 0.  1.
         11    1    1    2    0    0 -0.47136906087E+02  0.28609505538E+02  0.12215091067E+03  0.13401953850E+03  0.00000000000E+00 0. -1.
</event>
<event>
 6    1  0.4988969E-006  0.1212936E+03  0.7561462E-02  0.1240978E+00
         -2   -1    0    0    0  501 -0.00000000000E+00  0.00000000000E+00  0.82416461216E+02  0.82416461216E+02  0.00000000000E+00 0.  1.
          2   -1    0    0  501    0  0.00000000000E+00 -0.00000000000E+00 -0.20964466923E+03  0.20964466923E+03  0.00000000000E+00 0. -1.
          5    1    1    2  502    0 -0.29717803658E+02 -0.23310139414E+02 -0.21750134273E+02  0.43784143188E+02  0.41800000000E+01 0.  1.
         -5    1    1    2    0  502  0.49431902201E+02  0.95157265706E+02 -0.44408127318E+02  0.11613773006E+03  0.41800000000E+01 0.  1.
        -11    1    1    2    0    0 -0.25046361634E+02 -0.82036651349E+02 -0.18109025014E+02  0.87665667069E+02  0.00000000000E+00 0.  1.
         11    1    1    2    0    0  0.53322630916E+01  0.10189525058E+02 -0.42960921407E+02  0.44473590127E+02  0.00000000000E+00 0. -1.
</event>
<event>
 6    1  0.4988969E-006  0.5505878E+03  0.7561462E-02  0.1001358E+00
          2   -1    0    0  501    0  0.00000000000E+00  0.00000000000E+00  0.28150936073E+04  0.28150936073E+04  0.00000000000E+00 0. -1.
         -2   -1    0    0    0  501 -0.00000000000E+00 -0.00000000000E+00 -0.25991740245E+03  0.25991740245E+03  0.00000000000E+00 0.  1.
          5    1    1    2  502    0 -0.37089391246E+03 -0.32385768155E+03  0.22494867107E+04  0.23027492322E+04  0.41800000000E+01 0. -1.
         -5    1    1    2    0  502  0.24755252166E+03  0.37561051233E+03  0.27812153742E+02  0.45072885003E+03  0.41800000000E+01 0.  1.
        -11    1    1    2    0    0  0.54887147991E+02 -0.69134439119E+02  0.12388745094E+03  0.15211926304E+03  0.00000000000E+00 0. -1.
         11    1    1    2    0    0  0.68454242808E+02  0.17381608342E+02  0.15398988949E+03  0.16941366454E+03  0.00000000000E+00 0.  1.
</event>
<event>
 6    1  0.4988969E-006  0.3040874E+03  0.7561462E-02  0.1083215E+00
         -1   -1    0    0    0  501 -0.00000000000E+00  0.00000000000E+00  0.20946231981E+03  0.20946231981E+03  0.00000000000E+00 0.  1.
          1   -1    0    0  501    0  0.00000000000E+00 -0.00000000000E+00 -0.61851301066E+03  0.61851301066E+03  0.00000000000E+00 0. -1.
          5    1    1    2  502    0  0.37740137847E+02  0.50781404087E+02  0.37933595416E+02  0.73888423091E+02  0.41800000000E+01 0.  1.
         -5    1    1    2    0  502 -0.45335818857E+01  0.24283440436E+03 -0.45112372301E+02  0.24706618515E+03  0.41800000000E+01 0.  1.
        -11    1    1    2    0    0 -0.75959810032E+01 -0.25732291420E+03 -0.29647005180E+03  0.39264140473E+03  0.00000000000E+00 0.  1.
         11    1    1    2    0    0 -0.25610574958E+02 -0.36292894255E+02 -0.10540186217E+03  0.11437931750E+03  0.00000000000E+00 0. -1.
</event>
<event>
 6    1  0.4988969E-006  0.9438991E+02  0.7561462E-02  0.1292556E+00
         -1   -1    0    0    0  501 -0.00000000000E+00  0.00000000000E+00  0.11154527162E+03  0.11154527162E+03  0.00000000000E+00 0.  1.
          1   -1    0    0  501    0  0.00000000000E+00 -0.00000000000E+00 -0.14406598802E+03  0.14406598802E+03  0.00000000000E+00 0. -1.
          5    1    1    2  502    0 -0.17872183790E+02 -0.33676606465E+02 -0.40388864094E+02  0.55697948967E+02  0.41800000000E+01 0.  1.
         -5    1    1    2    0  502  0.54247549281E+02 -0.47334924900E+01  0.60688602764E+02  0.81644237149E+02  0.41800000000E+01 0.  1.
        -11    1    1    2    0    0 -0.53834710726E+02  0.23619171291E+00 -0.41468658343E+01  0.53994706794E+02  0.00000000000E+00 0.  1.
         11    1    1    2    0    0  0.17459345236E+02  0.38173907242E+02 -0.48673589231E+02  0.64274366732E+02  0.00000000000E+00 0. -1.
</event>
<event>
 6    1  0.4988969E-006  0.7906483E+02  0.7561462E-02  0.1331726E+00
          2   -1    0    0  501    0  0.00000000000E+00  0.00000000000E+00  0.18836557469E+03  0.18836557469E+03  0.00000000000E+00 0.  1.
         -2   -1    0    0    0  501 -0.00000000000E+00 -0.00000000000E+00 -0.72021215648E+02  0.72021215648E+02  0.00000000000E+00 0. -1.
          5    1    1    2  502    0 -0.51715789024E+02 -0.22697883678E+02  0.59739431804E+02  0.82316394904E+02  0.41800000000E+01 0. -1.
         -5    1    1    2    0  502  0.51336913026E+02 -0.14628527059E+02 -0.15124185981E+02  0.55638887880E+02  0.41800000000E+01 0. -1.
        -11    1    1    2    0    0  0.12760331979E+02  0.56722562061E+01 -0.20122245788E+02  0.24492965076E+02  0.00000000000E+00 0. -1.
         11    1    1    2    0    0 -0.12381455981E+02  0.31654154531E+02  0.91851359008E+02  0.97938542478E+02  0.00000000000E+00 0.  1.
</event>
<event>
 6    1  0.4988969E-006  0.7134113E+02  0.7561462E-02  0.1355591E+00
          3   -1    0    0  501    0  0.00000000000E+00  0.00000000000E+00  0.92069820038E+02  0.92069820038E+02  0.00000000000E+00 0. -1.
         -3   -1    0    0    0  501 -0.00000000000E+00 -0.00000000000E+00 -0.16088588236E+03  0.16088588236E+03  0.00000000000E+00 0.  1.
          5    1    1    2  502    0 -0.87039928486E+00  0.12377291223E+02 -0.94707043997E+02  0.95607800495E+02  0.41800000000E+01 0. -1.
         -5    1    1    2    0  502 -0.34850262783E+02  0.25153195563E+02  0.31882419301E+02  0.53676672061E+02  0.41800000000E+01 0. -1.
        -11    1    1    2    0    0  0.55883924718E+02 -0.19009574573E+02 -0.30926606720E+02  0.66639567604E+02  0.00000000000E+00 0.  1.
         11    1    1    2    0    0 -0.20163262650E+02 -0.18520912213E+02  0.24935169097E+02  0.37031662234E+02  0.00000000000E+00 0. -1.
</event>
<event>
 6    1  0.4988969E-006  0.1002270E+03  0.7561462E-02  0.1279819E+00
         -1   -1    0    0    0  501 -0.00000000000E+00  0.00000000000E+00  0.11835646982E+03  0.11835646982E+03  0.00000000000E+00 0.  1.
          1   -1    0    0  501    0  0.00000000000E+00 -0.00000000000E+00 -0.14117725960E+03  0.14117725960E+03  0.00000000000E+00 0. -1.
          5    1    1    2  502    0  0.71919175820E+02  0.17482910649E+01 -0.65121575309E+02  0.97127320271E+02  0.41800000000E+01 0.  1.
         -5    1    1    2    0  502 -0.10142165149E+02  0.28363785138E+02  0.37459391329E+02  0.48249831295E+02  0.41800000000E+01 0.  1.
        -11    1    1    2    0    0 -0.14626694566E+02  0.22813007182E+02  0.28599411223E+02  0.39399236197E+02  0.00000000000E+00 0.  1.
         11    1    1    2    0    0 -0.47150316105E+02 -0.52925083384E+02 -0.23758017024E+02  0.74757341666E+02  0.00000000000E+00 0. -1.
</event>
<event>
 6    1  0.4988969E-006  0.8220907E+02  0.7561462E-02  0.1322897E+00
          2   -1    0    0  501    0  0.00000000000E+00  0.00000000000E+00  0.83981524238E+02  0.83981524238E+02  0.00000000000E+00 0. -1.
         -2   -1    0    0    0  501 -0.00000000000E+00 -0.00000000000E+00 -0.17118470428E+03  0.17118470428E+03  0.00000000000E+00 0.  1.
          5    1    1    2  502    0 -0.49098522798E+02  0.23165124830E+02 -0.10219763753E+03  0.11579774379E+03  0.41800000000E+01 0. -1.
         -5    1    1    2    0  502  0.30831181186E+02 -0.33886898717E+02  0.17265767272E+01  0.46036258592E+02  0.41800000000E+01 0. -1.
        -11    1    1    2    0    0  0.38195442932E+02 -0.50801541116E+01  0.40616362481E+02  0.55985611792E+02  0.00000000000E+00 0. -1.
         11    1    1    2    0    0 -0.19928101319E+02  0.15801927998E+02 -0.27348481714E+02  0.37346614341E+02  0.00000000000E+00 0.  1.
</event>
<event>
 6    1  0.4988969E-006  0.1002632E+03  0.7561462E-02  0.1279744E+00
         -3   -1    0    0    0  501 -0.00000000000E+00  0.00000000000E+00  0.15207887118E+03  0.15207887118E+03  0.00000000000E+00 0.  1.
          3   -1    0    0  501    0  0.00000000000E+00 -0.00000000000E+00 -0.10269731334E+03  0.10269731334E+03  0.00000000000E+00 0. -1.
          5    1    1    2  502    0 -0.45480630846E-01  0.38808985428E+02 -0.90132153438E+01  0.40060577495E+02  0.41800000000E+01 0. -1.
         -5    1    1    2    0  502  0.37606545864E+02 -0.69439306236E+02  0.76840963295E+02  0.11026366393E+03  0.41800000000E+01 0. -1.
        -11    1    1    2    0    0  0.13234625008E+02  0.28673150829E+02 -0.38509462703E+02  0.49802445676E+02  0.00000000000E+00 0.  1.
         11    1    1    2    0    0 -0.50795690241E+02  0.19571699792E+01  0.20063272596E+02  0.54649497424E+02  0.00000000000E+00 0. -1.
</event>
<event>
 6    1  0.4988969E-006  0.1474777E+03  0.7561462E-02  0.1203607E+00
         -2   -1    0    0    0  501 -0.00000000000E+00  0.00000000000E+00  0.41185092804E+02  0.41185092804E+02  0.00000000000E+00 0.  1.
          2   -1    0    0  501    0  0.00000000000E+00 -0.00000000000E+00 -0.80414549302E+03  0.80414549302E+03  0.00000000000E+00 0. -1.
          5    1    1    2  502    0 -0.75204021397E+01  0.35628584944E+02 -0.93659664624E+01  0.37830493536E+02  0.41800000000E+01 0. -1.
         -5    1    1    2    0  502 -0.96051342649E+02 -0.67080663314E+02 -0.16629826622E+03  0.20346562747E+03  0.41800000000E+01 0. -1.
        -11    1    1    2    0    0  0.10416619371E+03 -0.53129855787E+01 -0.44577233275E+03  0.45781196618E+03  0.00000000000E+00 0. -1.
         11    1    1    2    0    0 -0.59444891778E+00  0.36765063949E+02 -0.14152383478E+03  0.14622249864E+03  0.00000000000E+00 0.  1.
</event>
<event>
 6    1  0.4988969E-006  0.1030129E+03  0.7561462E-02  0.1274085E+00
         -2   -1    0    0    0  501 -0.00000000000E+00  0.00000000000E+00  0.35001300673E+03  0.35001300673E+03  0.00000000000E+00 0.  1.
          2   -1    0    0  501    0  0.00000000000E+00 -0.00000000000E+00 -0.78307498675E+02  0.78307498675E+02  0.00000000000E+00 0. -1.
          5    1    1    2  502    0  0.73867315748E+01 -0.18824608945E+02 -0.55948576061E+01  0.21394030404E+02  0.41800000000E+01 0. -1.
         -5    1    1    2    0  502  0.52442958734E+02  0.55985127478E+02  0.27853844242E+03  0.28893898097E+03  0.41800000000E+01 0.  1.
        -11    1    1    2    0    0 -0.58278681875E+02  0.11887593225E+02  0.22351006184E+02  0.63539649914E+02  0.00000000000E+00 0.  1.
         11    1    1    2    0    0 -0.15510084338E+01 -0.49048111759E+02 -0.23589082947E+02  0.54447844113E+02  0.00000000000E+00 0. -1.
</event>
<event>
 6    1  0.4988969E-006  0.1073124E+03  0.7561462E-02  0.1265629E+00
         -2   -1    0    0    0  501 -0.00000000000E+00  0.00000000000E+00  0.17171482532E+02  0.17171482532E+02  0.00000000000E+00 0.  1.
          2   -1    0    0  501    0  0.00000000000E+00 -0.00000000000E+00 -0.79984833370E+03  0.79984833370E+03  0.00000000000E+00 0. -1.
          5    1    1    2  502    0  0.10130814167E+00 -0.79241548007E+02 -0.34279448630E+03  0.35185901357E+03  0.41800000000E+01 0. -1.
         -5    1    1    2    0  502  0.51825574643E+02  0.30384861139E+02 -0.15323780128E+03  0.16464636685E+03  0.41800000000E+01 0. -1.
        -11    1    1    2    0    0 -0.75401109989E+01  0.21803276975E+02 -0.26097906632E+02  0.34832985679E+02  0.00000000000E+00 0.  1.
         11    1    1    2    0    0 -0.44386771786E+02  0.27053409893E+02 -0.26054665695E+03  0.26568145014E+03  0.00000000000E+00 0. -1.
</event>
<event>
 6    1  0.4988969E-006  0.8939706E+02  0.7561462E-02  0.1304318E+00
         -1   -1    0    0    0  501 -0.00000000000E+00  0.00000000000E+00  0.44374062696E+02  0.44374062696E+02  0.00000000000E+00 0.  1.
          1   -1    0    0  501    0  0.00000000000E+00 -0.00000000000E+00 -0.30642767767E+03  0.30642767767E+03  0.00000000000E+00 0. -1.
          5    1    1    2  502    0 -0.42488932480E+02  0.48157964236E+02 -0.10611931897E+03  0.12410995593E+03  0.41800000000E+01 0. -1.
         -5    1    1    2    0  502  0.19439911838E+02 -0.29421963781E+02  0.94524789001E+01  0.36747569747E+02  0.41800000000E+01 0. -1.
        -11    1    1    2    0    0 -0.16868605083E+02  0.18005080617E+02 -0.10875767064E+03  0.11152113562E+03  0.00000000000E+00 0. -1.
         11    1    1    2    0    0  0.39917625724E+02 -0.36741081072E+02 -0.56629104266E+02  0.78423079076E+02  0.00000000000E+00 0.  1.
</event>
<event>
 6    1  0.4988969E-006  0.1091764E+03  0.7561462E-02  0.1262103E+00
          1   -1    0    0  501    0  0.00000000000E+00  0.00000000000E+00  0.92349258430E+02  0.92349258430E+02  0.00000000000E+00 0. -1.
         -1   -1    0    0    0  501 -0.00000000000E+00 -0.00000000000E+00 -0.19621195504E+03  0.19621195504E+03  0.00000000000E+00 0.  1.
          5    1    1    2  502    0 -0.18321511523E+02 -0.83360297229E+02  0.18964899833E+02  0.87531461568E+02  0.41800000000E+01 0.  1.
         -5    1    1    2    0  502 -0.13097636693E+02  0.10526203769E+02 -0.65464042394E+02  0.67715303287E+02  0.41800000000E+01 0.  1.
        -11    1    1    2    0    0  0.41118311479E+02 -0.98642702510E+00 -0.38883156186E+02  0.56600250990E+02  0.00000000000E+00 0.  1.
         11    1    1    2    0    0 -0.96991632627E+01  0.73820520485E+02 -0.18480397867E+02  0.76714197630E+02  0.00000000000E+00 0. -1.
</event>
<event>
 6    1  0.4988969E-006  0.7735198E+02  0.7561462E-02  0.1336739E+00
          1   -1    0    0  501    0  0.00000000000E+00  0.00000000000E+00  0.35792750017E+03  0.35792750017E+03  0.00000000000E+00 0. -1.
         -1   -1    0    0    0  501 -0.00000000000E+00 -0.00000000000E+00 -0.35022090029E+02  0.35022090029E+02  0.00000000000E+00 0.  1.
          5    1    1    2  502    0 -0.49839413322E+02  0.39872504516E+02  0.41088781789E+02  0.76023313040E+02  0.41800000000E+01 0.  1.
         -5    1    1    2    0  502  0.20378636925E+02 -0.33851424367E+02  0.14412567281E+03  0.14950213958E+03  0.41800000000E+01 0.  1.
        -11    1    1    2    0    0  0.24184908002E+02  0.15582337541E+02  0.14190327929E+03  0.14479039916E+03  0.00000000000E+00 0. -1.
         11    1    1    2    0    0  0.52758683948E+01 -0.21603417690E+02 -0.42123237495E+01  0.22633738414E+02  0.00000000000E+00 0.  1.
</event>
<event>
 6    1  0.4988969E-006  0.7174344E+02  0.7561462E-02  0.1354263E+00
          1   -1    0    0  501    0  0.00000000000E+00  0.00000000000E+00  0.93938337109E+02  0.93938337109E+02  0.00000000000E+00 0. -1.
         -1   -1    0    0    0  501 -0.00000000000E+00 -0.00000000000E+00 -0.43983936109E+03  0.43983936109E+03  0.00000000000E+00 0.  1.
          5    1    1    2  502    0  0.90653717025E+00  0.16747584606E+02 -0.31967246630E+01  0.17578249297E+02  0.41800000000E+01 0. -1.
         -5    1    1    2    0  502 -0.62694918102E+01 -0.46228381680E+02 -0.40041658316E+03  0.40314672548E+03  0.41800000000E+01 0.  1.
        -11    1    1    2    0    0  0.12826444695E+02 -0.23010580516E+02  0.53782565531E+02  0.59887969195E+02  0.00000000000E+00 0.  1.
         11    1    1    2    0    0 -0.74634900553E+01  0.52491377590E+02  0.39297183142E+01  0.53164754219E+02  0.00000000000E+00 0. -1.
</event>
<event>
 6    1  0.4988969E-006  0.1918800E+03  0.7561462E-02  0.1156777E+00
         -1   -1    0    0    0  501 -0.00000000000E+00  0.00000000000E+00  0.39386387769E+02  0.39386387769E+02  0.00000000000E+00 0.  1.
          1   -1    0    0  501    0  0.00000000000E+00 -0.00000000000E+00 -0.10691707300E+04  0.10691707300E+04  0.00000000000E+00 0. -1.
          5    1    1    2  502    0 -0.13868259402E+03 -0.47751164433E+02 -0.25304384972E+03  0.29250931246E+03  0.41800000000E+01 0. -1.
         -5    1    1    2    0  502 -0.77039910259E+01 -0.45108635377E+02 -0.24816551658E+03  0.25238410505E+03  0.41800000000E+01 0. -1.
        -11    1    1    2    0    0  0.35161203114E+02 -0.13036902102E+02 -0.61947177824E+02  0.72413561307E+02  0.00000000000E+00 0.  1.
         11    1    1    2    0    0  0.11122538194E+03  0.10589670191E+03 -0.46662779813E+03  0.49125013899E+03  0.00000000000E+00 0. -1.
</event>
<event>
 6    1  0.4988969E-006  0.1079566E+03  0.7561462E-02  0.1264401E+00
          3   -1    0    0  501    0  0.00000000000E+00  0.00000000000E+00  0.27623908122E+02  0.27623908122E+02  0.00000000000E+00 0. -1.
         -3   -1    0    0    0  501 -0.00000000000E+00 -0.00000000000E+00 -0.11961664668E+04  0.11961664668E+04  0.00000000000E+00 0.  1.
          5    1    1    2  502    0  0.49924266867E+02  0.47314987541E+01 -0.81920138192E+03  0.82074551235E+03  0.41800000000E+01 0.  1.
         -5    1    1    2    0  502  0.13443731136E+01 -0.65071317174E+02 -0.23816949483E+03  0.24693777419E+03  0.41800000000E+01 0.  1.
        -11    1    1    2    0    0  0.13702527935E+02  0.37375546150E+01  0.14778278581E+01  0.14279795569E+02  0.00000000000E+00 0. -1.
         11    1    1    2    0    0 -0.64971167915E+02  0.56602263805E+02 -0.11264950976E+03  0.14182729278E+03  0.00000000000E+00 0.  1.
</event>
<event>
 6    1  0.4988969E-006  0.1683664E+03  0.7561462E-02  0.1179562E+00
          1   -1    0    0  501    0  0.00000000000E+00  0.00000000000E+00  0.38966540933E+02  0.38966540933E+02  0.00000000000E+00 0. -1.
         -1   -1    0    0    0  501 -0.00000000000E+00 -0.00000000000E+00 -0.85430613072E+03  0.85430613072E+03  0.00000000000E+00 0.  1.
          5    1    1    2  502    0 -0.10860433537E+03 -0.39388430524E+02 -0.21947886074E+03  0.24806207455E+03  0.41800000000E+01 0. -1.
         -5    1    1    2    0  502  0.12159562309E+02 -0.72058798250E+02 -0.22581840413E+03  0.23738523418E+03  0.41800000000E+01 0. -1.
        -11    1    1    2    0    0  0.41159901446E+02  0.57288158398E+02 -0.28160636371E+03  0.29030710405E+03  0.00000000000E+00 0.  1.
         11    1    1    2    0    0  0.55284871615E+02  0.54159070377E+02 -0.88435961199E+02  0.11751825887E+03  0.00000000000E+00 0. -1.
</event>
<event>
 6    1  0.4988969E-006  0.1103209E+03  0.7561462E-02  0.1259977E+00
         -1   -1    0    0    0  501 -0.00000000000E+00  0.00000000000E+00  0.66961905384E+02  0.66961905384E+02  0.00000000000E+00 0.  1.
          1   -1    0    0  501    0  0.00000000000E+00 -0.00000000000E+00 -0.20740479294E+03  0.20740479294E+03  0.00000000000E+00 0. -1.
          5    1    1    2  502    0  0.57545990535E+02 -0.25412944260E+02 -0.29527511353E+02  0.69618281287E+02  0.41800000000E+01 0.  1.
         -5    1    1    2    0  502 -0.63323836045E+02 -0.42591515530E+01 -0.60178365489E+01  0.63888460149E+02  0.41800000000E+01 0.  1.
        -11    1    1    2    0    0 -0.40811128635E+02  0.23228456062E+02 -0.53851398905E+02  0.71449860430E+02  0.00000000000E+00 0. -1.
         11    1    1    2    0    0  0.46588974145E+02  0.64436397505E+01 -0.51046140753E+02  0.69410096462E+02  0.00000000000E+00 0.  1.
</event>
<event>
 6    1  0.4988969E-006  0.2088798E+03  0.7561462E-02  0.1142456E+00
          1   -1    0    0  501    0  0.00000000000E+00  0.00000000000E+00  0.26898580685E+03  0.26898580685E+03  0.00000000000E+00 0. -1.
         -1   -1    0    0    0  501 -0.00000000000E+00 -0.00000000000E+00 -0.18701500755E+03  0.18701500755E+03  0.00000000000E+00 0.  1.
          5    1    1    2  502    0  0.52716361405E+02 -0.87942864826E+02  0.69945363744E+02  0.12418852017E+03  0.41800000000E+01 0. -1.
         -5    1    1    2    0  502  0.11779435062E+03 -0.28972869954E+01  0.55343593983E+01  0.11803391396E+03  0.41800000000E+01 0. -1.
        -11    1    1    2    0    0 -0.45620826888E+02  0.54468380895E+01 -0.34004540168E+02  0.57159746703E+02  0.00000000000E+00 0.  1.
         11    1    1    2    0    0 -0.12488988514E+03  0.85393313732E+02  0.40495616328E+02  0.15661863357E+03  0.00000000000E+00 0. -1.
</event>
<event>
 6    1  0.4988969E-006  0.8812294E+02  0.7561462E-02  0.1307462E+00
         -1   -1    0    0    0  501 -0.00000000000E+00  0.00000000000E+00  0.26192073968E+03  0.26192073968E+03  0.00000000000E+00 0.  1.
          1   -1    0    0  501    0  0.00000000000E+00 -0.00000000000E+00 -0.53826642658E+02  0.53826642658E+02  0.00000000000E+00 0. -1.
          5    1    1    2  502    0 -0.27996057643E+02 -0.26963493637E+02  0.68180609876E+01  0.39683341446E+02  0.41800000000E+01 0. -1.
         -5    1    1    2    0  502  0.10309463932E+02  0.44400156340E+02  0.17485284539E+03  0.18074470634E+03  0.41800000000E+01 0.  1.
        -11    1    1    2    0    0  0.47048686851E+02  0.13280159684E+02  0.17301539653E+02  0.51858315148E+02  0.00000000000E+00 0. -1.
         11    1    1    2    0    0 -0.29362093139E+02 -0.30716822387E+02  0.91216509966E+01  0.43461019408E+02  0.00000000000E+00 0.  1.
</event>
<event>
 6    1  0.4988969E-006  0.1126371E+03  0.7561462E-02  0.1255763E+00
         -2   -1    0    0    0  501 -0.00000000000E+00  0.00000000000E+00  0.16697691271E+03  0.16697691271E+03  0.00000000000E+00 0.  1.
          2   -1    0    0  501    0  0.00000000000E+00 -0.00000000000E+00 -0.96560937545E+02  0.96560937545E+02  0.00000000000E+00 0. -1.
          5    1    1    2  502    0  0.53927604960E+02  0.64441472734E+01  0.22050894811E+02  0.58765874219E+02  0.41800000000E+01 0.  1.
         -5    1    1    2    0  502 -0.58425720593E+02 -0.40711485585E+02  0.73240057862E+02  0.10223780299E+03  0.41800000000E+01 0.  1.
        -11    1    1    2    0    0  0.45485253159E+02  0.36648631522E+02 -0.14944843084E+02  0.60294102383E+02  0.00000000000E+00 0. -1.
         11    1    1    2    0    0 -0.40987137526E+02 -0.23812932109E+01 -0.99301344216E+01  0.42240070662E+02  0.00000000000E+00 0.  1.
</event>
<event>
 6    1  0.4988969E-006  0.1141562E+03  0.7561462E-02  0.1253061E+00
         -2   -1    0    0    0  501 -0.00000000000E+00  0.00000000000E+00  0.50095110111E+02  0.50095110111E+02  0.00000000000E+00 0.  1.
          2   -1    0    0  501    0  0.00000000000E+00 -0.00000000000E+00 -0.30731902928E+03  0.30731902928E+03  0.00000000000E+00 0. -1.
          5    1    1    2  502    0 -0.46049335081E+02 -0.94056914402E+01 -0.36006914332E+02  0.59354684504E+02  0.41800000000E+01 0.  1.
         -5    1    1    2    0  502  0.83731132805E+02 -0.32573719040E+02 -0.77741152946E+02  0.11888275331E+03  0.41800000000E+01 0.  1.
        -11    1    1    2    0    0  0.12726512498E+02 -0.11885037352E+02  0.47878325077E+00  0.17419743587E+02  0.00000000000E+00 0.  1.
         11    1    1    2    0    0 -0.50408310223E+02  0.53864447832E+02 -0.14395463514E+03  0.16175695799E+03  0.00000000000E+00 0. -1.
</event>
<event>
 6    1  0.4988969E-006  0.9783529E+02  0.7561462E-02  0.1284915E+00
         -2   -1    0    0    0  501 -0.00000000000E+00  0.00000000000E+00  0.16192127608E+03  0.16192127608E+03  0.00000000000E+00 0.  1.
          2   -1    0    0  501    0  0.00000000000E+00 -0.00000000000E+00 -0.75898733420E+02  0.75898733420E+02  0.00000000000E+00 0. -1.
          5    1    1    2  502    0  0.23652544508E+02  0.17211222865E+02 -0.12346692299E+02  0.32024713346E+02  0.41800000000E+01 0. -1.
         -5    1    1    2    0  502 -0.67503346640E+02 -0.76523380067E+01  0.78963754318E+02  0.10424973372E+03  0.41800000000E+01 0.  1.
        -11    1    1    2    0    0 -0.16157370556E+02  0.24280871186E+02  0.14251141743E+02  0.32460997671E+02  0.00000000000E+00 0.  1.
         11    1    1    2    0    0  0.60008172688E+02 -0.33839756044E+02  0.51543388937E+01  0.69084564759E+02  0.00000000000E+00 0. -1.
</event>
<event>
 6    1  0.4988969E-006  0.1018458E+03  0.7561462E-02  0.1276462E+00
         -1   -1    0    0    0  501 -0.00000000000E+00  0.00000000000E+00  0.20294572091E+03  0.20294572091E+03  0.00000000000E+00 0.  1.
          1   -1    0    0  501    0  0.00000000000E+00 -0.00000000000E+00 -0.62402894995E+02  0.62402894995E+02  0.00000000000E+00 0. -1.
          5    1    1    2  502    0  0.38083888196E+02  0.30527733565E+02  0.88132158618E+02  0.10083191379E+03  0.41800000000E+01 0.  1.
         -5    1    1    2    0  502 -0.47208539668E+02 -0.41718185148E+02  0.23243781950E+02  0.67281490686E+02  0.41800000000E+01 0.  1.
        -11    1    1    2    0    0  0.49625195863E+02  0.12003438601E+02  0.23941288569E+02  0.56390849444E+02  0.00000000000E+00 0. -1.
         11    1    1    2    0    0 -0.40500544391E+02 -0.81298701791E+00  0.52255967753E+01  0.40844361979E+02  0.00000000000E+00 0.  1.
</event>
<event>
 6    1  0.4988969E-006  0.1051689E+03  0.7561462E-02  0.1269787E+00
         -1   -1    0    0    0  501 -0.00000000000E+00  0.00000000000E+00  0.30537079128E+03  0.30537079128E+03  0.00000000000E+00 0.  1.
          1   -1    0    0  501    0  0.00000000000E+00 -0.00000000000E+00 -0.56952532066E+02  0.56952532066E+02  0.00000000000E+00 0. -1.
          5    1    1    2  502    0  0.30793844302E+02  0.31888748493E+02  0.10846426727E+03  0.11724812494E+03  0.41800000000E+01 0.  1.
         -5    1    1    2    0  502 -0.84412845079E+02  0.43494622175E+01  0.68189158642E+02  0.10868155314E+03  0.41800000000E+01 0.  1.
        -11    1    1    2    0    0  0.28631790363E+02 -0.46143026431E+02  0.89146696259E+02  0.10438434634E+03  0.00000000000E+00 0.  1.
         11    1    1    2    0    0  0.24987210413E+02  0.99048157211E+01 -0.17381862949E+02  0.32009298935E+02  0.00000000000E+00 0. -1.
</event>
<event>
 6    1  0.4988969E-006  0.1074862E+03  0.7561462E-02  0.1265297E+00
          1   -1    0    0  501    0  0.00000000000E+00  0.00000000000E+00  0.64479932633E+02  0.64479932633E+02  0.00000000000E+00 0. -1.
         -1   -1    0    0    0  501 -0.00000000000E+00 -0.00000000000E+00 -0.30283474988E+03  0.30283474988E+03  0.00000000000E+00 0.  1.
          5    1    1    2  502    0  0.40758100553E+02  0.17281531245E+02 -0.14047868676E+03  0.14734859319E+03  0.41800000000E+01 0.  1.
         -5    1    1    2    0  502 -0.31008603243E+02  0.66164697531E+02 -0.27180835818E+02  0.78074137268E+02  0.41800000000E+01 0.  1.
        -11    1    1    2    0    0 -0.15039219719E+02 -0.14064494190E+01  0.16282985849E+02  0.22210174647E+02  0.00000000000E+00 0. -1.
         11    1    1    2    0    0  0.52897224093E+01 -0.82039779357E+02 -0.86978280515E+02  0.11968177740E+03  0.00000000000E+00 0.  1.
</event>
<event>
 6    1  0.4988969E-006  0.1607475E+03  0.7561462E-02  0.1187855E+00
         -2   -1    0    0    0  501 -0.00000000000E+00  0.00000000000E+00  0.38987359316E+02  0.38987359316E+02  0.00000000000E+00 0.  1.
          2   -1    0    0  501    0  0.00000000000E+00 -0.00000000000E+00 -0.73772850626E+03  0.73772850626E+03  0.00000000000E+00 0. -1.
          5    1    1    2  502    0 -0.64439840497E+02 -0.14885554396E+01 -0.11286294207E+03  0.13003932072E+03  0.41800000000E+01 0.  1.
         -5    1    1    2    0  502  0.73950835143E+01 -0.11497007500E+03 -0.23111859016E+03  0.25827520308E+03  0.41800000000E+01 0.  1.
        -11    1    1    2    0    0 -0.95950265244E+01  0.35435452574E+02 -0.18678245377E+03  0.19035603712E+03  0.00000000000E+00 0.  1.
         11    1    1    2    0    0  0.66639783507E+02  0.81023177869E+02 -0.16797716094E+03  0.19804530465E+03  0.00000000000E+00 0. -1.
</event>
<event>
 6    1  0.4988969E-006  0.1101380E+03  0.7561462E-02  0.1260315E+00
          2   -1    0    0  501    0  0.00000000000E+00  0.00000000000E+00  0.42595274094E+03  0.42595274094E+03  0.00000000000E+00 0.  1.
         -2   -1    0    0    0  501 -0.00000000000E+00 -0.00000000000E+00 -0.30271220373E+02  0.30271220373E+02  0.00000000000E+00 0. -1.
          5    1    1    2  502    0  0.29932681197E+02  0.50164209843E+02  0.84736963684E+02  0.10300601326E+03  0.41800000000E+01 0.  1.
         -5    1    1    2    0  502 -0.44783027195E+01 -0.69015239338E+02  0.13768297871E+03  0.15413381680E+03  0.41800000000E+01 0.  1.
        -11    1    1    2    0    0 -0.30131702364E+02  0.51378378077E+02  0.14085749382E+03  0.15293296174E+03  0.00000000000E+00 0.  1.
         11    1    1    2    0    0  0.46773238867E+01 -0.32527348582E+02  0.32404084350E+02  0.46151169510E+02  0.00000000000E+00 0. -1.
</event>
<event>
 6    1  0.4988969E-006  0.1271053E+03  0.7561462E-02  0.1231815E+00
          3   -1    0    0  501    0  0.00000000000E+00  0.00000000000E+00  0.29431365296E+02  0.29431365296E+02  0.00000000000E+00 0. -1.
         -3   -1    0    0    0  501 -0.00000000000E+00 -0.00000000000E+00 -0.68700793804E+03  0.68700793804E+03  0.00000000000E+00 0.  1.
          5    1    1    2  502    0  0.53198869315E+02  0.30753775783E+02 -0.23275507134E+03  0.24076608992E+03  0.41800000000E+01 0.  1.
         -5    1    1    2    0  502  0.36249426576E+01 -0.84717195739E+02 -0.24688945286E+03  0.26107856633E+03  0.41800000000E+01 0.  1.
        -11    1    1    2    0    0  0.44494486120E+01  0.45674894822E+02 -0.12514980694E+03  0.13329841630E+03  0.00000000000E+00 0.  1.
         11    1    1    2    0    0 -0.61273260585E+02  0.82885251336E+01 -0.52782241599E+02  0.81296230785E+02  0.00000000000E+00 0. -1.
</event>
<event>
 6    1  0.4988969E-006  0.1171673E+03  0.7561462E-02  0.1247845E+00
         -4   -1    0    0    0  501 -0.00000000000E+00  0.00000000000E+00  0.13329481599E+03  0.13329481599E+03  0.00000000000E+00 0.  1.
          4   -1    0    0  501    0  0.00000000000E+00 -0.00000000000E+00 -0.13805599524E+03  0.13805599524E+03  0.00000000000E+00 0. -1.
          5    1    1    2  502    0  0.58156799403E+02  0.43992138048E+02 -0.10335233491E+02  0.73768631396E+02  0.41800000000E+01 0.  1.
         -5    1    1    2    0  502 -0.54037151064E+02  0.28956118477E+02  0.42238464336E+02  0.74565613804E+02  0.41800000000E+01 0.  1.
        -11    1    1    2    0    0  0.29224169017E+02 -0.54238427205E+02 -0.53160814626E+02  0.81375249629E+02  0.00000000000E+00 0. -1.
         11    1    1    2    0    0 -0.33343817356E+02 -0.18709829320E+02  0.16496404539E+02  0.41641316402E+02  0.00000000000E+00 0.  1.
</event>
<event>
 6    1  0.4988969E-006  0.1705876E+03  0.7561462E-02  0.1177236E+00
         -2   -1    0    0    0  501 -0.00000000000E+00  0.00000000000E+00  0.28375582121E+03  0.28375582121E+03  0.00000000000E+00 0.  1.
          2   -1    0    0  501    0  0.00000000000E+00 -0.00000000000E+00 -0.10971057045E+03  0.10971057045E+03  0.00000000000E+00 0. -1.
          5    1    1    2  502    0 -0.31326282694E+02  0.10789045892E+02  0.16253773611E+02  0.37140234992E+02  0.41800000000E+01 0.  1.
         -5    1    1    2    0  502  0.35762277058E+02 -0.14660923744E+03  0.10084960272E+03  0.18155253711E+03  0.41800000000E+01 0.  1.
        -11    1    1    2    0    0 -0.33452624771E+02  0.23691469522E+02  0.40792687678E+02  0.57830849900E+02  0.00000000000E+00 0.  1.
         11    1    1    2    0    0  0.29016630407E+02  0.11212872202E+03  0.16149186750E+02  0.11694276966E+03  0.00000000000E+00 0. -1.
</event>
<event>
 6    1  0.6454057E-006  0.1325039E+03  0.7561462E-02  0.1223787E+00
         -1   -1    0    0    0  501 -0.00000000000E+00  0.00000000000E+00  0.25238279670E+03  0.25238279670E+03  0.00000000000E+00 0.  1.
          1   -1    0    0  501    0  0.00000000000E+00 -0.00000000000E+00 -0.12123342982E+03  0.12123342982E+03  0.00000000000E+00 0. -1.
          5    1    1    2  502    0 -0.50099398653E+02 -0.98950205577E+02  0.14978129949E+03  0.18642157334E+03  0.41800000000E+01 0. -1.
         -5    1    1    2    0  502  0.95717751248E+01 -0.19934072899E+02 -0.22487910578E+02  0.31814535413E+02  0.41800000000E+01 0. -1.
        -11    1    1    2    0    0  0.32189819356E+01  0.69731349121E+02  0.43297981787E+02  0.82143399746E+02  0.00000000000E+00 0.  1.
         11    1    1    2    0    0  0.37308641593E+02  0.49152929355E+02 -0.39442003824E+02  0.73236718027E+02  0.00000000000E+00 0. -1.
</event>
<event>
 6    1  0.4988969E-006  0.1451915E+03  0.7561462E-02  0.1206509E+00
         -2   -1    0    0    0  501 -0.00000000000E+00  0.00000000000E+00  0.40205155803E+02  0.40205155803E+02  0.00000000000E+00 0.  1.
          2   -1    0    0  501    0  0.00000000000E+00 -0.00000000000E+00 -0.63288590533E+03  0.63288590533E+03  0.00000000000E+00 0. -1.
          5    1    1    2  502    0  0.11317208376E+03  0.80183728578E+02 -0.21228159900E+03  0.25361052925E+03  0.41800000000E+01 0.  1.
         -5    1    1    2    0  502 -0.95411588837E+01 -0.28726708461E+02 -0.65336827357E+02  0.72129265218E+02  0.41800000000E+01 0.  1.
        -11    1    1    2    0    0 -0.46219176484E+02 -0.36660531220E+01 -0.36675247494E+02  0.59116207584E+02  0.00000000000E+00 0.  1.
         11    1    1    2    0    0 -0.57411748397E+02 -0.47790966995E+02 -0.27838707568E+03  0.28823505909E+03  0.00000000000E+00 0. -1.
</event>
<event>
 6    1  0.4988969E-006  0.1528917E+03  0.7561462E-02  0.1196964E+00
          2   -1    0    0  501    0  0.00000000000E+00  0.00000000000E+00  0.19307037308E+03  0.19307037308E+03  0.00000000000E+00 0. -1.
         -2   -1    0    0    0  501 -0.00000000000E+00 -0.00000000000E+00 -0.13926544380E+03  0.13926544380E+03  0.00000000000E+00 0.  1.
          5    1    1    2  502    0 -0.46031534912E+02  0.73424940552E+02 -0.24238907238E+02  0.90083967084E+02  0.41800000000E+01 0. -1.
         -5    1    1    2    0  502 -0.62132449364E+02 -0.48225674199E+02  0.12039249105E+01  0.78772322241E+02  0.41800000000E+01 0. -1.
        -11    1    1    2    0    0  0.77542721586E+02  0.24986118696E+02  0.25328940244E+02  0.85315502767E+02  0.00000000000E+00 0.  1.
         11    1    1    2    0    0  0.30621262690E+02 -0.50185385049E+02  0.51510971363E+02  0.78164024794E+02  0.00000000000E+00 0. -1.
</event>
<event>
 6    1  0.4988969E-006  0.1254078E+03  0.7561462E-02  0.1234433E+00
          1   -1    0    0  501    0  0.00000000000E+00  0.00000000000E+00  0.25123181879E+03  0.25123181879E+03  0.00000000000E+00 0. -1.
         -1   -1    0    0    0  501 -0.00000000000E+00 -0.00000000000E+00 -0.97490766597E+02  0.97490766597E+02  0.00000000000E+00 0.  1.
          5    1    1    2  502    0  0.12893101179E+02 -0.96330435449E+01 -0.38203960779E+02  0.41665844587E+02  0.41800000000E+01 0.  1.
         -5    1    1    2    0  502  0.40633551781E+02  0.93983481765E+02  0.63096613550E+02  0.12034382168E+03  0.41800000000E+01 0.  1.
        -11    1    1    2    0    0  0.12678851652E+02  0.10209154168E+02  0.32522177700E+02  0.36368559916E+02  0.00000000000E+00 0. -1.
         11    1    1    2    0    0 -0.66205504612E+02 -0.94559592387E+02  0.96326221720E+02  0.15034435920E+03  0.00000000000E+00 0.  1.
</event>
<event>
 6    1  0.4988969E-006  0.1107530E+03  0.7561462E-02  0.1259182E+00
          1   -1    0    0  501    0  0.00000000000E+00  0.00000000000E+00  0.12439129443E+03  0.12439129443E+03  0.00000000000E+00 0. -1.
         -1   -1    0    0    0  501 -0.00000000000E+00 -0.00000000000E+00 -0.29825359880E+03  0.29825359880E+03  0.00000000000E+00 0.  1.
          5    1    1    2  502    0  0.86786090934E+02  0.15004776857E+01 -0.24683335273E+03  0.26168349858E+03  0.41800000000E+01 0. -1.
         -5    1    1    2    0  502 -0.24115031358E+02 -0.10054041732E+02 -0.55798740064E+01  0.27041188703E+02  0.41800000000E+01 0. -1.
        -11    1    1    2    0    0 -0.14457701954E+01  0.39512993039E+02  0.23855529657E+02  0.46178492457E+02  0.00000000000E+00 0. -1.
         11    1    1    2    0    0 -0.61225289381E+02 -0.30959428993E+02  0.54695392701E+02  0.87741713490E+02  0.00000000000E+00 0.  1.
</event>
<event>
 6    1  0.4988969E-006  0.9222484E+02  0.7561462E-02  0.1297552E+00
         -2   -1    0    0    0  501 -0.00000000000E+00  0.00000000000E+00  0.15088775198E+03  0.15088775198E+03  0.00000000000E+00 0.  1.
          2   -1    0    0  501    0  0.00000000000E+00 -0.00000000000E+00 -0.12468760955E+03  0.12468760955E+03  0.00000000000E+00 0. -1.
          5    1    1    2  502    0  0.25110545045E+02  0.20231288155E+02  0.93615321768E+02  0.99101692027E+02  0.41800000000E+01 0. -1.
         -5    1    1    2    0  502 -0.12730264879E+02  0.47484954086E+02 -0.29418908365E+02  0.57444103944E+02  0.41800000000E+01 0. -1.
        -11    1    1    2    0    0  0.24507819658E+02  0.10806923028E+01 -0.32575011461E+02  0.40779069288E+02  0.00000000000E+00 0. -1.
         11    1    1    2    0    0 -0.36888099825E+02 -0.68796934545E+02 -0.54212595126E+01  0.78250496267E+02  0.00000000000E+00 0.  1.
</event>
<event>
 6    1  0.4988969E-006  0.1562448E+03  0.7561462E-02  0.1193003E+00
         -2   -1    0    0    0  501 -0.00000000000E+00  0.00000000000E+00  0.52328036701E+03  0.52328036701E+03  0.00000000000E+00 0.  1.
          2   -1    0    0  501    0  0.00000000000E+00 -0.00000000000E+00 -0.80654249063E+02  0.80654249063E+02  0.00000000000E+00 0. -1.
          5    1    1    2  502    0  0.19776472481E+02  0.69739846985E+02  0.31483790779E+03  0.32310236103E+03  0.41800000000E+01 0.  1.
         -5    1    1    2    0  502 -0.20927637364E+02  0.73673843355E+02  0.60379520518E+02  0.97616392570E+02  0.41800000000E+01 0.  1.
        -11    1    1    2    0    0 -0.37822894029E+02 -0.83978195206E+02  0.63815970877E+02  0.11205082205E+03  0.00000000000E+00 0.  1.
         11    1    1    2    0    0  0.38974058913E+02 -0.59435495134E+02  0.35927187578E+01  0.71165040421E+02  0.00000000000E+00 0. -1.
</event>
<event>
 6    1  0.4988969E-006  0.1480084E+03  0.7561462E-02  0.1202942E+00
         -1   -1    0    0    0  501 -0.00000000000E+00  0.00000000000E+00  0.32209771589E+03  0.32209771589E+03  0.00000000000E+00 0.  1.
          1   -1    0    0  501    0  0.00000000000E+00 -0.00000000000E+00 -0.14278168627E+03  0.14278168627E+03  0.00000000000E+00 0. -1.
          5    1    1    2  502    0  0.29672997699E+01  0.70977599466E+02  0.18042613381E+03  0.19395279492E+03  0.41800000000E+01 0. -1.
         -5    1    1    2    0  502  0.78760892309E+02  0.38080141278E+02  0.47631352055E+02  0.99697509576E+02  0.41800000000E+01 0. -1.
        -11    1    1    2    0    0 -0.19910595448E+02 -0.15956327040E+02  0.26279161352E+02  0.36628274667E+02  0.00000000000E+00 0.  1.
         11    1    1    2    0    0 -0.61817596631E+02 -0.93101413704E+02 -0.75020617598E+02  0.13460082300E+03  0.00000000000E+00 0. -1.
</event>
<event>
 6    1  0.4988969E-006  0.1895314E+03  0.7561462E-02  0.1158885E+00
         -2   -1    0    0    0  501 -0.00000000000E+00  0.00000000000E+00  0.59709232115E+03  0.59709232115E+03  0.00000000000E+00 0.  1.
          2   -1    0    0  501    0  0.00000000000E+00 -0.00000000000E+00 -0.10344806307E+03  0.10344806307E+03  0.00000000000E+00 0. -1.
          5    1    1    2  502    0  0.89639760923E+02 -0.13138666078E+03  0.31043661346E+03  0.34883535478E+03  0.41800000000E+01 0. -1.
         -5    1    1    2    0  502 -0.37990954752E+02 -0.30033232701E+02  0.14564837402E+03  0.15354552733E+03  0.41800000000E+01 0. -1.
        -11    1    1    2    0    0 -0.30034966702E+01  0.45956168274E+02  0.54915136485E+02  0.71670514229E+02  0.00000000000E+00 0.  1.
         11    1    1    2    0    0 -0.48645309501E+02  0.11546372520E+03 -0.17355865882E+02  0.12648898788E+03  0.00000000000E+00 0. -1.
</event>
<event>
 6    1  0.4988969E-006  0.2532161E+03  0.7561462E-02  0.1111289E+00
          2   -1    0    0  501    0  0.00000000000E+00  0.00000000000E+00  0.38102668855E+03  0.38102668855E+03  0.00000000000E+00 0. -1.
         -2   -1    0    0    0  501 -0.00000000000E+00 -0.00000000000E+00 -0.21011201556E+03  0.21011201556E+03  0.00000000000E+00 0.  1.
          5    1    1    2  502    0 -0.67797183012E+01  0.16722234675E+03  0.47640025389E+02  0.17405838748E+03  0.41800000000E+01 0. -1.
         -5    1    1    2    0  502 -0.56970965744E+02  0.71721945750E+02 -0.47101258946E+02  0.10308117886E+03  0.41800000000E+01 0. -1.
        -11    1    1    2    0    0  0.43811173555E+02 -0.15750148260E+03  0.57310301960E+02  0.17323569684E+03  0.00000000000E+00 0.  1.
         11    1    1    2    0    0  0.19939510490E+02 -0.81442809894E+02  0.11306560459E+03  0.14076344093E+03  0.00000000000E+00 0. -1.
</event>
<event>
 6    1  0.4988969E-006  0.1286393E+03  0.7561462E-02  0.1229489E+00
         -3   -1    0    0    0  501 -0.00000000000E+00  0.00000000000E+00  0.22070753960E+03  0.22070753960E+03  0.00000000000E+00 0.  1.
          3   -1    0    0  501    0  0.00000000000E+00 -0.00000000000E+00 -0.86911627075E+02  0.86911627075E+02  0.00000000000E+00 0. -1.
          5    1    1    2  502    0 -0.35816625137E+02 -0.56137485100E+02 -0.47044351899E+01  0.66886859547E+02  0.41800000000E+01 0.  1.
         -5    1    1    2    0  502 -0.46717364360E+02  0.59224896544E+02  0.46564199295E+02  0.88745690371E+02  0.41800000000E+01 0.  1.
        -11    1    1    2    0    0  0.44083099051E+01 -0.31552579470E+02  0.48892008908E+02  0.58356036555E+02  0.00000000000E+00 0.  1.
         11    1    1    2    0    0  0.78125679592E+02  0.28465168025E+02  0.43044139508E+02  0.93630580199E+02  0.00000000000E+00 0. -1.
</event>
<event>
 6    1  0.4988969E-006  0.1012870E+03  0.7561462E-02  0.1277613E+00
         -1   -1    0    0    0  501 -0.00000000000E+00  0.00000000000E+00  0.21799165066E+03  0.21799165066E+03  0.00000000000E+00 0.  1.
          1   -1    0    0  501    0  0.00000000000E+00 -0.00000000000E+00 -0.77380232875E+02  0.77380232875E+02  0.00000000000E+00 0. -1.
          5    1    1    2  502    0  0.20730088411E+02  0.25005260856E+02 -0.14745641027E+02  0.35915260897E+02  0.41800000000E+01 0. -1.
         -5    1    1    2    0  502 -0.35853836717E+02  0.44222288397E+02  0.13148898285E+03  0.14334550363E+03  0.41800000000E+01 0.  1.
        -11    1    1    2    0    0  0.38870118550E+02 -0.78223025884E+02  0.12310494494E+02  0.88211542154E+02  0.00000000000E+00 0. -1.
         11    1    1    2    0    0 -0.23746370243E+02  0.89954766308E+01  0.11557581470E+02  0.27899576860E+02  0.00000000000E+00 0.  1.
</event>
<event>
 6    1  0.4988969E-006  0.8315763E+02  0.7561462E-02  0.1320322E+00
          2   -1    0    0  501    0  0.00000000000E+00  0.00000000000E+00  0.10473321969E+04  0.10473321969E+04  0.00000000000E+00 0. -1.
         -2   -1    0    0    0  501 -0.00000000000E+00 -0.00000000000E+00 -0.10065861277E+02  0.10065861277E+02  0.00000000000E+00 0.  1.
          5    1    1    2  502    0 -0.30787526076E+02 -0.24189681367E+02  0.52708193818E+03  0.52855071129E+03  0.41800000000E+01 0. -1.
         -5    1    1    2    0  502  0.26878593545E+02  0.39218872267E+02  0.96674232957E+02  0.10781446309E+03  0.41800000000E+01 0. -1.
        -11    1    1    2    0    0  0.39306497202E+02 -0.18876395700E+02  0.22247491547E+03  0.22670775692E+03  0.00000000000E+00 0.  1.
         11    1    1    2    0    0 -0.35397564672E+02  0.38472048009E+01  0.19103524902E+03  0.19432512689E+03  0.00000000000E+00 0. -1.
</event>
<event>
 6    1  0.4988969E-006  0.1195449E+03  0.7561462E-02  0.1243850E+00
         -4   -1    0    0    0  501 -0.00000000000E+00  0.00000000000E+00  0.89240486849E+02  0.89240486849E+02  0.00000000000E+00 0.  1.
          4   -1    0    0  501    0  0.00000000000E+00 -0.00000000000E+00 -0.29783606502E+03  0.29783606502E+03  0.00000000000E+00 0. -1.
          5    1    1    2  502    0 -0.31533939752E+02  0.90437629821E+02  0.27272423230E+02  0.99672522356E+02  0.41800000000E+01 0. -1.
         -5    1    1    2    0  502 -0.26816887061E+02 -0.36241587973E+02 -0.18409711074E+02  0.48877274804E+02  0.41800000000E+01 0. -1.
        -11    1    1    2    0    0  0.19896615873E+02 -0.56017434522E+02 -0.13639974348E+03  0.14879085427E+03  0.00000000000E+00 0. -1.
         11    1    1    2    0    0  0.38454210940E+02  0.18213926741E+01 -0.81058546853E+02  0.89735900442E+02  0.00000000000E+00 0.  1.
</event>
<event>
 6    1  0.4988969E-006  0.2507256E+03  0.7561462E-02  0.1112847E+00
         -1   -1    0    0    0  501 -0.00000000000E+00  0.00000000000E+00  0.80241019690E+02  0.80241019690E+02  0.00000000000E+00 0.  1.
          1   -1    0    0  501    0  0.00000000000E+00 -0.00000000000E+00 -0.98409592497E+03  0.98409592497E+03  0.00000000000E+00 0. -1.
          5    1    1    2  502    0  0.13680369853E+03 -0.14617643996E+03 -0.27360938674E+03  0.33906101581E+03  0.41800000000E+01 0.  1.
         -5    1    1    2    0  502 -0.51260562816E+00 -0.53214298294E+02 -0.10781011677E+02  0.54458488046E+02  0.41800000000E+01 0.  1.
        -11    1    1    2    0    0 -0.69110063715E+02  0.14765047173E+03 -0.48676271329E+03  0.51333692810E+03  0.00000000000E+00 0. -1.
         11    1    1    2    0    0 -0.67181029186E+02  0.51740266522E+02 -0.13270179357E+03  0.15748051269E+03  0.00000000000E+00 0.  1.
</event>
<event>
 6    1  0.4988969E-006  0.1078597E+03  0.7561462E-02  0.1264586E+00
         -1   -1    0    0    0  501 -0.00000000000E+00  0.00000000000E+00  0.15533239002E+03  0.15533239002E+03  0.00000000000E+00 0. -1.
          1   -1    0    0  501    0  0.00000000000E+00 -0.00000000000E+00 -0.19083192206E+03  0.19083192206E+03  0.00000000000E+00 0.  1.
          5    1    1    2  502    0 -0.40371163988E+02 -0.34185450375E+02  0.98712415893E+02  0.11207180444E+03  0.41800000000E+01 0.  1.
         -5    1    1    2    0  502  0.29067835866E+02 -0.51373133245E+02 -0.15528440637E+02  0.61177959838E+02  0.41800000000E+01 0.  1.
        -11    1    1    2    0    0  0.23209463781E+02  0.88268398137E+02 -0.12824459179E+03  0.15740605021E+03  0.00000000000E+00 0.  1.
         11    1    1    2    0    0 -0.11906135659E+02 -0.27098145164E+01  0.95610844909E+01  0.15508497596E+02  0.00000000000E+00 0. -1.
</event>
<event>
 6    1  0.4988969E-006  0.1088869E+03  0.7561462E-02  0.1262645E+00
          1   -1    0    0  501    0  0.00000000000E+00  0.00000000000E+00  0.75136392089E+03  0.75136392089E+03  0.00000000000E+00 0. -1.
         -1   -1    0    0    0  501 -0.00000000000E+00 -0.00000000000E+00 -0.20369800266E+02  0.20369800266E+02  0.00000000000E+00 0.  1.
          5    1    1    2  502    0  0.46284918380E+02  0.54453458064E+02  0.37859832433E+03  0.38530719737E+03  0.41800000000E+01 0. -1.
         -5    1    1    2    0  502 -0.41286222815E+02  0.10001746854E+02  0.49553104758E+02  0.65403132384E+02  0.41800000000E+01 0. -1.
        -11    1    1    2    0    0  0.21622088486E+02  0.10442363046E+02  0.42471796484E+02  0.48789457397E+02  0.00000000000E+00 0.  1.
         11    1    1    2    0    0 -0.26620784051E+02 -0.74897567963E+02  0.26037089505E+03  0.27223393400E+03  0.00000000000E+00 0. -1.
</event>
<event>
 6    1  0.4988969E-006  0.1059215E+03  0.7561462E-02  0.1268315E+00
          2   -1    0    0  501    0  0.00000000000E+00  0.00000000000E+00  0.59909143900E+03  0.59909143900E+03  0.00000000000E+00 0. -1.
         -2   -1    0    0    0  501 -0.00000000000E+00 -0.00000000000E+00 -0.27766988092E+02  0.27766988092E+02  0.00000000000E+00 0.  1.
          5    1    1    2  502    0  0.14740210470E+02  0.60117198339E+02  0.20964016604E+03  0.21862713226E+03  0.41800000000E+01 0. -1.
         -5    1    1    2    0  502 -0.40844788786E+02 -0.84868472678E+01  0.14247449459E+02  0.44280758390E+02  0.41800000000E+01 0. -1.
        -11    1    1    2    0    0  0.56816322939E+02 -0.12570682444E+02  0.20483388369E+03  0.21293904414E+03  0.00000000000E+00 0. -1.
         11    1    1    2    0    0 -0.30711744623E+02 -0.39059668627E+02  0.14260295171E+03  0.15101149230E+03  0.00000000000E+00 0.  1.
</event>
<event>
 6    1  0.4988969E-006  0.6431334E+02  0.7561462E-02  0.1380573E+00
         -1   -1    0    0    0  501 -0.00000000000E+00  0.00000000000E+00  0.35761222610E+02  0.35761222610E+02  0.00000000000E+00 0.  1.
          1   -1    0    0  501    0  0.00000000000E+00 -0.00000000000E+00 -0.36061354075E+03  0.36061354075E+03  0.00000000000E+00 0. -1.
          5    1    1    2  502    0  0.29375639783E+02  0.24817074240E+02 -0.22979739531E+03  0.23303032137E+03  0.41800000000E+01 0.  1.
         -5    1    1    2    0  502 -0.19919457845E+01  0.78266569754E+00  0.16451128734E+02  0.17108256785E+02  0.41800000000E+01 0.  1.
        -11    1    1    2    0    0  0.20341047041E+02 -0.31149073068E+02 -0.18489741200E+02  0.41543874126E+02  0.00000000000E+00 0.  1.
         11    1    1    2    0    0 -0.47724741039E+02  0.55493331309E+01 -0.93016310370E+02  0.10469231109E+03  0.00000000000E+00 0. -1.
</event>
<event>
 6    1  0.4988969E-006  0.8582258E+02  0.7561462E-02  0.1313295E+00
         -1   -1    0    0    0  501 -0.00000000000E+00  0.00000000000E+00  0.20028221819E+03  0.20028221819E+03  0.00000000000E+00 0.  1.
          1   -1    0    0  501    0  0.00000000000E+00 -0.00000000000E+00 -0.57727422692E+02  0.57727422692E+02  0.00000000000E+00 0. -1.
          5    1    1    2  502    0 -0.10378247282E+02  0.25341733582E+02 -0.13031607384E+02  0.30613831329E+02  0.41800000000E+01 0. -1.
         -5    1    1    2    0  502  0.26176126624E+02 -0.45329276240E+02  0.11105474079E+03  0.12284364348E+03  0.41800000000E+01 0.  1.
        -11    1    1    2    0    0 -0.48241045584E+02  0.30800048406E+02  0.14507901820E+02  0.59045073259E+02  0.00000000000E+00 0. -1.
         11    1    1    2    0    0  0.32443166242E+02 -0.10812505749E+02  0.30023760269E+02  0.45507092822E+02  0.00000000000E+00 0.  1.
</event>
<event>
 6    1  0.4988969E-006  0.1026569E+03  0.7561462E-02  0.1274806E+00
         -2   -1    0    0    0  501 -0.00000000000E+00  0.00000000000E+00  0.42134170507E+03  0.42134170507E+03  0.00000000000E+00 0.  1.
          2   -1    0    0  501    0  0.00000000000E+00 -0.00000000000E+00 -0.45449039466E+02  0.45449039466E+02  0.00000000000E+00 0. -1.
          5    1    1    2  502    0 -0.26776192951E+02  0.11612871945E+02  0.93967447492E+01  0.30945024085E+02  0.41800000000E+01 0. -1.
         -5    1    1    2    0  502  0.11064052541E+02 -0.66401603278E+02  0.30205392286E+03  0.30949253770E+03  0.41800000000E+01 0. -1.
        -11    1    1    2    0    0 -0.35971484283E+02  0.44663621357E+01  0.17173033383E+02  0.40109963199E+02  0.00000000000E+00 0.  1.
         11    1    1    2    0    0  0.51683624693E+02  0.50322369198E+02  0.47268964610E+02  0.86243219550E+02  0.00000000000E+00 0. -1.
</event>
<event>
 6    1  0.4988969E-006  0.7119305E+02  0.7561462E-02  0.1356082E+00
          3   -1    0    0  501    0  0.00000000000E+00  0.00000000000E+00  0.80117965254E+03  0.80117965254E+03  0.00000000000E+00 0. -1.
         -3   -1    0    0    0  501 -0.00000000000E+00 -0.00000000000E+00 -0.14461868137E+02  0.14461868137E+02  0.00000000000E+00 0.  1.
          5    1    1    2  502    0  0.26570977280E+02  0.36506164117E+01  0.13469781001E+02  0.30302660510E+02  0.41800000000E+01 0.  1.
         -5    1    1    2    0  502 -0.24640703117E+02 -0.49737078744E+01  0.42233783389E+03  0.42310592096E+03  0.41800000000E+01 0.  1.
        -11    1    1    2    0    0  0.40949793160E+02 -0.15376847874E+02  0.17958699255E+03  0.18483728223E+03  0.00000000000E+00 0.  1.
         11    1    1    2    0    0 -0.42880067322E+02  0.16699939337E+02  0.17132317696E+03  0.17739565697E+03  0.00000000000E+00 0. -1.
</event>
<event>
 6    1  0.4988969E-006  0.2494875E+03  0.7561462E-02  0.1113629E+00
          1   -1    0    0  501    0  0.00000000000E+00  0.00000000000E+00  0.33540404310E+03  0.33540404310E+03  0.00000000000E+00 0. -1.
         -1   -1    0    0    0  501 -0.00000000000E+00 -0.00000000000E+00 -0.26119180924E+03  0.26119180924E+03  0.00000000000E+00 0.  1.
          5    1    1    2  502    0 -0.20987309353E+02 -0.16007880747E+02 -0.28931377184E+02  0.39385484454E+02  0.41800000000E+01 0. -1.
         -5    1    1    2    0  502  0.15930192994E+03 -0.16395801260E+03 -0.89092174481E+02  0.24538586498E+03  0.41800000000E+01 0. -1.
        -11    1    1    2    0    0  0.12632287371E+02  0.20109294815E+02  0.31617921693E+02  0.39543032185E+02  0.00000000000E+00 0. -1.
         11    1    1    2    0    0 -0.15094690795E+03  0.15985659853E+03  0.16061786383E+03  0.27228147072E+03  0.00000000000E+00 0.  1.
</event>
<event>
 6    1  0.4988969E-006  0.7852717E+02  0.7561462E-02  0.1333284E+00
         -2   -1    0    0    0  501 -0.00000000000E+00  0.00000000000E+00  0.20938875841E+02  0.20938875841E+02  0.00000000000E+00 0.  1.
          2   -1    0    0  501    0  0.00000000000E+00 -0.00000000000E+00 -0.59550202742E+03  0.59550202742E+03  0.00000000000E+00 0. -1.
          5    1    1    2  502    0  0.38300838212E+02 -0.16673982261E+02 -0.25338080777E+03  0.25683512618E+03  0.41800000000E+01 0. -1.
         -5    1    1    2    0  502 -0.20767964679E+02  0.22508911604E+02 -0.56644801563E+01  0.31424802210E+02  0.41800000000E+01 0. -1.
        -11    1    1    2    0    0 -0.61393134613E+01  0.38193625694E+02 -0.87467037924E+02  0.95639567840E+02  0.00000000000E+00 0.  1.
         11    1    1    2    0    0 -0.11393560072E+02 -0.44028555036E+02 -0.22805082573E+03  0.23254140703E+03  0.00000000000E+00 0. -1.
</event>
<event>
 6    1  0.4988969E-006  0.1419311E+03  0.7561462E-02  0.1210754E+00
          4   -1    0    0  501    0  0.00000000000E+00  0.00000000000E+00  0.30057194722E+03  0.30057194722E+03  0.00000000000E+00 0. -1.
         -4   -1    0    0    0  501 -0.00000000000E+00 -0.00000000000E+00 -0.92221210477E+02  0.92221210477E+02  0.00000000000E+00 0.  1.
          5    1    1    2  502    0 -0.99915496200E+02  0.54189590937E+02  0.30937593823E+02  0.11787376832E+03  0.41800000000E+01 0. -1.
         -5    1    1    2    0  502  0.37509202609E+02  0.38808581123E+02  0.12637022479E+02  0.55589684172E+02  0.41800000000E+01 0. -1.
        -11    1    1    2    0    0  0.51087994965E+01 -0.31583409216E+02  0.11991025298E+03  0.12410511811E+03  0.00000000000E+00 0. -1.
         11    1    1    2    0    0  0.57297494094E+02 -0.61414762844E+02  0.44865867456E+02  0.95224587094E+02  0.00000000000E+00 0.  1.
</event>
<event>
 6    1  0.4988969E-006  0.1634937E+03  0.7561462E-02  0.1184808E+00
          1   -1    0    0  501    0  0.00000000000E+00  0.00000000000E+00  0.92914346291E+02  0.92914346291E+02  0.00000000000E+00 0. -1.
         -1   -1    0    0    0  501 -0.00000000000E+00 -0.00000000000E+00 -0.36290706581E+03  0.36290706581E+03  0.00000000000E+00 0.  1.
          5    1    1    2  502    0  0.52514740320E+00 -0.20890773251E+02 -0.50611529664E+02  0.54915385110E+02  0.41800000000E+01 0. -1.
         -5    1    1    2    0  502 -0.76643632580E+02  0.13200990246E+03 -0.17540374404E+03  0.23256140391E+03  0.41800000000E+01 0.  1.
        -11    1    1    2    0    0  0.87172817697E+02 -0.74335453710E+02 -0.66047719977E+01  0.11475401011E+03  0.00000000000E+00 0. -1.
         11    1    1    2    0    0 -0.11054332520E+02 -0.36783675500E+02 -0.37372673810E+02  0.53590612970E+02  0.00000000000E+00 0.  1.
</event>
<event>
 6    1  0.4988969E-006  0.1137643E+03  0.7561462E-02  0.1253754E+00
         -1   -1    0    0    0  501 -0.00000000000E+00  0.00000000000E+00  0.22207276591E+03  0.22207276591E+03  0.00000000000E+00 0.  1.
          1   -1    0    0  501    0  0.00000000000E+00 -0.00000000000E+00 -0.87474293952E+02  0.87474293952E+02  0.00000000000E+00 0. -1.
          5    1    1    2  502    0  0.62201078688E+02  0.59071185199E+01  0.88901790107E+02  0.10874221316E+03  0.41800000000E+01 0. -1.
         -5    1    1    2    0  502 -0.30367695361E+02  0.71259090055E+02  0.49153281389E+02  0.91834483220E+02  0.41800000000E+01 0.  1.
        -11    1    1    2    0    0 -0.37894456088E+01 -0.42850953219E+02 -0.34264865257E+02  0.54996773368E+02  0.00000000000E+00 0. -1.
         11    1    1    2    0    0 -0.28043937718E+02 -0.34315255356E+02  0.30808265719E+02  0.53973590111E+02  0.00000000000E+00 0.  1.
</event>
<event>
 6    1  0.4988969E-006  0.7908207E+02  0.7561462E-02  0.1331677E+00
         -2   -1    0    0    0  501 -0.00000000000E+00  0.00000000000E+00  0.21733167781E+03  0.21733167781E+03  0.00000000000E+00 0.  1.
          2   -1    0    0  501    0  0.00000000000E+00 -0.00000000000E+00 -0.63643577223E+02  0.63643577223E+02  0.00000000000E+00 0. -1.
          5    1    1    2  502    0 -0.18500503741E+02  0.70519551537E+02  0.70826667338E+01  0.73368333467E+02  0.41800000000E+01 0. -1.
         -5    1    1    2    0  502  0.29857626340E+02 -0.28073396226E+02  0.66607567387E+02  0.78317519493E+02  0.41800000000E+01 0. -1.
        -11    1    1    2    0    0 -0.29590746403E+01 -0.12056284508E+02 -0.20497812352E+02  0.23963940203E+02  0.00000000000E+00 0. -1.
         11    1    1    2    0    0 -0.83980479589E+01 -0.30389870804E+02  0.10049567882E+03  0.10532546187E+03  0.00000000000E+00 0.  1.
</event>
<event>
 6    1  0.4988969E-006  0.1222586E+03  0.7561462E-02  0.1239417E+00
         -2   -1    0    0    0  501 -0.00000000000E+00  0.00000000000E+00  0.18668381514E+02  0.18668381514E+02  0.00000000000E+00 0. -1.
          2   -1    0    0  501    0  0.00000000000E+00 -0.00000000000E+00 -0.10225089151E+04  0.10225089151E+04  0.00000000000E+00 0.  1.
          5    1    1    2  502    0  0.71704524768E+02 -0.31710547574E+02 -0.47311000272E+03  0.47958069683E+03  0.41800000000E+01 0. -1.
         -5    1    1    2    0  502  0.52417023170E+01  0.47861326125E+02 -0.85247719534E+02  0.97994020570E+02  0.41800000000E+01 0. -1.
        -11    1    1    2    0    0 -0.39101734428E+02 -0.52325152751E+02 -0.15131160677E+03  0.16480919146E+03  0.00000000000E+00 0. -1.
         11    1    1    2    0    0 -0.37844492657E+02  0.36174374201E+02 -0.29417120460E+03  0.29879338779E+03  0.00000000000E+00 0.  1.
</event>
<event>
 6    1  0.4988969E-006  0.2164510E+03  0.7561462E-02  0.1136557E+00
         -1   -1    0    0    0  501 -0.00000000000E+00  0.00000000000E+00  0.22401722304E+03  0.22401722304E+03  0.00000000000E+00 0.  1.
          1   -1    0    0  501    0  0.00000000000E+00 -0.00000000000E+00 -0.25865065319E+03  0.25865065319E+03  0.00000000000E+00 0. -1.
          5    1    1    2  502    0 -0.59560091254E+00  0.95666742748E+01  0.28161545901E+02  0.30040323977E+02  0.41800000000E+01 0.  1.
         -5    1    1    2    0  502  0.93915737632E+02 -0.19186562070E+03  0.18755864943E+02  0.21448038850E+03  0.41800000000E+01 0.  1.
        -11    1    1    2    0    0 -0.87233620279E+02  0.13263403502E+03 -0.21843004067E+02  0.16024546352E+03  0.00000000000E+00 0.  1.
         11    1    1    2    0    0 -0.60865164407E+01  0.49664911414E+02 -0.59707836926E+02  0.77901700228E+02  0.00000000000E+00 0. -1.
</event>
<event>
 6    1  0.4988969E-006  0.1126280E+03  0.7561462E-02  0.1255779E+00
         -1   -1    0    0    0  501 -0.00000000000E+00  0.00000000000E+00  0.17188558705E+02  0.17188558705E+02  0.00000000000E+00 0.  1.
          1   -1    0    0  501    0  0.00000000000E+00 -0.00000000000E+00 -0.82916866119E+03  0.82916866119E+03  0.00000000000E+00 0. -1.
          5    1    1    2  502    0  0.78367622107E+02 -0.27341743789E+02 -0.19301621385E+03  0.21014705888E+03  0.41800000000E+01 0. -1.
         -5    1    1    2    0  502 -0.45422464211E+02  0.10381611555E+02 -0.13423054291E+03  0.14214882751E+03  0.41800000000E+01 0. -1.
        -11    1    1    2    0    0 -0.40280044286E+02  0.48467098367E+02 -0.30556727239E+03  0.31199823645E+03  0.00000000000E+00 0.  1.
         11    1    1    2    0    0  0.73348863900E+01 -0.31506966132E+02 -0.17916607334E+03  0.18206309706E+03  0.00000000000E+00 0. -1.
</event>
<event>
 6    1  0.4988969E-006  0.1223157E+03  0.7561462E-02  0.1239325E+00
         -2   -1    0    0    0  501 -0.00000000000E+00  0.00000000000E+00  0.13840499637E+03  0.13840499637E+03  0.00000000000E+00 0.  1.
          2   -1    0    0  501    0  0.00000000000E+00 -0.00000000000E+00 -0.17642951580E+03  0.17642951580E+03  0.00000000000E+00 0. -1.
          5    1    1    2  502    0  0.29627356935E+01 -0.65549372095E+02  0.34441048812E+02  0.74223690477E+02  0.41800000000E+01 0.  1.
         -5    1    1    2    0  502  0.81402968666E+02  0.29328404149E+02  0.10125706119E+02  0.87215829537E+02  0.41800000000E+01 0.  1.
        -11    1    1    2    0    0 -0.57991976697E+02  0.20262593595E+02  0.39208370241E+01  0.61554975618E+02  0.00000000000E+00 0.  1.
         11    1    1    2    0    0 -0.26373727662E+02  0.15958374351E+02 -0.86512111383E+02  0.91840016543E+02  0.00000000000E+00 0. -1.
</event>
<event>
 6    1  0.4988969E-006  0.1755800E+03  0.7561462E-02  0.1172151E+00
          2   -1    0    0  501    0  0.00000000000E+00  0.00000000000E+00  0.38514137200E+03  0.38514137200E+03  0.00000000000E+00 0. -1.
         -2   -1    0    0    0  501 -0.00000000000E+00 -0.00000000000E+00 -0.95167897820E+02  0.95167897820E+02  0.00000000000E+00 0.  1.
          5    1    1    2  502    0 -0.75227939020E+02 -0.93674901906E+02  0.20969823798E+02  0.12203047147E+03  0.41800000000E+01 0. -1.
         -5    1    1    2    0  502 -0.53767205087E+02  0.26655642589E+02  0.63670165316E+02  0.87594508824E+02  0.41800000000E+01 0. -1.
        -11    1    1    2    0    0  0.40213168608E+02 -0.21343885949E+02  0.27578031229E+02  0.53227889338E+02  0.00000000000E+00 0.  1.
         11    1    1    2    0    0  0.88781975500E+02  0.88363145267E+02  0.17775545384E+03  0.21745640019E+03  0.00000000000E+00 0. -1.
</event>
<event>
 6    1  0.4988969E-006  0.9104986E+02  0.7561462E-02  0.1300329E+00
          1   -1    0    0  501    0  0.00000000000E+00  0.00000000000E+00  0.14401747191E+03  0.14401747191E+03  0.00000000000E+00 0. -1.
         -1   -1    0    0    0  501 -0.00000000000E+00 -0.00000000000E+00 -0.11192984423E+03  0.11192984423E+03  0.00000000000E+00 0.  1.
          5    1    1    2  502    0 -0.14929450650E+02  0.50398641773E+02  0.46001318705E+02  0.69975033490E+02  0.41800000000E+01 0. -1.
         -5    1    1    2    0  502  0.27975258274E+02  0.43762795555E+01 -0.61805182251E+02  0.68111084643E+02  0.41800000000E+01 0. -1.
        -11    1    1    2    0    0  0.33585508339E+02 -0.39119405078E+02  0.36244437972E+01  0.51686079527E+02  0.00000000000E+00 0.  1.
         11    1    1    2    0    0 -0.46631315962E+02 -0.15655516250E+02  0.44267047431E+02  0.66175118479E+02  0.00000000000E+00 0. -1.
</event>
<event>
 6    1  0.4988969E-006  0.2281177E+03  0.7561462E-02  0.1127972E+00
          1   -1    0    0  501    0  0.00000000000E+00  0.00000000000E+00  0.41057603735E+03  0.41057603735E+03  0.00000000000E+00 0. -1.
         -1   -1    0    0    0  501 -0.00000000000E+00 -0.00000000000E+00 -0.15111099286E+03  0.15111099286E+03  0.00000000000E+00 0.  1.
          5    1    1    2  502    0 -0.73545337362E+02  0.12809722064E+03 -0.32451015625E+00  0.14776803541E+03  0.41800000000E+01 0. -1.
         -5    1    1    2    0  502 -0.40588199734E+02  0.63054736349E+02  0.10298461721E+03  0.12746217288E+03  0.41800000000E+01 0. -1.
        -11    1    1    2    0    0  0.63923385286E+02 -0.43275126787E+02  0.84217110245E+02  0.11424297546E+03  0.00000000000E+00 0. -1.
         11    1    1    2    0    0  0.50210151810E+02 -0.14787683020E+03  0.72587827183E+02  0.17221384645E+03  0.00000000000E+00 0.  1.
</event>
<event>
 6    1  0.4988969E-006  0.7660345E+02  0.7561462E-02  0.1338976E+00
          3   -1    0    0  501    0  0.00000000000E+00  0.00000000000E+00  0.78093168231E+02  0.78093168231E+02  0.00000000000E+00 0. -1.
         -3   -1    0    0    0  501 -0.00000000000E+00 -0.00000000000E+00 -0.21932710123E+03  0.21932710123E+03  0.00000000000E+00 0.  1.
          5    1    1    2  502    0 -0.19964220350E+02 -0.12469592694E+02  0.13300567208E+02  0.27357600849E+02  0.41800000000E+01 0. -1.
         -5    1    1    2    0  502  0.19779193637E+02  0.38575681063E+02 -0.16669702463E+03  0.17229239708E+03  0.41800000000E+01 0. -1.
        -11    1    1    2    0    0  0.28917158820E+02  0.17297826232E+02 -0.17384928347E+02  0.37916389599E+02  0.00000000000E+00 0.  1.
         11    1    1    2    0    0 -0.28732132107E+02 -0.43403914600E+02  0.29547452767E+02  0.59853881938E+02  0.00000000000E+00 0. -1.
</event>
<event>
 6    1  0.4988969E-006  0.1066828E+03  0.7561462E-02  0.1266839E+00
          1   -1    0    0  501    0  0.00000000000E+00  0.00000000000E+00  0.37055083030E+02  0.37055083030E+02  0.00000000000E+00 0. -1.
         -1   -1    0    0    0  501 -0.00000000000E+00 -0.00000000000E+00 -0.45672484220E+03  0.45672484220E+03  0.00000000000E+00 0.  1.
          5    1    1    2  502    0  0.71904555195E+02  0.22614541858E+02 -0.85555089910E+02  0.11410008050E+03  0.41800000000E+01 0. -1.
         -5    1    1    2    0  502 -0.10106053764E+02 -0.29367137186E+02 -0.21570102376E+03  0.21796551360E+03  0.41800000000E+01 0. -1.
        -11    1    1    2    0    0 -0.61033887011E+02  0.40197451543E+02 -0.98943823229E+02  0.12300752265E+03  0.00000000000E+00 0.  1.
         11    1    1    2    0    0 -0.76461442012E+00 -0.33444856215E+02 -0.19469822265E+02  0.38706808464E+02  0.00000000000E+00 0. -1.
</event>
<event>
 6    1  0.4988969E-006  0.1143996E+03  0.7561462E-02  0.1252633E+00
          2   -1    0    0  501    0  0.00000000000E+00  0.00000000000E+00  0.26349780009E+03  0.26349780009E+03  0.00000000000E+00 0. -1.
         -2   -1    0    0    0  501 -0.00000000000E+00 -0.00000000000E+00 -0.74894250649E+02  0.74894250649E+02  0.00000000000E+00 0.  1.
          5    1    1    2  502    0 -0.17878794881E+02  0.24796126086E+02  0.60174266874E+02  0.67623324150E+02  0.41800000000E+01 0.  1.
         -5    1    1    2    0  502  0.10193372272E+03 -0.44707088568E+02  0.62529856052E+02  0.12773669360E+03  0.41800000000E+01 0.  1.
        -11    1    1    2    0    0 -0.54324788472E+02  0.10122795982E+02  0.88562628384E+02  0.10438866216E+03  0.00000000000E+00 0. -1.
         11    1    1    2    0    0 -0.29730139362E+02  0.97881664997E+01 -0.22663201868E+02  0.38643370827E+02  0.00000000000E+00 0.  1.
</event>
<event>
 6    1  0.4988969E-006  0.1183438E+03  0.7561462E-02  0.1245854E+00
         -4   -1    0    0    0  501 -0.00000000000E+00  0.00000000000E+00  0.14678908860E+03  0.14678908860E+03  0.00000000000E+00 0.  1.
          4   -1    0    0  501    0  0.00000000000E+00 -0.00000000000E+00 -0.14129686583E+03  0.14129686583E+03  0.00000000000E+00 0. -1.
          5    1    1    2  502    0  0.17570882172E+02  0.10770380510E+03  0.45143085316E+02  0.11817028428E+03  0.41800000000E+01 0.  1.
         -5    1    1    2    0  502  0.60844462400E+01 -0.16189703756E+02 -0.34664234755E+02  0.38964195936E+02  0.41800000000E+01 0.  1.
        -11    1    1    2    0    0  0.10327621797E+02 -0.66983602550E+02  0.32095119720E+02  0.74990396001E+02  0.00000000000E+00 0.  1.
         11    1    1    2    0    0 -0.33982950209E+02 -0.24530498798E+02 -0.37081747513E+02  0.55961078213E+02  0.00000000000E+00 0. -1.
</event>
<event>
 6    1  0.4988969E-006  0.1124817E+03  0.7561462E-02  0.1256042E+00
         -3   -1    0    0    0  501 -0.00000000000E+00  0.00000000000E+00  0.19294011949E+03  0.19294011949E+03  0.00000000000E+00 0.  1.
          3   -1    0    0  501    0  0.00000000000E+00 -0.00000000000E+00 -0.76629075552E+02  0.76629075552E+02  0.00000000000E+00 0. -1.
          5    1    1    2  502    0 -0.37100942657E+02  0.69700848300E+02  0.75237514128E+02  0.10914597625E+03  0.41800000000E+01 0.  1.
         -5    1    1    2    0  502  0.45970327339E+02 -0.21484253580E+02  0.16413841794E+02  0.53495146976E+02  0.41800000000E+01 0.  1.
        -11    1    1    2    0    0  0.34620401891E+02 -0.75438503336E+01 -0.11513522348E+02  0.37256450473E+02  0.00000000000E+00 0. -1.
         11    1    1    2    0    0 -0.43489786573E+02 -0.40672744387E+02  0.36173210362E+02  0.69671621339E+02  0.00000000000E+00 0.  1.
</event>
<event>
 6    1  0.4988969E-006  0.8033152E+02  0.7561462E-02  0.1328113E+00
          1   -1    0    0  501    0  0.00000000000E+00  0.00000000000E+00  0.26838024456E+03  0.26838024456E+03  0.00000000000E+00 0. -1.
         -1   -1    0    0    0  501 -0.00000000000E+00 -0.00000000000E+00 -0.68111866007E+02  0.68111866007E+02  0.00000000000E+00 0.  1.
          5    1    1    2  502    0 -0.31097232360E+02  0.16322227988E+01  0.56664272280E+02  0.64792084121E+02  0.41800000000E+01 0. -1.
         -5    1    1    2    0  502  0.37674406248E+02 -0.28493074025E+01 -0.46770677026E+02  0.60269793996E+02  0.41800000000E+01 0.  1.
        -11    1    1    2    0    0 -0.36317941946E+02 -0.30736506883E+02  0.11266053265E+03  0.12229522222E+03  0.00000000000E+00 0.  1.
         11    1    1    2    0    0  0.29740768058E+02  0.31953591487E+02  0.77714250654E+02  0.89135010228E+02  0.00000000000E+00 0. -1.
</event>
<event>
 6    1  0.4988969E-006  0.1200371E+03  0.7561462E-02  0.1243036E+00
         -1   -1    0    0    0  501 -0.00000000000E+00  0.00000000000E+00  0.11522348153E+03  0.11522348153E+03  0.00000000000E+00 0.  1.
          1   -1    0    0  501    0  0.00000000000E+00 -0.00000000000E+00 -0.22783732154E+03  0.22783732154E+03  0.00000000000E+00 0. -1.
          5    1    1    2  502    0  0.30216623041E+02 -0.43303066021E+02 -0.11258523593E+03  0.12442309908E+03  0.41800000000E+01 0. -1.
         -5    1    1    2    0  502  0.73407719474E+02  0.26591347491E+02 -0.80561026450E+01  0.78601311882E+02  0.41800000000E+01 0. -1.
        -11    1    1    2    0    0 -0.49430675645E+02 -0.67020272329E+01  0.47612238182E+02  0.68958205374E+02  0.00000000000E+00 0.  1.
         11    1    1    2    0    0 -0.54193666870E+02  0.23413745764E+02 -0.39584739620E+02  0.71078186741E+02  0.00000000000E+00 0. -1.
</event>
<event>
 6    1  0.4988969E-006  0.7744474E+02  0.7561462E-02  0.1336463E+00
          2   -1    0    0  501    0  0.00000000000E+00  0.00000000000E+00  0.13371586299E+03  0.13371586299E+03  0.00000000000E+00 0. -1.
         -2   -1    0    0    0  501 -0.00000000000E+00 -0.00000000000E+00 -0.12332930346E+03  0.12332930346E+03  0.00000000000E+00 0.  1.
          5    1    1    2  502    0  0.24670263157E+02 -0.32229433102E+00  0.42088464632E+02  0.48965671781E+02  0.41800000000E+01 0. -1.
         -5    1    1    2    0  502  0.25933199832E+02  0.50321446756E+01 -0.86760204322E+02  0.90789089585E+02  0.41800000000E+01 0.  1.
        -11    1    1    2    0    0 -0.61659931481E+02  0.28638809128E+02  0.41372407366E+02  0.79585203585E+02  0.00000000000E+00 0. -1.
         11    1    1    2    0    0  0.11056468492E+02 -0.33348659472E+02  0.13685891849E+02  0.37705201496E+02  0.00000000000E+00 0.  1.
</event>
<event>
 6    1  0.4988969E-006  0.1191182E+03  0.7561462E-02  0.1244559E+00
          3   -1    0    0  501    0  0.00000000000E+00  0.00000000000E+00  0.49904996974E+02  0.49904996974E+02  0.00000000000E+00 0. -1.
         -3   -1    0    0    0  501 -0.00000000000E+00 -0.00000000000E+00 -0.38049222717E+03  0.38049222717E+03  0.00000000000E+00 0.  1.
          5    1    1    2  502    0  0.68724391394E+02 -0.36577295757E+02 -0.17953120993E+03  0.19572906855E+03  0.41800000000E+01 0. -1.
         -5    1    1    2    0  502 -0.36038633206E+02 -0.39248303054E+02 -0.28242146710E+02  0.60450836444E+02  0.41800000000E+01 0. -1.
        -11    1    1    2    0    0  0.56302934189E+01  0.67346124929E+02 -0.11619629774E+03  0.13442016350E+03  0.00000000000E+00 0.  1.
         11    1    1    2    0    0 -0.38316051608E+02  0.84794738823E+01 -0.66175758169E+01  0.39797155650E+02  0.00000000000E+00 0. -1.
</event>
<event>
 6    1  0.4988969E-006  0.1836613E+03  0.7561462E-02  0.1164306E+00
          1   -1    0    0  501    0  0.00000000000E+00  0.00000000000E+00  0.67249705555E+03  0.67249705555E+03  0.00000000000E+00 0. -1.
         -1   -1    0    0    0  501 -0.00000000000E+00 -0.00000000000E+00 -0.81677146697E+02  0.81677146697E+02  0.00000000000E+00 0.  1.
          5    1    1    2  502    0  0.26134262914E+02 -0.57880418634E+02  0.15900102355E+02  0.65600519923E+02  0.41800000000E+01 0.  1.
         -5    1    1    2    0  502 -0.11431015125E+03 -0.62635159682E+02  0.58360317048E+02  0.14287537546E+03  0.41800000000E+01 0.  1.
        -11    1    1    2    0    0  0.39526011379E+02  0.11811884277E+03  0.41065801429E+03  0.42913211403E+03  0.00000000000E+00 0.  1.
         11    1    1    2    0    0  0.48649876959E+02  0.23967355458E+01  0.10590147516E+03  0.11656619283E+03  0.00000000000E+00 0. -1.
</event>
<event>
 6    1  0.4988969E-006  0.9922571E+02  0.7561462E-02  0.1281933E+00
          3   -1    0    0  501    0  0.00000000000E+00  0.00000000000E+00  0.24837873748E+03  0.24837873748E+03  0.00000000000E+00 0. -1.
         -3   -1    0    0    0  501 -0.00000000000E+00 -0.00000000000E+00 -0.83911649432E+02  0.83911649432E+02  0.00000000000E+00 0.  1.
          5    1    1    2  502    0  0.80723766863E+01  0.52403649293E+01 -0.39075452271E+02  0.40459709096E+02  0.41800000000E+01 0.  1.
         -5    1    1    2    0  502 -0.31747438347E+02  0.77881355947E+02  0.81980371112E+02  0.11752301516E+03  0.41800000000E+01 0.  1.
        -11    1    1    2    0    0  0.30728289693E+02 -0.13147929445E+02 -0.50880240597E+00  0.33426856210E+02  0.00000000000E+00 0. -1.
         11    1    1    2    0    0 -0.70532280328E+01 -0.69973791431E+02  0.12207097161E+03  0.14088080644E+03  0.00000000000E+00 0.  1.
</event>
<event>
 6    1  0.4988969E-006  0.2451066E+03  0.7561462E-02  0.1116437E+00
          2   -1    0    0  501    0  0.00000000000E+00  0.00000000000E+00  0.12289548457E+03  0.12289548457E+03  0.00000000000E+00 0. -1.
         -2   -1    0    0    0  501 -0.00000000000E+00 -0.00000000000E+00 -0.51485283796E+03  0.51485283796E+03  0.00000000000E+00 0.  1.
          5    1    1    2  502    0 -0.20762293185E+03  0.72685174958E+02 -0.18102731074E+03  0.28491889394E+03  0.41800000000E+01 0.  1.
         -5    1    1    2    0  502  0.89222632072E+01  0.34000195206E+02 -0.50404458298E+02  0.61593034274E+02  0.41800000000E+01 0.  1.
        -11    1    1    2    0    0  0.15447604609E+03 -0.11120650641E+03 -0.15682981723E+03  0.24662791297E+03  0.00000000000E+00 0.  1.
         11    1    1    2    0    0  0.44224622558E+02  0.45211362474E+01 -0.36957671342E+01  0.44608481347E+02  0.00000000000E+00 0. -1.
</event>
<event>
 6    1  0.4988969E-006  0.1086919E+03  0.7561462E-02  0.1263012E+00
         -2   -1    0    0    0  501 -0.00000000000E+00  0.00000000000E+00  0.10049482111E+03  0.10049482111E+03  0.00000000000E+00 0.  1.
          2   -1    0    0  501    0  0.00000000000E+00 -0.00000000000E+00 -0.25145883784E+03  0.25145883784E+03  0.00000000000E+00 0. -1.
          5    1    1    2  502    0 -0.33674880604E+02 -0.28174694435E+02 -0.50759188398E+02  0.67244171472E+02  0.41800000000E+01 0.  1.
         -5    1    1    2    0  502  0.32052183910E+02 -0.60705989575E+02  0.51997397825E+02  0.86219263766E+02  0.41800000000E+01 0.  1.
        -11    1    1    2    0    0 -0.25655177475E+02  0.29107086034E+02 -0.11841255666E+03  0.12460715936E+03  0.00000000000E+00 0. -1.
         11    1    1    2    0    0  0.27277874169E+02  0.59773597975E+02 -0.33789669495E+02  0.73883064357E+02  0.00000000000E+00 0.  1.
</event>
<event>
 6    1  0.4988969E-006  0.1084492E+03  0.7561462E-02  0.1263469E+00
          3   -1    0    0  501    0  0.00000000000E+00  0.00000000000E+00  0.45074738126E+03  0.45074738126E+03  0.00000000000E+00 0. -1.
         -3   -1    0    0    0  501 -0.00000000000E+00 -0.00000000000E+00 -0.43949783409E+02  0.43949783409E+02  0.00000000000E+00 0.  1.
          5    1    1    2  502    0 -0.13522128016E+02 -0.33969409962E+02 -0.29727192475E+01  0.36919889206E+02  0.41800000000E+01 0. -1.
         -5    1    1    2    0  502  0.26913563881E+02  0.77940620858E+02  0.90026191955E+02  0.12215264196E+03  0.41800000000E+01 0. -1.
        -11    1    1    2    0    0  0.34199375812E+02 -0.35322196123E+02  0.11187266191E+03  0.12219962082E+03  0.00000000000E+00 0.  1.
         11    1    1    2    0    0 -0.47590811676E+02 -0.86490147731E+01  0.20787146324E+03  0.21342501269E+03  0.00000000000E+00 0. -1.
</event>
<event>
 6    1  0.4988969E-006  0.1220771E+03  0.7561462E-02  0.1239709E+00
          3   -1    0    0  501    0  0.00000000000E+00  0.00000000000E+00  0.86687902857E+02  0.86687902857E+02  0.00000000000E+00 0. -1.
         -3   -1    0    0    0  501 -0.00000000000E+00 -0.00000000000E+00 -0.27436518427E+03  0.27436518427E+03  0.00000000000E+00 0.  1.
          5    1    1    2  502    0  0.97409046442E+02  0.62040240620E+02 -0.46885141788E+02  0.12471248015E+03  0.41800000000E+01 0.  1.
         -5    1    1    2    0  502 -0.18096498727E+00 -0.17823007666E+02 -0.82663033899E+02  0.84666061229E+02  0.41800000000E+01 0.  1.
        -11    1    1    2    0    0 -0.11401375204E+02  0.36989948664E+01 -0.51806412401E+02  0.53174978002E+02  0.00000000000E+00 0.  1.
         11    1    1    2    0    0 -0.85826706250E+02 -0.47916227821E+02 -0.63226933187E+01  0.98499567741E+02  0.00000000000E+00 0. -1.
</event>
<event>
 6    1  0.4988969E-006  0.1181505E+03  0.7561462E-02  0.1246180E+00
         -2   -1    0    0    0  501 -0.00000000000E+00  0.00000000000E+00  0.19704378577E+02  0.19704378577E+02  0.00000000000E+00 0.  1.
          2   -1    0    0  501    0  0.00000000000E+00 -0.00000000000E+00 -0.81171515338E+03  0.81171515338E+03  0.00000000000E+00 0. -1.
          5    1    1    2  502    0 -0.24497437432E+02  0.38912021064E+02 -0.80559985013E+02  0.92852858918E+02  0.41800000000E+01 0.  1.
         -5    1    1    2    0  502  0.73588539192E+02 -0.44897923723E+02 -0.22600354714E+03  0.24192183113E+03  0.41800000000E+01 0.  1.
        -11    1    1    2    0    0  0.26157154769E+02 -0.78621260300E+01 -0.99144502116E+02  0.10283794081E+03  0.00000000000E+00 0.  1.
         11    1    1    2    0    0 -0.75248256529E+02  0.13848028689E+02 -0.38630274054E+03  0.39380690110E+03  0.00000000000E+00 0. -1.
</event>
<event>
 6    1  0.4988969E-006  0.1464345E+03  0.7561462E-02  0.1204924E+00
         -1   -1    0    0    0  501 -0.00000000000E+00  0.00000000000E+00  0.10452652123E+03  0.10452652123E+03  0.00000000000E+00 0.  1.
          1   -1    0    0  501    0  0.00000000000E+00 -0.00000000000E+00 -0.22461962390E+03  0.22461962390E+03  0.00000000000E+00 0. -1.
          5    1    1    2  502    0 -0.16399213716E+02 -0.27373764252E+02  0.71015580929E+01  0.32956967505E+02  0.41800000000E+01 0.  1.
         -5    1    1    2    0  502 -0.40579560016E+02  0.11864529714E+03 -0.69664362249E+02  0.14350610785E+03  0.41800000000E+01 0.  1.
        -11    1    1    2    0    0  0.43814840919E+02 -0.82353672332E+00  0.15502383480E+01  0.43849991293E+02  0.00000000000E+00 0.  1.
         11    1    1    2    0    0  0.13163932813E+02 -0.90447996161E+02 -0.59080536861E+02  0.10883307848E+03  0.00000000000E+00 0. -1.
</event>
<event>
 6    1  0.4988969E-006  0.2196636E+03  0.7561462E-02  0.1134134E+00
         -2   -1    0    0    0  501 -0.00000000000E+00  0.00000000000E+00  0.52323887915E+03  0.52323887915E+03  0.00000000000E+00 0.  1.
          2   -1    0    0  501    0  0.00000000000E+00 -0.00000000000E+00 -0.10701752355E+03  0.10701752355E+03  0.00000000000E+00 0. -1.
          5    1    1    2  502    0  0.61973269461E+02  0.12280937309E+03  0.23371402845E+03  0.27122416511E+03  0.41800000000E+01 0.  1.
         -5    1    1    2    0  502  0.87550952887E+02  0.10127157980E+02  0.65780828109E+02  0.11005597861E+03  0.41800000000E+01 0.  1.
        -11    1    1    2    0    0 -0.44759541877E+02 -0.89478216994E+02  0.84789000535E+02  0.13114473881E+03  0.00000000000E+00 0.  1.
         11    1    1    2    0    0 -0.10476468047E+03 -0.43458314074E+02  0.31937498507E+02  0.11783152018E+03  0.00000000000E+00 0. -1.
</event>
<event>
 6    1  0.4988969E-006  0.1065122E+03  0.7561462E-02  0.1267168E+00
          1   -1    0    0  501    0  0.00000000000E+00  0.00000000000E+00  0.86645647398E+03  0.86645647398E+03  0.00000000000E+00 0. -1.
         -1   -1    0    0    0  501 -0.00000000000E+00 -0.00000000000E+00 -0.14121382390E+02  0.14121382390E+02  0.00000000000E+00 0.  1.
          5    1    1    2  502    0  0.59089160741E+02 -0.43367871277E+02  0.21532965416E+03  0.22750084293E+03  0.41800000000E+01 0. -1.
         -5    1    1    2    0  502 -0.33102328453E+02  0.20934852223E+02  0.23872161526E+03  0.24194940417E+03  0.41800000000E+01 0.  1.
        -11    1    1    2    0    0  0.22438504075E+02  0.42296095354E+02  0.15279800079E+03  0.16012393697E+03  0.00000000000E+00 0.  1.
         11    1    1    2    0    0 -0.48425336363E+02 -0.19863076300E+02  0.24548582139E+03  0.25100367229E+03  0.00000000000E+00 0. -1.
</event>
<event>
 6    1  0.4988969E-006  0.5620415E+02  0.7561462E-02  0.1414489E+00
          1   -1    0    0  501    0  0.00000000000E+00  0.00000000000E+00  0.11178531584E+03  0.11178531584E+03  0.00000000000E+00 0. -1.
         -1   -1    0    0    0  501 -0.00000000000E+00 -0.00000000000E+00 -0.13132564081E+03  0.13132564081E+03  0.00000000000E+00 0.  1.
          5    1    1    2  502    0  0.14681171652E+02 -0.11556555830E+02  0.48907426671E+02  0.52521420081E+02  0.41800000000E+01 0. -1.
         -5    1    1    2    0  502  0.38104036629E+02  0.90282774478E+01 -0.76510205971E+02  0.86050632879E+02  0.41800000000E+01 0. -1.
        -11    1    1    2    0    0 -0.12281258227E+02  0.50941600644E+01 -0.39696854642E+02  0.41864305069E+02  0.00000000000E+00 0.  1.
         11    1    1    2    0    0 -0.40503950054E+02 -0.25658816821E+01  0.47759308977E+02  0.62674598625E+02  0.00000000000E+00 0. -1.
</event>
<event>
 6    1  0.4988969E-006  0.1308920E+03  0.7561462E-02  0.1226138E+00
         -2   -1    0    0    0  501 -0.00000000000E+00  0.00000000000E+00  0.32073504036E+02  0.32073504036E+02  0.00000000000E+00 0.  1.
          2   -1    0    0  501    0  0.00000000000E+00 -0.00000000000E+00 -0.58498910155E+03  0.58498910155E+03  0.00000000000E+00 0. -1.
          5    1    1    2  502    0 -0.33358684050E+02 -0.12673404407E+02 -0.35383510011E+02  0.50426998339E+02  0.41800000000E+01 0.  1.
         -5    1    1    2    0  502  0.49775268052E+02  0.96766908050E+02 -0.25132061667E+03  0.27389950085E+03  0.41800000000E+01 0.  1.
        -11    1    1    2    0    0 -0.42513312800E+02 -0.18503440855E+02 -0.67769740079E+02  0.82112707659E+02  0.00000000000E+00 0.  1.
         11    1    1    2    0    0  0.26096728798E+02 -0.65590062789E+02 -0.19844173075E+03  0.21062339873E+03  0.00000000000E+00 0. -1.
</event>
<event>
 6    1  0.4988969E-006  0.1969504E+03  0.7561462E-02  0.1152338E+00
          2   -1    0    0  501    0  0.00000000000E+00  0.00000000000E+00  0.52004657489E+03  0.52004657489E+03  0.00000000000E+00 0. -1.
         -2   -1    0    0    0  501 -0.00000000000E+00 -0.00000000000E+00 -0.97066297075E+02  0.97066297075E+02  0.00000000000E+00 0.  1.
          5    1    1    2  502    0 -0.15197239033E+03 -0.12012960123E+03  0.85819438688E+02  0.21191785430E+03  0.41800000000E+01 0. -1.
         -5    1    1    2    0  502  0.21751053730E+02 -0.65291538990E+00  0.19451714581E+02  0.29485186739E+02  0.41800000000E+01 0. -1.
        -11    1    1    2    0    0  0.64171582773E+02  0.67300736662E+02  0.25098788823E+03  0.26766079509E+03  0.00000000000E+00 0. -1.
         11    1    1    2    0    0  0.66049753832E+02  0.53481779957E+02  0.66721236317E+02  0.10804903583E+03  0.00000000000E+00 0.  1.
</event>
<event>
 6    1  0.4988969E-006  0.7521674E+02  0.7561462E-02  0.1343201E+00
         -2   -1    0    0    0  501 -0.00000000000E+00  0.00000000000E+00  0.85280737699E+02  0.85280737699E+02  0.00000000000E+00 0.  1.
          2   -1    0    0  501    0  0.00000000000E+00 -0.00000000000E+00 -0.20095164366E+03  0.20095164366E+03  0.00000000000E+00 0. -1.
          5    1    1    2  502    0  0.14317521134E+02 -0.58272586582E+01 -0.53268507298E+02  0.55623328061E+02  0.41800000000E+01 0.  1.
         -5    1    1    2    0  502 -0.14538554675E+02  0.68087525913E+02  0.47233495134E+02  0.84236311764E+02  0.41800000000E+01 0.  1.
        -11    1    1    2    0    0  0.79304929337E+01 -0.16980206529E+02 -0.96917358879E+02  0.98712687047E+02  0.00000000000E+00 0. -1.
         11    1    1    2    0    0 -0.77094593919E+01 -0.45280060726E+02 -0.12718534923E+02  0.47660054491E+02  0.00000000000E+00 0.  1.
</event>
<event>
 6    1  0.4988969E-006  0.1184602E+03  0.7561462E-02  0.1245659E+00
          1   -1    0    0  501    0  0.00000000000E+00  0.00000000000E+00  0.34422394080E+03  0.34422394080E+03  0.00000000000E+00 0.  1.
         -1   -1    0    0    0  501 -0.00000000000E+00 -0.00000000000E+00 -0.53180432379E+02  0.53180432379E+02  0.00000000000E+00 0. -1.
          5    1    1    2  502    0 -0.27155516067E+02 -0.44150754491E+02  0.45507943431E+01  0.52200510574E+02  0.41800000000E+01 0. -1.
         -5    1    1    2    0  502  0.56666598343E+02 -0.29946643318E+02  0.14433093318E+03  0.15797719926E+03  0.41800000000E+01 0. -1.
        -11    1    1    2    0    0  0.30723415129E+02  0.90325712225E+01  0.49686056361E+02  0.59111925842E+02  0.00000000000E+00 0.  1.
         11    1    1    2    0    0 -0.60234497405E+02  0.65064826587E+02  0.92475724531E+02  0.12811473750E+03  0.00000000000E+00 0. -1.
</event>
<event>
 6    1  0.4988969E-006  0.5491131E+02  0.7561462E-02  0.1420519E+00
         -2   -1    0    0    0  501 -0.00000000000E+00  0.00000000000E+00  0.49882886201E+02  0.49882886201E+02  0.00000000000E+00 0.  1.
          2   -1    0    0  501    0  0.00000000000E+00 -0.00000000000E+00 -0.31528285044E+03  0.31528285044E+03  0.00000000000E+00 0. -1.
          5    1    1    2  502    0  0.50964901218E+01 -0.88704198960E+01 -0.99968244829E+02  0.10057723865E+03  0.41800000000E+01 0.  1.
         -5    1    1    2    0  502 -0.18213944475E+02  0.51158750099E+02  0.15618469442E+02  0.56660166544E+02  0.41800000000E+01 0.  1.
        -11    1    1    2    0    0  0.41688823457E+01 -0.11000170812E+02  0.91881344615E+01  0.14926659131E+02  0.00000000000E+00 0.  1.
         11    1    1    2    0    0  0.89485720074E+01 -0.31288159391E+02 -0.19023832331E+03  0.19300167231E+03  0.00000000000E+00 0. -1.
</event>
<event>
 6    1  0.4988969E-006  0.1186487E+03  0.7561462E-02  0.1245343E+00
          2   -1    0    0  501    0  0.00000000000E+00  0.00000000000E+00  0.46559924777E+03  0.46559924777E+03  0.00000000000E+00 0. -1.
         -2   -1    0    0    0  501 -0.00000000000E+00 -0.00000000000E+00 -0.38390549053E+02  0.38390549053E+02  0.00000000000E+00 0.  1.
          5    1    1    2  502    0 -0.49457954526E+02  0.48717974919E+02  0.96797671437E+02  0.11919224783E+03  0.41800000000E+01 0. -1.
         -5    1    1    2    0  502  0.72550616320E+02  0.25697062126E+02  0.13624464204E+03  0.15653755401E+03  0.41800000000E+01 0. -1.
        -11    1    1    2    0    0  0.12479891168E+02 -0.36972504392E+02  0.15012147593E+02  0.41810026787E+02  0.00000000000E+00 0.  1.
         11    1    1    2    0    0 -0.35572552962E+02 -0.37442532653E+02  0.17915423765E+03  0.18644996820E+03  0.00000000000E+00 0. -1.
</event>
<event>
 6    1  0.4988969E-006  0.1367405E+03  0.7561462E-02  0.1217783E+00
         -2   -1    0    0    0  501 -0.00000000000E+00  0.00000000000E+00  0.53992577416E+02  0.53992577416E+02  0.00000000000E+00 0.  1.
          2   -1    0    0  501    0  0.00000000000E+00 -0.00000000000E+00 -0.52255579606E+03  0.52255579606E+03  0.00000000000E+00 0. -1.
          5    1    1    2  502    0 -0.12060621256E+02 -0.50285360196E+02 -0.21577391530E+03  0.22192325466E+03  0.41800000000E+01 0.  1.
         -5    1    1    2    0  502 -0.98220975269E+02  0.72538399610E+01 -0.11877091918E+03  0.15435019216E+03  0.41800000000E+01 0.  1.
        -11    1    1    2    0    0  0.71157518244E+02  0.10071879194E+02 -0.18913412069E+02  0.74313876963E+02  0.00000000000E+00 0.  1.
         11    1    1    2    0    0  0.39124078281E+02  0.32959641041E+02 -0.11510497210E+03  0.12596104970E+03  0.00000000000E+00 0. -1.
</event>
<event>
 6    1  0.4988969E-006  0.1096183E+03  0.7561462E-02  0.1261278E+00
          2   -1    0    0  501    0  0.00000000000E+00  0.00000000000E+00  0.38815904630E+03  0.38815904630E+03  0.00000000000E+00 0. -1.
         -2   -1    0    0    0  501 -0.00000000000E+00 -0.00000000000E+00 -0.46185741295E+02  0.46185741295E+02  0.00000000000E+00 0.  1.
          5    1    1    2  502    0 -0.59720641298E+02 -0.52425795117E+02  0.20869664817E+02  0.82268063672E+02  0.41800000000E+01 0. -1.
         -5    1    1    2    0  502  0.87211286257E+00  0.27359741917E+02  0.97856580336E+02  0.10169905985E+03  0.41800000000E+01 0. -1.
        -11    1    1    2    0    0 -0.19033097125E+02 -0.15140922858E+02  0.66226232847E+02  0.70550834497E+02  0.00000000000E+00 0.  1.
         11    1    1    2    0    0  0.77881625560E+02  0.40206976057E+02  0.15702082701E+03  0.17982682958E+03  0.00000000000E+00 0. -1.
</event>
<event>
 6    1  0.4988969E-006  0.1919827E+03  0.7561462E-02  0.1156685E+00
         -2   -1    0    0    0  501 -0.00000000000E+00  0.00000000000E+00  0.65601032402E+02  0.65601032402E+02  0.00000000000E+00 0.  1.
          2   -1    0    0  501    0  0.00000000000E+00 -0.00000000000E+00 -0.81487750060E+03  0.81487750060E+03  0.00000000000E+00 0. -1.
          5    1    1    2  502    0 -0.46581708935E+02  0.10462329982E+03 -0.20517507809E+03  0.23501101153E+03  0.41800000000E+01 0.  1.
         -5    1    1    2    0  502  0.38099260699E+00  0.71155406323E+02 -0.79005832926E+01  0.71715609324E+02  0.41800000000E+01 0.  1.
        -11    1    1    2    0    0 -0.22388276240E+02 -0.51007735317E+02 -0.94790142006E+02  0.10994632780E+03  0.00000000000E+00 0.  1.
         11    1    1    2    0    0  0.68588992568E+02 -0.12477097083E+03 -0.44141066481E+03  0.46380558434E+03  0.00000000000E+00 0. -1.
</event>
<event>
 6    1  0.4988969E-006  0.1196181E+03  0.7561462E-02  0.1243728E+00
          1   -1    0    0  501    0  0.00000000000E+00  0.00000000000E+00  0.53909888481E+03  0.53909888481E+03  0.00000000000E+00 0. -1.
         -1   -1    0    0    0  501 -0.00000000000E+00 -0.00000000000E+00 -0.30428830545E+02  0.30428830545E+02  0.00000000000E+00 0.  1.
          5    1    1    2  502    0  0.20323932164E+02  0.22651003189E+02  0.18517110339E+02  0.35867616862E+02  0.41800000000E+01 0.  1.
         -5    1    1    2    0  502 -0.54987008910E+02 -0.80407861392E+02  0.24141943509E+03  0.26036476597E+03  0.41800000000E+01 0.  1.
        -11    1    1    2    0    0 -0.29883090625E+02  0.13737654437E+02  0.10032223319E+03  0.10557590979E+03  0.00000000000E+00 0.  1.
         11    1    1    2    0    0  0.64546167371E+02  0.44019203766E+02  0.14841127564E+03  0.16771942273E+03  0.00000000000E+00 0. -1.
</event>
<event>
 6    1  0.4988969E-006  0.1141954E+03  0.7561462E-02  0.1252992E+00
          2   -1    0    0  501    0  0.00000000000E+00  0.00000000000E+00  0.29872872173E+03  0.29872872173E+03  0.00000000000E+00 0.  1.
         -2   -1    0    0    0  501 -0.00000000000E+00 -0.00000000000E+00 -0.67571065988E+02  0.67571065988E+02  0.00000000000E+00 0. -1.
          5    1    1    2  502    0  0.47624581790E+02 -0.37141364822E+02  0.10822644924E+03  0.12400813879E+03  0.41800000000E+01 0. -1.
         -5    1    1    2    0  502 -0.20233971743E+02 -0.45842850124E+02 -0.17829337475E+02  0.53351084289E+02  0.41800000000E+01 0. -1.
        -11    1    1    2    0    0  0.21971446905E+02  0.11540991506E+01  0.59704758700E+02  0.63629667886E+02  0.00000000000E+00 0.  1.
         11    1    1    2    0    0 -0.49362056952E+02  0.81830115795E+02  0.81055785276E+02  0.12531089675E+03  0.00000000000E+00 0. -1.
</event>
<event>
 6    1  0.4988969E-006  0.8240541E+02  0.7561462E-02  0.1322361E+00
          2   -1    0    0  501    0  0.00000000000E+00  0.00000000000E+00  0.12782881986E+03  0.12782881986E+03  0.00000000000E+00 0. -1.
         -2   -1    0    0    0  501 -0.00000000000E+00 -0.00000000000E+00 -0.11020531826E+03  0.11020531826E+03  0.00000000000E+00 0.  1.
          5    1    1    2  502    0 -0.18105488007E+02  0.18047405769E+02  0.40782311049E+02  0.48313423036E+02  0.41800000000E+01 0. -1.
         -5    1    1    2    0  502  0.54973115530E+02 -0.14132714631E+02 -0.61493774892E+02  0.83789819217E+02  0.41800000000E+01 0. -1.
        -11    1    1    2    0    0  0.22514711343E+02 -0.13559907161E+01 -0.14158969300E+02  0.26631322711E+02  0.00000000000E+00 0.  1.
         11    1    1    2    0    0 -0.59382338866E+02 -0.25587004218E+01  0.52493934741E+02  0.79299573149E+02  0.00000000000E+00 0. -1.
</event>
<event>
 6    1  0.4988969E-006  0.1892430E+03  0.7561462E-02  0.1159146E+00
          2   -1    0    0  501    0  0.00000000000E+00  0.00000000000E+00  0.22049809262E+03  0.22049809262E+03  0.00000000000E+00 0. -1.
         -2   -1    0    0    0  501 -0.00000000000E+00 -0.00000000000E+00 -0.17907170208E+03  0.17907170208E+03  0.00000000000E+00 0.  1.
          5    1    1    2  502    0  0.14648870172E+03 -0.10019487091E+03  0.93909590345E+01  0.17777405435E+03  0.41800000000E+01 0.  1.
         -5    1    1    2    0  502 -0.53974965187E+01  0.18310585883E+02 -0.20159234299E+02  0.28076282724E+02  0.41800000000E+01 0.  1.
        -11    1    1    2    0    0 -0.11859994262E+03  0.26335147434E+02  0.13162195262E+02  0.12219954895E+03  0.00000000000E+00 0.  1.
         11    1    1    2    0    0 -0.22491262582E+02  0.55549137598E+02  0.39032470542E+02  0.71519908676E+02  0.00000000000E+00 0. -1.
</event>
<event>
 6    1  0.4988969E-006  0.9903552E+02  0.7561462E-02  0.1282337E+00
          2   -1    0    0  501    0  0.00000000000E+00  0.00000000000E+00  0.98710915089E+02  0.98710915089E+02  0.00000000000E+00 0. -1.
         -2   -1    0    0    0  501 -0.00000000000E+00 -0.00000000000E+00 -0.17563092417E+03  0.17563092417E+03  0.00000000000E+00 0.  1.
          5    1    1    2  502    0 -0.16731585654E+02 -0.44068567827E+02 -0.36324333187E+02  0.59656635929E+02  0.41800000000E+01 0. -1.
         -5    1    1    2    0  502  0.19093427717E+02  0.80480301316E+02 -0.74679907117E+02  0.11151770626E+03  0.41800000000E+01 0. -1.
        -11    1    1    2    0    0  0.26539195174E+02 -0.26154679284E+02 -0.19027126237E+02  0.41838112550E+02  0.00000000000E+00 0.  1.
         11    1    1    2    0    0 -0.28901037236E+02 -0.10257054205E+02  0.53111357462E+02  0.61329384521E+02  0.00000000000E+00 0. -1.
</event>
<event>
 6    1  0.4988969E-006  0.1306798E+03  0.7561462E-02  0.1226451E+00
          1   -1    0    0  501    0  0.00000000000E+00  0.00000000000E+00  0.10023786315E+04  0.10023786315E+04  0.00000000000E+00 0. -1.
         -1   -1    0    0    0  501 -0.00000000000E+00 -0.00000000000E+00 -0.17934496327E+02  0.17934496327E+02  0.00000000000E+00 0.  1.
          5    1    1    2  502    0  0.35855152335E+02  0.82080628569E+02  0.32228556360E+03  0.33452694726E+03  0.41800000000E+01 0.  1.
         -5    1    1    2    0  502 -0.53319079190E+02 -0.88935860337E+01  0.13434420224E+03  0.14487186460E+03  0.41800000000E+01 0.  1.
        -11    1    1    2    0    0  0.53882449918E+02 -0.32746069835E+02  0.25078195712E+03  0.25858695542E+03  0.00000000000E+00 0. -1.
         11    1    1    2    0    0 -0.36418523063E+02 -0.40440972700E+02  0.27703241220E+03  0.28232736054E+03  0.00000000000E+00 0.  1.
</event>
<event>
 6    1  0.4988969E-006  0.1146748E+03  0.7561462E-02  0.1252150E+00
          3   -1    0    0  501    0  0.00000000000E+00  0.00000000000E+00  0.16661461150E+03  0.16661461150E+03  0.00000000000E+00 0. -1.
         -3   -1    0    0    0  501 -0.00000000000E+00 -0.00000000000E+00 -0.10641471684E+03  0.10641471684E+03  0.00000000000E+00 0.  1.
          5    1    1    2  502    0  0.27653912937E+02  0.27591937363E+02  0.23600650630E+02  0.45831397735E+02  0.41800000000E+01 0. -1.
         -5    1    1    2    0  502 -0.93313734052E+02 -0.57382808520E+01 -0.26072793852E+02  0.97147536300E+02  0.41800000000E+01 0. -1.
        -11    1    1    2    0    0  0.17938498692E+02  0.24223697403E+02  0.55720846893E+02  0.63351322241E+02  0.00000000000E+00 0. -1.
         11    1    1    2    0    0  0.47721322422E+02 -0.46077353914E+02  0.69511909938E+01  0.66699072060E+02  0.00000000000E+00 0.  1.
</event>
<event>
 6    1  0.4988969E-006  0.1035478E+03  0.7561462E-02  0.1273007E+00
         -1   -1    0    0    0  501 -0.00000000000E+00  0.00000000000E+00  0.35748397051E+03  0.35748397051E+03  0.00000000000E+00 0.  1.
          1   -1    0    0  501    0  0.00000000000E+00 -0.00000000000E+00 -0.46636694870E+02  0.46636694870E+02  0.00000000000E+00 0. -1.
          5    1    1    2  502    0 -0.91011962822E+02  0.19802479642E+02  0.10384186128E+03  0.13955615404E+03  0.41800000000E+01 0. -1.
         -5    1    1    2    0  502  0.31604396333E+02 -0.38445157242E+01  0.11933177109E+03  0.12357654373E+03  0.41800000000E+01 0. -1.
        -11    1    1    2    0    0 -0.37198558874E+01 -0.18206352982E+02  0.74079078612E+02  0.76374200518E+02  0.00000000000E+00 0.  1.
         11    1    1    2    0    0  0.63127422376E+02  0.22483890644E+01  0.13594564658E+02  0.64613767089E+02  0.00000000000E+00 0. -1.
</event>
<event>
 6    1  0.4988969E-006  0.1281280E+03  0.7561462E-02  0.1230260E+00
          1   -1    0    0  501    0  0.00000000000E+00  0.00000000000E+00  0.16820347481E+03  0.16820347481E+03  0.00000000000E+00 0. -1.
         -1   -1    0    0    0  501 -0.00000000000E+00 -0.00000000000E+00 -0.11952021389E+03  0.11952021389E+03  0.00000000000E+00 0.  1.
          5    1    1    2  502    0 -0.41489532594E+02 -0.85443722407E+02 -0.34060055321E+01  0.95137186669E+02  0.41800000000E+01 0.  1.
         -5    1    1    2    0  502 -0.27263128789E+02  0.44599507630E+02 -0.14516478288E+02  0.54411348211E+02  0.41800000000E+01 0.  1.
        -11    1    1    2    0    0  0.80154100590E+02  0.16466038273E+02  0.19808816751E+02  0.84191445402E+02  0.00000000000E+00 0.  1.
         11    1    1    2    0    0 -0.11401439207E+02  0.24378176504E+02  0.46796927988E+02  0.53983708420E+02  0.00000000000E+00 0. -1.
</event>
<event>
 6    1  0.4988969E-006  0.1246854E+03  0.7561462E-02  0.1235562E+00
         -1   -1    0    0    0  501 -0.00000000000E+00  0.00000000000E+00  0.14771638017E+03  0.14771638017E+03  0.00000000000E+00 0.  1.
          1   -1    0    0  501    0  0.00000000000E+00 -0.00000000000E+00 -0.16804602268E+03  0.16804602268E+03  0.00000000000E+00 0. -1.
          5    1    1    2  502    0  0.66465393063E+02  0.51136493769E+01  0.37676359252E+02  0.76686232999E+02  0.41800000000E+01 0.  1.
         -5    1    1    2    0  502  0.41936209360E+02 -0.24528251691E+01 -0.85944203855E+02  0.95752496485E+02  0.41800000000E+01 0.  1.
        -11    1    1    2    0    0 -0.28845092769E+02 -0.42519120861E+02  0.64518801846E+01  0.51783605259E+02  0.00000000000E+00 0. -1.
         11    1    1    2    0    0 -0.79556509654E+02  0.39858296653E+02  0.21486321914E+02  0.91540068111E+02  0.00000000000E+00 0.  1.
</event>
<event>
 6    1  0.4988969E-006  0.1325916E+03  0.7561462E-02  0.1223660E+00
          2   -1    0    0  501    0  0.00000000000E+00  0.00000000000E+00  0.68862534896E+03  0.68862534896E+03  0.00000000000E+00 0. -1.
         -2   -1    0    0    0  501 -0.00000000000E+00 -0.00000000000E+00 -0.46427276170E+02  0.46427276170E+02  0.00000000000E+00 0.  1.
          5    1    1    2  502    0 -0.39230885031E+02 -0.14938570428E+02  0.14022139096E+03  0.14642996315E+03  0.41800000000E+01 0. -1.
         -5    1    1    2    0  502 -0.68757332590E+02  0.53613680651E+02  0.25880172087E+02  0.91045336207E+02  0.41800000000E+01 0. -1.
        -11    1    1    2    0    0  0.49617338424E+02 -0.56000411943E+02  0.34516103521E+03  0.35317710378E+03  0.00000000000E+00 0. -1.
         11    1    1    2    0    0  0.58370879198E+02  0.17325301720E+02  0.13093547454E+03  0.14440022199E+03  0.00000000000E+00 0.  1.
</event>
<event>
 6    1  0.4988969E-006  0.1167548E+03  0.7561462E-02  0.1248549E+00
          4   -1    0    0  501    0  0.00000000000E+00  0.00000000000E+00  0.41263066006E+03  0.41263066006E+03  0.00000000000E+00 0. -1.
         -4   -1    0    0    0  501 -0.00000000000E+00 -0.00000000000E+00 -0.59692295931E+02  0.59692295931E+02  0.00000000000E+00 0.  1.
          5    1    1    2  502    0  0.31075266902E+02 -0.25238384281E+02  0.20207513883E+03  0.20604485528E+03  0.41800000000E+01 0. -1.
         -5    1    1    2    0  502  0.56130460785E+02  0.72756757071E+02  0.96901847911E+01  0.92496196725E+02  0.41800000000E+01 0.  1.
        -11    1    1    2    0    0 -0.37457134766E+02 -0.31694381011E+02  0.71652834891E+02  0.86842958727E+02  0.00000000000E+00 0. -1.
         11    1    1    2    0    0 -0.49748592921E+02 -0.15823991779E+02  0.69520205613E+02  0.86938945254E+02  0.00000000000E+00 0.  1.
</event>
<event>
 6    1  0.4988969E-006  0.1103182E+03  0.7561462E-02  0.1259982E+00
          1   -1    0    0  501    0  0.00000000000E+00  0.00000000000E+00  0.85516499007E+03  0.85516499007E+03  0.00000000000E+00 0. -1.
         -1   -1    0    0    0  501 -0.00000000000E+00 -0.00000000000E+00 -0.16038638713E+02  0.16038638713E+02  0.00000000000E+00 0.  1.
          5    1    1    2  502    0  0.42563141458E+02  0.32807010767E+02  0.29866747142E+03  0.30349242470E+03  0.41800000000E+01 0. -1.
         -5    1    1    2    0  502 -0.68653965467E+02 -0.22419118071E+02  0.17689982641E+03  0.19112039351E+03  0.41800000000E+01 0.  1.
        -11    1    1    2    0    0  0.59757638838E+02 -0.10784288238E+02  0.27989345330E+03  0.28640464639E+03  0.00000000000E+00 0.  1.
         11    1    1    2    0    0 -0.33666814829E+02  0.39639554127E+00  0.83665600229E+02  0.90186164193E+02  0.00000000000E+00 0. -1.
</event>
<event>
 6    1  0.4988969E-006  0.1524824E+03  0.7561462E-02  0.1197455E+00
         -1   -1    0    0    0  501 -0.00000000000E+00  0.00000000000E+00  0.14177664977E+03  0.14177664977E+03  0.00000000000E+00 0.  1.
          1   -1    0    0  501    0  0.00000000000E+00 -0.00000000000E+00 -0.23707059040E+03  0.23707059040E+03  0.00000000000E+00 0. -1.
          5    1    1    2  502    0 -0.14566369742E+02 -0.25374995544E+02  0.57362472167E+01  0.30107249267E+02  0.41800000000E+01 0. -1.
         -5    1    1    2    0  502  0.16808716101E+02  0.13650117229E+03  0.44275363913E+02  0.14454370696E+03  0.41800000000E+01 0. -1.
        -11    1    1    2    0    0  0.37127887181E+02 -0.77904364785E+02 -0.11710370319E+03  0.14546768493E+03  0.00000000000E+00 0. -1.
         11    1    1    2    0    0 -0.39370233540E+02 -0.33221811958E+02 -0.28201848580E+02  0.58728599014E+02  0.00000000000E+00 0.  1.
</event>
<event>
 6    1  0.4988969E-006  0.9793103E+02  0.7561462E-02  0.1284708E+00
          3   -1    0    0  501    0  0.00000000000E+00  0.00000000000E+00  0.34219683189E+03  0.34219683189E+03  0.00000000000E+00 0. -1.
         -3   -1    0    0    0  501 -0.00000000000E+00 -0.00000000000E+00 -0.39722651115E+02  0.39722651115E+02  0.00000000000E+00 0.  1.
          5    1    1    2  502    0 -0.37286707101E+02  0.51804463487E+02  0.17026779725E+02  0.66192028156E+02  0.41800000000E+01 0.  1.
         -5    1    1    2    0  502  0.30019484607E+02 -0.25828752857E+02  0.98346167233E+02  0.10610247377E+03  0.41800000000E+01 0.  1.
        -11    1    1    2    0    0 -0.38846190088E+02  0.60322976538E+00  0.56246172228E+02  0.68359507464E+02  0.00000000000E+00 0.  1.
         11    1    1    2    0    0  0.46113412582E+02 -0.26578940395E+02  0.13085506159E+03  0.14126547361E+03  0.00000000000E+00 0. -1.
</event>
<event>
 6    1  0.4988969E-006  0.1090588E+03  0.7561462E-02  0.1262323E+00
         -3   -1    0    0    0  501 -0.00000000000E+00  0.00000000000E+00  0.99019244199E+02  0.99019244199E+02  0.00000000000E+00 0.  1.
          3   -1    0    0  501    0  0.00000000000E+00 -0.00000000000E+00 -0.17444845877E+03  0.17444845877E+03  0.00000000000E+00 0. -1.
          5    1    1    2  502    0  0.11816582379E+02  0.40285766208E+02  0.73313238777E+01  0.42822836056E+02  0.41800000000E+01 0. -1.
         -5    1    1    2    0  502  0.46746938798E+02 -0.85446653568E+02 -0.44547226968E+02  0.10718364952E+03  0.41800000000E+01 0. -1.
        -11    1    1    2    0    0 -0.33438508186E+02  0.41105961621E+02 -0.66749265215E+02  0.85224986461E+02  0.00000000000E+00 0. -1.
         11    1    1    2    0    0 -0.25125012991E+02  0.40549257394E+01  0.28535953736E+02  0.38236230935E+02  0.00000000000E+00 0.  1.
</event>
<event>
 6    1  0.4988969E-006  0.1126097E+03  0.7561462E-02  0.1255812E+00
         -2   -1    0    0    0  501 -0.00000000000E+00  0.00000000000E+00  0.32461286408E+02  0.32461286408E+02  0.00000000000E+00 0.  1.
          2   -1    0    0  501    0  0.00000000000E+00 -0.00000000000E+00 -0.66922918476E+03  0.66922918476E+03  0.00000000000E+00 0. -1.
          5    1    1    2  502    0  0.56997653692E+02 -0.73380686072E+02 -0.24243719785E+03  0.25966656488E+03  0.41800000000E+01 0.  1.
         -5    1    1    2    0  502  0.25316538022E+02  0.28700436731E+02 -0.14665299041E+02  0.41196912043E+02  0.41800000000E+01 0.  1.
        -11    1    1    2    0    0 -0.29407775735E+02  0.17675241554E+02 -0.28300114421E+02  0.44476149945E+02  0.00000000000E+00 0.  1.
         11    1    1    2    0    0 -0.52906415979E+02  0.27005007786E+02 -0.35136528704E+03  0.35635084430E+03  0.00000000000E+00 0. -1.
</event>
<event>
 6    1  0.4988969E-006  0.1323217E+03  0.7561462E-02  0.1224051E+00
          1   -1    0    0  501    0  0.00000000000E+00  0.00000000000E+00  0.27205197077E+02  0.27205197077E+02  0.00000000000E+00 0. -1.
         -1   -1    0    0    0  501 -0.00000000000E+00 -0.00000000000E+00 -0.78358171334E+03  0.78358171334E+03  0.00000000000E+00 0.  1.
          5    1    1    2  502    0  0.22098516726E+02  0.16354831856E+02 -0.24607271449E+03  0.24763900779E+03  0.41800000000E+01 0.  1.
         -5    1    1    2    0  502  0.26298905738E+02 -0.10046566356E+03 -0.19474597736E+03  0.22074521534E+03  0.41800000000E+01 0.  1.
        -11    1    1    2    0    0  0.10725330952E+02  0.71688929150E+02 -0.17286403621E+03  0.18744681993E+03  0.00000000000E+00 0.  1.
         11    1    1    2    0    0 -0.59122753416E+02  0.12421902556E+02 -0.14269378821E+03  0.15495586735E+03  0.00000000000E+00 0. -1.
</event>
<event>
 6    1  0.4988969E-006  0.1728582E+03  0.7561462E-02  0.1174900E+00
         -1   -1    0    0    0  501 -0.00000000000E+00  0.00000000000E+00  0.90730415373E+03  0.90730415373E+03  0.00000000000E+00 0.  1.
          1   -1    0    0  501    0  0.00000000000E+00 -0.00000000000E+00 -0.34961907390E+02  0.34961907390E+02  0.00000000000E+00 0. -1.
          5    1    1    2  502    0  0.11767605211E+03  0.57106167345E+02  0.43280991911E+03  0.45216221212E+03  0.41800000000E+01 0. -1.
         -5    1    1    2    0  502 -0.22126722078E+02  0.44405749166E+02  0.85341229902E+02  0.98803139171E+02  0.41800000000E+01 0. -1.
        -11    1    1    2    0    0 -0.86732587858E+02 -0.28173307857E+02  0.21937956103E+03  0.23757876351E+03  0.00000000000E+00 0. -1.
         11    1    1    2    0    0 -0.88167421731E+01 -0.73338608653E+02  0.13481153630E+03  0.15372194632E+03  0.00000000000E+00 0.  1.
</event>
<event>
 6    1  0.4988969E-006  0.1739846E+03  0.7561462E-02  0.1173755E+00
         -1   -1    0    0    0  501 -0.00000000000E+00  0.00000000000E+00  0.72064216815E+02  0.72064216815E+02  0.00000000000E+00 0.  1.
          1   -1    0    0  501    0  0.00000000000E+00 -0.00000000000E+00 -0.45373516493E+03  0.45373516493E+03  0.00000000000E+00 0. -1.
          5    1    1    2  502    0  0.30165910343E+02  0.31471870809E+01 -0.23547374670E+01  0.30706743915E+02  0.41800000000E+01 0. -1.
         -5    1    1    2    0  502 -0.71568826111E+02  0.11924929816E+03 -0.15457927894E+03  0.20797768597E+03  0.41800000000E+01 0. -1.
        -11    1    1    2    0    0  0.71984999231E+02 -0.12825413611E+03 -0.19302075278E+03  0.24266844572E+03  0.00000000000E+00 0. -1.
         11    1    1    2    0    0 -0.30582083463E+02  0.58576508746E+01 -0.31716178927E+02  0.44446506144E+02  0.00000000000E+00 0.  1.
</event>
<event>
 6    1  0.4988969E-006  0.1452761E+03  0.7561462E-02  0.1206401E+00
          1   -1    0    0  501    0  0.00000000000E+00  0.00000000000E+00  0.36244261091E+02  0.36244261091E+02  0.00000000000E+00 0. -1.
         -1   -1    0    0    0  501 -0.00000000000E+00 -0.00000000000E+00 -0.60538732584E+03  0.60538732584E+03  0.00000000000E+00 0.  1.
          5    1    1    2  502    0 -0.60940140949E+02 -0.36095480588E+02 -0.16636082346E+03  0.18085900719E+03  0.41800000000E+01 0. -1.
         -5    1    1    2    0  502 -0.26267138538E+02  0.84654328564E+02 -0.17980830633E+03  0.20051138954E+03  0.41800000000E+01 0. -1.
        -11    1    1    2    0    0 -0.11898831879E+02 -0.26910398701E+02 -0.77611052707E+02  0.83001369029E+02  0.00000000000E+00 0.  1.
         11    1    1    2    0    0  0.99106111366E+02 -0.21648449275E+02 -0.14536288226E+03  0.17725982118E+03  0.00000000000E+00 0. -1.
</event>
<event>
 6    1  0.4988969E-006  0.1142610E+03  0.7561462E-02  0.1252877E+00
          3   -1    0    0  501    0  0.00000000000E+00  0.00000000000E+00  0.16682706254E+02  0.16682706254E+02  0.00000000000E+00 0. -1.
         -3   -1    0    0    0  501 -0.00000000000E+00 -0.00000000000E+00 -0.17851362913E+04  0.17851362913E+04  0.00000000000E+00 0.  1.
          5    1    1    2  502    0 -0.42652325955E+02 -0.17235475478E+01 -0.87641396793E+03  0.87746288075E+03  0.41800000000E+01 0. -1.
         -5    1    1    2    0  502  0.74945950450E+02  0.35795596667E+02 -0.70844367573E+03  0.71330788185E+03  0.41800000000E+01 0.  1.
        -11    1    1    2    0    0  0.25517744606E+02  0.12329291176E+02 -0.68674277071E+02  0.74292146570E+02  0.00000000000E+00 0.  1.
         11    1    1    2    0    0 -0.57811369101E+02 -0.46401340296E+02 -0.11492166432E+03  0.13675608838E+03  0.00000000000E+00 0. -1.
</event>
<event>
 6    1  0.4988969E-006  0.1435700E+03  0.7561462E-02  0.1208604E+00
         -2   -1    0    0    0  501 -0.00000000000E+00  0.00000000000E+00  0.23435559463E+03  0.23435559463E+03  0.00000000000E+00 0.  1.
          2   -1    0    0  501    0  0.00000000000E+00 -0.00000000000E+00 -0.14270216731E+03  0.14270216731E+03  0.00000000000E+00 0. -1.
          5    1    1    2  502    0 -0.32984933384E+02  0.65171151479E+02  0.12760092464E+03  0.14708756979E+03  0.41800000000E+01 0.  1.
         -5    1    1    2    0  502 -0.51675604566E+02  0.39377616212E+02 -0.17058992842E+02  0.67301161971E+02  0.41800000000E+01 0.  1.
        -11    1    1    2    0    0  0.60977438042E+02 -0.25049113985E+02  0.22898988095E+02  0.69785884800E+02  0.00000000000E+00 0.  1.
         11    1    1    2    0    0  0.23683099908E+02 -0.79499653706E+02 -0.41787492574E+02  0.92883145383E+02  0.00000000000E+00 0. -1.
</event>
<event>
 6    1  0.4988969E-006  0.8427917E+02  0.7561462E-02  0.1317328E+00
          1   -1    0    0  501    0  0.00000000000E+00  0.00000000000E+00  0.86306535170E+03  0.86306535170E+03  0.00000000000E+00 0. -1.
         -1   -1    0    0    0  501 -0.00000000000E+00 -0.00000000000E+00 -0.19137223557E+02  0.19137223557E+02  0.00000000000E+00 0.  1.
          5    1    1    2  502    0  0.13803237910E+02  0.10385174526E+02 -0.44747525985E+01  0.18326948397E+02  0.41800000000E+01 0.  1.
         -5    1    1    2    0  502  0.30879449570E+02 -0.12046783813E+02  0.35429533382E+03  0.35586699956E+03  0.41800000000E+01 0.  1.
        -11    1    1    2    0    0 -0.65880904068E+02  0.37450606178E+02  0.29273455876E+03  0.30238446276E+03  0.00000000000E+00 0. -1.
         11    1    1    2    0    0  0.21198216588E+02 -0.35788996892E+02  0.20137298815E+03  0.20562416454E+03  0.00000000000E+00 0.  1.
</event>
<event>
 6    1  0.4988969E-006  0.1519115E+03  0.7561462E-02  0.1198144E+00
          1   -1    0    0  501    0  0.00000000000E+00  0.00000000000E+00  0.49914474320E+03  0.49914474320E+03  0.00000000000E+00 0. -1.
         -1   -1    0    0    0  501 -0.00000000000E+00 -0.00000000000E+00 -0.70222030447E+02  0.70222030447E+02  0.00000000000E+00 0.  1.
          5    1    1    2  502    0  0.46195630160E+02 -0.35030866362E+02 -0.64580102267E+01  0.58483981910E+02  0.41800000000E+01 0.  1.
         -5    1    1    2    0  502 -0.41660539488E+02 -0.90596317913E+02  0.10304517296E+03  0.14345408129E+03  0.41800000000E+01 0.  1.
        -11    1    1    2    0    0 -0.36850971653E+02  0.40083407252E+02  0.64479918843E+02  0.84393919109E+02  0.00000000000E+00 0.  1.
         11    1    1    2    0    0  0.32315880981E+02  0.85543777024E+02  0.26785563118E+03  0.28303479134E+03  0.00000000000E+00 0. -1.
</event>
<event>
 6    1  0.4988969E-006  0.1655653E+03  0.7561462E-02  0.1182553E+00
          2   -1    0    0  501    0  0.00000000000E+00  0.00000000000E+00  0.71007291962E+03  0.71007291962E+03  0.00000000000E+00 0. -1.
         -2   -1    0    0    0  501 -0.00000000000E+00 -0.00000000000E+00 -0.47441059853E+02  0.47441059853E+02  0.00000000000E+00 0.  1.
          5    1    1    2  502    0 -0.11598037259E+03 -0.14579622696E+01  0.12582670991E+03  0.17118237587E+03  0.41800000000E+01 0.  1.
         -5    1    1    2    0  502 -0.81179831262E+01 -0.66587551830E+02  0.13556659622E+03  0.15131284850E+03  0.41800000000E+01 0.  1.
        -11    1    1    2    0    0  0.71638405046E+02  0.62559490676E+02  0.14501040957E+03  0.17341790517E+03  0.00000000000E+00 0.  1.
         11    1    1    2    0    0  0.52459950671E+02  0.54860234241E+01  0.25622814407E+03  0.26160084994E+03  0.00000000000E+00 0. -1.
</event>
<event>
 6    1  0.4988969E-006  0.8197144E+02  0.7561462E-02  0.1323548E+00
          2   -1    0    0  501    0  0.00000000000E+00  0.00000000000E+00  0.81312953202E+02  0.81312953202E+02  0.00000000000E+00 0. -1.
         -2   -1    0    0    0  501 -0.00000000000E+00 -0.00000000000E+00 -0.17547612519E+03  0.17547612519E+03  0.00000000000E+00 0.  1.
          5    1    1    2  502    0  0.21871910676E+02 -0.25631212609E+02 -0.82356484307E+02  0.89080875859E+02  0.41800000000E+01 0. -1.
         -5    1    1    2    0  502  0.72193414599E+01  0.61928056166E+02  0.91272107498E+01  0.63150466409E+02  0.41800000000E+01 0. -1.
        -11    1    1    2    0    0 -0.89825757895E+01 -0.44784040021E+02 -0.50315993187E+02  0.67955839181E+02  0.00000000000E+00 0.  1.
         11    1    1    2    0    0 -0.20108676346E+02  0.84871964634E+01  0.29382094751E+02  0.36601896948E+02  0.00000000000E+00 0. -1.
</event>
<event>
 6    1  0.4988969E-006  0.1388938E+03  0.7561462E-02  0.1214825E+00
         -1   -1    0    0    0  501 -0.00000000000E+00  0.00000000000E+00  0.57190412818E+02  0.57190412818E+02  0.00000000000E+00 0.  1.
          1   -1    0    0  501    0  0.00000000000E+00 -0.00000000000E+00 -0.36692012731E+03  0.36692012731E+03  0.00000000000E+00 0. -1.
          5    1    1    2  502    0  0.59222149954E+01  0.29117137618E+02 -0.59821913960E+02  0.66925437043E+02  0.41800000000E+01 0. -1.
         -5    1    1    2    0  502 -0.27889182419E+02 -0.11800339273E+03 -0.14056327754E+03  0.18568283331E+03  0.41800000000E+01 0.  1.
        -11    1    1    2    0    0 -0.94732503122E+01 -0.15096925723E+02 -0.65880568048E+00  0.17835180478E+02  0.00000000000E+00 0.  1.
         11    1    1    2    0    0  0.31440217736E+02  0.10398318083E+03 -0.10868571731E+03  0.15366708930E+03  0.00000000000E+00 0. -1.
</event>
<event>
 6    1  0.4988969E-006  0.1202309E+03  0.7561462E-02  0.1242717E+00
          1   -1    0    0  501    0  0.00000000000E+00  0.00000000000E+00  0.60888396671E+02  0.60888396671E+02  0.00000000000E+00 0. -1.
         -1   -1    0    0    0  501 -0.00000000000E+00 -0.00000000000E+00 -0.31812103744E+03  0.31812103744E+03  0.00000000000E+00 0.  1.
          5    1    1    2  502    0  0.80310731717E+02  0.30129128071E+02 -0.18747274341E+03  0.20620640123E+03  0.41800000000E+01 0. -1.
         -5    1    1    2    0  502 -0.13873407670E+02 -0.36560249937E+02 -0.34215327396E+02  0.52127577583E+02  0.41800000000E+01 0.  1.
        -11    1    1    2    0    0  0.23109116721E+02 -0.82045530758E+01 -0.92321906464E+01  0.26202658470E+02  0.00000000000E+00 0. -1.
         11    1    1    2    0    0 -0.89546440767E+02  0.14635674941E+02 -0.26312379319E+02  0.94472796828E+02  0.00000000000E+00 0.  1.
</event>
<event>
 6    1  0.4988969E-006  0.1166966E+03  0.7561462E-02  0.1248648E+00
          3   -1    0    0  501    0  0.00000000000E+00  0.00000000000E+00  0.25631677177E+03  0.25631677177E+03  0.00000000000E+00 0. -1.
         -3   -1    0    0    0  501 -0.00000000000E+00 -0.00000000000E+00 -0.12627500701E+03  0.12627500701E+03  0.00000000000E+00 0.  1.
          5    1    1    2  502    0 -0.69558999143E+02 -0.41558525751E+02 -0.72630472806E+02  0.10889547008E+03  0.41800000000E+01 0.  1.
         -5    1    1    2    0  502 -0.27809541035E+01 -0.41644382696E+02  0.43426437524E+02  0.60376453953E+02  0.41800000000E+01 0.  1.
        -11    1    1    2    0    0  0.15060613874E+02  0.15166321364E+02 -0.88598101677E+01  0.23137321154E+02  0.00000000000E+00 0.  1.
         11    1    1    2    0    0  0.57279339373E+02  0.68036587083E+02  0.16810561021E+03  0.19018253360E+03  0.00000000000E+00 0. -1.
</event>
<event>
 6    1  0.4988969E-006  0.1283935E+03  0.7561462E-02  0.1229859E+00
          2   -1    0    0  501    0  0.00000000000E+00  0.00000000000E+00  0.22239537305E+03  0.22239537305E+03  0.00000000000E+00 0. -1.
         -2   -1    0    0    0  501 -0.00000000000E+00 -0.00000000000E+00 -0.13106297390E+03  0.13106297390E+03  0.00000000000E+00 0.  1.
          5    1    1    2  502    0  0.77782077199E+02  0.27334273539E+02  0.48009480247E+02  0.95496579190E+02  0.41800000000E+01 0. -1.
         -5    1    1    2    0  502  0.11060521771E+02  0.45011394677E+02 -0.58092518749E+02  0.74435031586E+02  0.41800000000E+01 0. -1.
        -11    1    1    2    0    0 -0.80258255489E+02 -0.31924149807E+02  0.11145054180E+03  0.14100270275E+03  0.00000000000E+00 0. -1.
         11    1    1    2    0    0 -0.85843434816E+01 -0.40421518410E+02 -0.10035104152E+02  0.42524033427E+02  0.00000000000E+00 0.  1.
</event>
<event>
 6    1  0.4988969E-006  0.1015748E+03  0.7561462E-02  0.1277019E+00
         -1   -1    0    0    0  501 -0.00000000000E+00  0.00000000000E+00  0.26642413502E+03  0.26642413502E+03  0.00000000000E+00 0.  1.
          1   -1    0    0  501    0  0.00000000000E+00 -0.00000000000E+00 -0.74468996636E+02  0.74468996636E+02  0.00000000000E+00 0. -1.
          5    1    1    2  502    0  0.19706112405E+02 -0.98528247577E+02  0.95064395181E+01  0.10101480698E+03  0.41800000000E+01 0. -1.
         -5    1    1    2    0  502 -0.62347952180E+01  0.12378771412E+02  0.68974304518E+02  0.70477185931E+02  0.41800000000E+01 0. -1.
        -11    1    1    2    0    0 -0.12190418314E+02  0.37331076212E+02  0.11398806236E+03  0.12056323615E+03  0.00000000000E+00 0.  1.
         11    1    1    2    0    0 -0.12808988726E+01  0.48818399953E+02 -0.51366800589E+00  0.48837902604E+02  0.00000000000E+00 0. -1.
</event>
<event>
 6    1  0.4988969E-006  0.9779658E+02  0.7561462E-02  0.1284999E+00
         -4   -1    0    0    0  501 -0.00000000000E+00  0.00000000000E+00  0.69776540021E+03  0.69776540021E+03  0.00000000000E+00 0. -1.
          4   -1    0    0  501    0  0.00000000000E+00 -0.00000000000E+00 -0.25250473425E+02  0.25250473425E+02  0.00000000000E+00 0.  1.
          5    1    1    2  502    0  0.25358377213E+02  0.30094870269E+02  0.77271855353E+02  0.86816821763E+02  0.41800000000E+01 0.  1.
         -5    1    1    2    0  502 -0.82334361537E+02 -0.11386272283E+02  0.50072029374E+03  0.50758928204E+03  0.41800000000E+01 0.  1.
        -11    1    1    2    0    0  0.59696237629E+02 -0.62270605673E+01  0.98399419535E+02  0.11525997933E+03  0.00000000000E+00 0. -1.
         11    1    1    2    0    0 -0.27202533052E+01 -0.12481537418E+02 -0.38766418399E+01  0.13349790497E+02  0.00000000000E+00 0.  1.
</event>
<event>
 6    1  0.4988969E-006  0.1098387E+03  0.7561462E-02  0.1260869E+00
          2   -1    0    0  501    0  0.00000000000E+00  0.00000000000E+00  0.45895111550E+02  0.45895111550E+02  0.00000000000E+00 0. -1.
         -2   -1    0    0    0  501 -0.00000000000E+00 -0.00000000000E+00 -0.37309036112E+03  0.37309036112E+03  0.00000000000E+00 0.  1.
          5    1    1    2  502    0 -0.48497639992E+02 -0.94613954813E+01 -0.60282455451E+02  0.78057580826E+02  0.41800000000E+01 0. -1.
         -5    1    1    2    0  502  0.69529633759E+02 -0.14645565740E+02 -0.22026244585E+03  0.23147760154E+03  0.41800000000E+01 0.  1.
        -11    1    1    2    0    0 -0.28427748265E+02  0.57801604583E+02 -0.28023034578E+02  0.70245660583E+02  0.00000000000E+00 0. -1.
         11    1    1    2    0    0  0.73957544983E+01 -0.33694643362E+02 -0.18627313701E+02  0.39204629722E+02  0.00000000000E+00 0.  1.
</event>
<event>
 6    1  0.4988969E-006  0.1007265E+03  0.7561462E-02  0.1278776E+00
          2   -1    0    0  501    0  0.00000000000E+00  0.00000000000E+00  0.39918552215E+03  0.39918552215E+03  0.00000000000E+00 0.  1.
         -2   -1    0    0    0  501 -0.00000000000E+00 -0.00000000000E+00 -0.39459330032E+02  0.39459330032E+02  0.00000000000E+00 0. -1.
          5    1    1    2  502    0 -0.62063610751E+02 -0.27788296604E+02  0.13928427979E+03  0.15505374618E+03  0.41800000000E+01 0.  1.
         -5    1    1    2    0  502  0.29270542592E+02 -0.71303483756E+01 -0.90915021560E+01  0.31744831753E+02  0.41800000000E+01 0.  1.
        -11    1    1    2    0    0  0.37920455182E+02  0.63451435078E+02  0.15072928694E+03  0.16787901440E+03  0.00000000000E+00 0.  1.
         11    1    1    2    0    0 -0.51273870224E+01 -0.28532790098E+02  0.78804127548E+02  0.83967259852E+02  0.00000000000E+00 0. -1.
</event>
<event>
 6    1  0.4988969E-006  0.1282907E+03  0.7561462E-02  0.1230014E+00
         -3   -1    0    0    0  501 -0.00000000000E+00  0.00000000000E+00  0.95420151661E+02  0.95420151661E+02  0.00000000000E+00 0.  1.
          3   -1    0    0  501    0  0.00000000000E+00 -0.00000000000E+00 -0.30605365308E+03  0.30605365308E+03  0.00000000000E+00 0. -1.
          5    1    1    2  502    0  0.23793837769E+02  0.87258855555E+01  0.43477708443E+02  0.50498230919E+02  0.41800000000E+01 0.  1.
         -5    1    1    2    0  502  0.62100169747E+02 -0.73273383521E+02 -0.64419879022E+02  0.11572732188E+03  0.41800000000E+01 0.  1.
        -11    1    1    2    0    0 -0.15512747561E+02  0.62444897907E+02 -0.61582695976E+02  0.89064241170E+02  0.00000000000E+00 0.  1.
         11    1    1    2    0    0 -0.70381259955E+02  0.21026000588E+01 -0.12810863487E+03  0.14618401078E+03  0.00000000000E+00 0. -1.
</event>
<event>
 6    1  0.4988969E-006  0.1026151E+03  0.7561462E-02  0.1274891E+00
         -2   -1    0    0    0  501 -0.00000000000E+00  0.00000000000E+00  0.55675835983E+02  0.55675835983E+02  0.00000000000E+00 0.  1.
          2   -1    0    0  501    0  0.00000000000E+00 -0.00000000000E+00 -0.48357731002E+03  0.48357731002E+03  0.00000000000E+00 0. -1.
          5    1    1    2  502    0  0.22598302837E+02 -0.55005152272E+02 -0.46185038143E+02  0.75410743372E+02  0.41800000000E+01 0. -1.
         -5    1    1    2    0  502 -0.30010321671E+02  0.42474461340E+02  0.16479997083E+02  0.54715281017E+02  0.41800000000E+01 0.  1.
        -11    1    1    2    0    0 -0.39246329419E+02  0.23185446775E+02 -0.21529971004E+03  0.22007227098E+03  0.00000000000E+00 0.  1.
         11    1    1    2    0    0  0.46658348252E+02 -0.10654755843E+02 -0.18289672294E+03  0.18905485063E+03  0.00000000000E+00 0. -1.
</event>
<event>
 6    1  0.4988969E-006  0.2016699E+03  0.7561462E-02  0.1148338E+00
          1   -1    0    0  501    0  0.00000000000E+00  0.00000000000E+00  0.12256829657E+04  0.12256829657E+04  0.00000000000E+00 0. -1.
         -1   -1    0    0    0  501 -0.00000000000E+00 -0.00000000000E+00 -0.42105888177E+02  0.42105888177E+02  0.00000000000E+00 0.  1.
          5    1    1    2  502    0 -0.10367181318E+03 -0.15746031791E+02  0.17255873588E+03  0.20196477934E+03  0.41800000000E+01 0.  1.
         -5    1    1    2    0  502 -0.42024666466E+02  0.91921554417E+02  0.14113113295E+03  0.17364076090E+03  0.41800000000E+01 0.  1.
        -11    1    1    2    0    0  0.68722066903E+02 -0.95705915227E+02  0.47549470000E+03  0.48987503959E+03  0.00000000000E+00 0. -1.
         11    1    1    2    0    0  0.76974412741E+02  0.19530392601E+02  0.39439250865E+03  0.40230827400E+03  0.00000000000E+00 0.  1.
</event>
<event>
 6    1  0.4988969E-006  0.1006018E+03  0.7561462E-02  0.1279035E+00
          2   -1    0    0  501    0  0.00000000000E+00  0.00000000000E+00  0.74078304538E+02  0.74078304538E+02  0.00000000000E+00 0. -1.
         -2   -1    0    0    0  501 -0.00000000000E+00 -0.00000000000E+00 -0.19721464323E+03  0.19721464323E+03  0.00000000000E+00 0.  1.
          5    1    1    2  502    0  0.29684354582E+02  0.35288099776E+02 -0.52456004970E+02  0.69967962312E+02  0.41800000000E+01 0.  1.
         -5    1    1    2    0  502  0.43254803372E+01 -0.74022275883E+02  0.23566332660E+01  0.74303655545E+02  0.41800000000E+01 0.  1.
        -11    1    1    2    0    0 -0.27085902162E+02 -0.11860656987E+02  0.85413868833E+01  0.30777858437E+02  0.00000000000E+00 0. -1.
         11    1    1    2    0    0 -0.69239327572E+01  0.50594833094E+02 -0.81578353869E+02  0.96243471470E+02  0.00000000000E+00 0.  1.
</event>
<event>
 6    1  0.4988969E-006  0.1052423E+03  0.7561462E-02  0.1269643E+00
         -2   -1    0    0    0  501 -0.00000000000E+00  0.00000000000E+00  0.95755436558E+03  0.95755436558E+03  0.00000000000E+00 0.  1.
          2   -1    0    0  501    0  0.00000000000E+00 -0.00000000000E+00 -0.13866883303E+02  0.13866883303E+02  0.00000000000E+00 0. -1.
          5    1    1    2  502    0  0.38108655035E+02  0.14861284220E+02  0.79100285206E+02  0.89148499017E+02  0.41800000000E+01 0.  1.
         -5    1    1    2    0  502 -0.71419364252E+02  0.36877937839E+01  0.46258623172E+03  0.46810022388E+03  0.41800000000E+01 0.  1.
        -11    1    1    2    0    0  0.41305515581E+02  0.28386727946E+02  0.24659277434E+03  0.25163455307E+03  0.00000000000E+00 0.  1.
         11    1    1    2    0    0 -0.79948063643E+01 -0.46935805950E+02  0.15540819100E+03  0.16253797292E+03  0.00000000000E+00 0. -1.
</event>
<event>
 6    1  0.4988969E-006  0.1194336E+03  0.7561462E-02  0.1244034E+00
          2   -1    0    0  501    0  0.00000000000E+00  0.00000000000E+00  0.20990845925E+02  0.20990845925E+02  0.00000000000E+00 0.  1.
         -2   -1    0    0    0  501 -0.00000000000E+00 -0.00000000000E+00 -0.79291204836E+03  0.79291204836E+03  0.00000000000E+00 0. -1.
          5    1    1    2  502    0 -0.39450672588E+02 -0.69679818260E+01 -0.24277932526E+03  0.24609791042E+03  0.41800000000E+01 0.  1.
         -5    1    1    2    0  502  0.77695939857E+02  0.50691549451E+02 -0.30863812330E+03  0.32230615230E+03  0.41800000000E+01 0.  1.
        -11    1    1    2    0    0  0.24439835616E+02 -0.34626074610E+02 -0.11346900655E+03  0.12112590993E+03  0.00000000000E+00 0. -1.
         11    1    1    2    0    0 -0.62685102886E+02 -0.90974930143E+01 -0.10703474732E+03  0.12437292164E+03  0.00000000000E+00 0.  1.
</event>
<event>
 6    1  0.4988969E-006  0.1168145E+03  0.7561462E-02  0.1248447E+00
         -1   -1    0    0    0  501 -0.00000000000E+00  0.00000000000E+00  0.75151546772E+02  0.75151546772E+02  0.00000000000E+00 0.  1.
          1   -1    0    0  501    0  0.00000000000E+00 -0.00000000000E+00 -0.27236915088E+03  0.27236915088E+03  0.00000000000E+00 0. -1.
          5    1    1    2  502    0  0.27183791743E+02 -0.29702570063E+02  0.16211079494E+02  0.43605879194E+02  0.41800000000E+01 0. -1.
         -5    1    1    2    0  502 -0.78743581872E+02  0.37501765698E+02 -0.31297136625E+02  0.92757303095E+02  0.41800000000E+01 0. -1.
        -11    1    1    2    0    0 -0.13398017734E+02  0.28447165443E+02 -0.41530190516E+02  0.52091312378E+02  0.00000000000E+00 0.  1.
         11    1    1    2    0    0  0.64957807863E+02 -0.36246361078E+02 -0.14060135647E+03  0.15906620299E+03  0.00000000000E+00 0. -1.
</event>
<event>
 6    1  0.4988969E-006  0.2090273E+03  0.7561462E-02  0.1142339E+00
          2   -1    0    0  501    0  0.00000000000E+00  0.00000000000E+00  0.20517696469E+03  0.20517696469E+03  0.00000000000E+00 0. -1.
         -2   -1    0    0    0  501 -0.00000000000E+00 -0.00000000000E+00 -0.25228664018E+03  0.25228664018E+03  0.00000000000E+00 0.  1.
          5    1    1    2  502    0  0.91523867196E+02  0.21731917894E+02 -0.55069827522E+01  0.94322286767E+02  0.41800000000E+01 0.  1.
         -5    1    1    2    0  502  0.36179848510E+02  0.11601358577E+03 -0.87312057495E+02  0.14969636370E+03  0.41800000000E+01 0.  1.
        -11    1    1    2    0    0 -0.68338725409E+02 -0.12365557798E+03  0.75582978233E+01  0.14148502119E+03  0.00000000000E+00 0.  1.
         11    1    1    2    0    0 -0.59364990297E+02 -0.14089925682E+02  0.38151066940E+02  0.71959933209E+02  0.00000000000E+00 0. -1.
</event>
<event>
 6    1  0.4988969E-006  0.1041998E+03  0.7561462E-02  0.1271704E+00
         -1   -1    0    0    0  501 -0.00000000000E+00  0.00000000000E+00  0.57628758782E+03  0.57628758782E+03  0.00000000000E+00 0.  1.
          1   -1    0    0  501    0  0.00000000000E+00 -0.00000000000E+00 -0.22360847243E+02  0.22360847243E+02  0.00000000000E+00 0. -1.
          5    1    1    2  502    0  0.48146304548E+02 -0.38437641457E+01  0.66477898611E+02  0.82277728263E+02  0.41800000000E+01 0. -1.
         -5    1    1    2    0  502 -0.63579773471E+02 -0.25607116634E+02  0.26047769572E+03  0.26937745709E+03  0.41800000000E+01 0. -1.
        -11    1    1    2    0    0  0.50722462417E+02  0.21409664103E+02  0.17648933182E+03  0.18487732732E+03  0.00000000000E+00 0.  1.
         11    1    1    2    0    0 -0.35288993494E+02  0.80412166766E+01  0.50481814420E+02  0.62115922392E+02  0.00000000000E+00 0. -1.
</event>
<event>
 6    1  0.4988969E-006  0.1033150E+03  0.7561462E-02  0.1273475E+00
          3   -1    0    0  501    0  0.00000000000E+00  0.00000000000E+00  0.90982652690E+02  0.90982652690E+02  0.00000000000E+00 0. -1.
         -3   -1    0    0    0  501 -0.00000000000E+00 -0.00000000000E+00 -0.13703000830E+03  0.13703000830E+03  0.00000000000E+00 0.  1.
          5    1    1    2  502    0  0.40929084598E+02 -0.60439877599E+02 -0.37442981186E+02  0.82143886019E+02  0.41800000000E+01 0.  1.
         -5    1    1    2    0  502 -0.28118987047E+02  0.44399958734E+02 -0.12946881701E+02  0.54287456322E+02  0.41800000000E+01 0.  1.
        -11    1    1    2    0    0  0.23662436155E+02 -0.18902426573E+02 -0.19195668783E+02  0.35856468247E+02  0.00000000000E+00 0.  1.
         11    1    1    2    0    0 -0.36472533706E+02  0.34942345439E+02  0.23538176062E+02  0.55724850399E+02  0.00000000000E+00 0. -1.
</event>
<event>
 6    1  0.4988969E-006  0.9430808E+02  0.7561462E-02  0.1292742E+00
         -2   -1    0    0    0  501 -0.00000000000E+00  0.00000000000E+00  0.28290609479E+03  0.28290609479E+03  0.00000000000E+00 0.  1.
          2   -1    0    0  501    0  0.00000000000E+00 -0.00000000000E+00 -0.50268629150E+02  0.50268629150E+02  0.00000000000E+00 0. -1.
          5    1    1    2  502    0  0.42092234689E+02  0.36355240278E+01  0.19425400805E+02  0.46688241052E+02  0.41800000000E+01 0.  1.
         -5    1    1    2    0  502 -0.61751707640E+02 -0.28465475281E+02  0.16478536368E+03  0.17831221260E+03  0.41800000000E+01 0.  1.
        -11    1    1    2    0    0  0.32466683532E+02 -0.15314940286E+02  0.54846473867E+02  0.65549741656E+02  0.00000000000E+00 0.  1.
         11    1    1    2    0    0 -0.12807210581E+02  0.40144891539E+02 -0.64197727092E+01  0.42624528633E+02  0.00000000000E+00 0. -1.
</event>
<event>
 6    1  0.4988969E-006  0.1010739E+03  0.7561462E-02  0.1278054E+00
          1   -1    0    0  501    0  0.00000000000E+00  0.00000000000E+00  0.46718709767E+03  0.46718709767E+03  0.00000000000E+00 0. -1.
         -1   -1    0    0    0  501 -0.00000000000E+00 -0.00000000000E+00 -0.21553577753E+03  0.21553577753E+03  0.00000000000E+00 0.  1.
          5    1    1    2  502    0  0.10096852877E+02 -0.64075625148E+02 -0.31409408377E+02  0.72191796699E+02  0.41800000000E+01 0. -1.
         -5    1    1    2    0  502 -0.30670003407E+02  0.10234457310E+02 -0.15567796203E+03  0.15905500146E+03  0.41800000000E+01 0.  1.
        -11    1    1    2    0    0 -0.25180433965E+02 -0.90628833168E+01  0.78530805760E+02  0.82965520320E+02  0.00000000000E+00 0.  1.
         11    1    1    2    0    0  0.45753584495E+02  0.62904051154E+02  0.36020788479E+03  0.36851055672E+03  0.00000000000E+00 0. -1.
</event>
<event>
 6    1  0.4988969E-006  0.1628962E+03  0.7561462E-02  0.1185465E+00
         -1   -1    0    0    0  501 -0.00000000000E+00  0.00000000000E+00  0.58977748507E+03  0.58977748507E+03  0.00000000000E+00 0.  1.
          1   -1    0    0  501    0  0.00000000000E+00 -0.00000000000E+00 -0.15297166045E+03  0.15297166045E+03  0.00000000000E+00 0. -1.
          5    1    1    2  502    0 -0.84329727242E+02  0.85258980245E+02  0.47034609069E+03  0.48541066535E+03  0.41800000000E+01 0. -1.
         -5    1    1    2    0  502 -0.43289435147E+02 -0.17926437311E+02  0.48967153113E+02  0.67901302153E+02  0.41800000000E+01 0. -1.
        -11    1    1    2    0    0  0.13415513448E+03 -0.55378294892E+02 -0.48865398724E+02  0.15314105539E+03  0.00000000000E+00 0. -1.
         11    1    1    2    0    0 -0.65359720932E+01 -0.11954248043E+02 -0.33642020463E+02  0.36296122634E+02  0.00000000000E+00 0.  1.
</event>
<event>
 6    1  0.4988969E-006  0.3256534E+03  0.7561462E-02  0.1073076E+00
          2   -1    0    0  501    0  0.00000000000E+00  0.00000000000E+00  0.20232595847E+03  0.20232595847E+03  0.00000000000E+00 0. -1.
         -2   -1    0    0    0  501 -0.00000000000E+00 -0.00000000000E+00 -0.55122759794E+03  0.55122759794E+03  0.00000000000E+00 0.  1.
          5    1    1    2  502    0 -0.11074891438E+02 -0.67472072493E+02 -0.93006641703E+02  0.11551121845E+03  0.41800000000E+01 0. -1.
         -5    1    1    2    0  502  0.11598850826E+03 -0.22906148631E+03 -0.11129647898E+03  0.27986939310E+03  0.41800000000E+01 0. -1.
        -11    1    1    2    0    0  0.15087280553E+02  0.25954101406E+02 -0.24466316583E+02  0.38727794431E+02  0.00000000000E+00 0.  1.
         11    1    1    2    0    0 -0.12000089737E+03  0.27057945739E+03 -0.12013220219E+03  0.31944515044E+03  0.00000000000E+00 0. -1.
</event>
<event>
 6    1  0.4988969E-006  0.1053597E+03  0.7561462E-02  0.1269413E+00
         -1   -1    0    0    0  501 -0.00000000000E+00  0.00000000000E+00  0.47089596625E+02  0.47089596625E+02  0.00000000000E+00 0.  1.
          1   -1    0    0  501    0  0.00000000000E+00 -0.00000000000E+00 -0.40688487953E+03  0.40688487953E+03  0.00000000000E+00 0. -1.
          5    1    1    2  502    0 -0.68977111449E+02  0.67153329287E+02 -0.67714392770E+02  0.11777148605E+03  0.41800000000E+01 0. -1.
         -5    1    1    2    0  502  0.32681375487E+01 -0.44217767226E+02 -0.55084634952E+02  0.70835591826E+02  0.41800000000E+01 0. -1.
        -11    1    1    2    0    0  0.19493817430E+02 -0.41010187089E+01  0.30815143748E+01  0.20157455278E+02  0.00000000000E+00 0.  1.
         11    1    1    2    0    0  0.46215156470E+02 -0.18834543352E+02 -0.24007776955E+03  0.24520994300E+03  0.00000000000E+00 0. -1.
</event>
<event>
 6    1  0.4988969E-006  0.1168202E+03  0.7561462E-02  0.1248437E+00
         -2   -1    0    0    0  501 -0.00000000000E+00  0.00000000000E+00  0.67352182330E+02  0.67352182330E+02  0.00000000000E+00 0.  1.
          2   -1    0    0  501    0  0.00000000000E+00 -0.00000000000E+00 -0.22326470473E+03  0.22326470473E+03  0.00000000000E+00 0. -1.
          5    1    1    2  502    0 -0.43897147211E+02 -0.60028148502E+02 -0.37880058375E+02  0.83562607477E+02  0.41800000000E+01 0.  1.
         -5    1    1    2    0  502  0.60264503433E+02  0.89332741629E+01 -0.19017784069E+02  0.63959067161E+02  0.41800000000E+01 0.  1.
        -11    1    1    2    0    0 -0.42074014182E+02  0.13496480219E+01 -0.20938704082E+02  0.47015673428E+02  0.00000000000E+00 0.  1.
         11    1    1    2    0    0  0.25706657960E+02  0.49745226317E+02 -0.78075975878E+02  0.96079538998E+02  0.00000000000E+00 0. -1.
</event>
<event>
 6    1  0.4988969E-006  0.1285805E+03  0.7561462E-02  0.1229577E+00
         -1   -1    0    0    0  501 -0.00000000000E+00  0.00000000000E+00  0.11233815614E+03  0.11233815614E+03  0.00000000000E+00 0. -1.
          1   -1    0    0  501    0  0.00000000000E+00 -0.00000000000E+00 -0.16161324128E+03  0.16161324128E+03  0.00000000000E+00 0.  1.
          5    1    1    2  502    0  0.87609018159E+02 -0.57867289388E+02 -0.25835516402E+02  0.10820771484E+03  0.41800000000E+01 0.  1.
         -5    1    1    2    0  502 -0.10485388489E+02  0.38158854859E+02  0.96374638326E+01  0.40943799103E+02  0.41800000000E+01 0.  1.
        -11    1    1    2    0    0 -0.31518743634E+02  0.48874110727E+02  0.53687447030E+01  0.58403196139E+02  0.00000000000E+00 0.  1.
         11    1    1    2    0    0 -0.45604886036E+02 -0.29165676198E+02 -0.38445777270E+02  0.66396687330E+02  0.00000000000E+00 0. -1.
</event>
<event>
 6    1  0.4988969E-006  0.9687016E+02  0.7561462E-02  0.1287019E+00
          2   -1    0    0  501    0  0.00000000000E+00  0.00000000000E+00  0.62093523811E+02  0.62093523811E+02  0.00000000000E+00 0. -1.
         -2   -1    0    0    0  501 -0.00000000000E+00 -0.00000000000E+00 -0.21724117887E+03  0.21724117887E+03  0.00000000000E+00 0.  1.
          5    1    1    2  502    0 -0.52617843775E+02  0.10839343805E+02 -0.11815940952E+03  0.12986626705E+03  0.41800000000E+01 0. -1.
         -5    1    1    2    0  502  0.52560899178E+02 -0.35090076171E+01 -0.19614769894E+02  0.56366416019E+02  0.41800000000E+01 0. -1.
        -11    1    1    2    0    0 -0.39059215998E+02  0.15151712901E+02 -0.22737613944E+02  0.47667555487E+02  0.00000000000E+00 0.  1.
         11    1    1    2    0    0  0.39116160595E+02 -0.22482049089E+02  0.53641383025E+01  0.45434464129E+02  0.00000000000E+00 0. -1.
</event>
<event>
 6    1  0.4988969E-006  0.1240497E+03  0.7561462E-02  0.1236562E+00
          1   -1    0    0  501    0  0.00000000000E+00  0.00000000000E+00  0.18584664782E+03  0.18584664782E+03  0.00000000000E+00 0. -1.
         -1   -1    0    0    0  501 -0.00000000000E+00 -0.00000000000E+00 -0.15217809820E+03  0.15217809820E+03  0.00000000000E+00 0.  1.
          5    1    1    2  502    0  0.90781562991E+01  0.85335262050E+02  0.96315368116E+01  0.86456687262E+02  0.41800000000E+01 0. -1.
         -5    1    1    2    0  502 -0.32799841507E+02  0.71201071397E+01 -0.78162535491E+02  0.85166776873E+02  0.41800000000E+01 0. -1.
        -11    1    1    2    0    0  0.11565791494E+02 -0.10800398720E+03  0.71975306231E+02  0.13030377389E+03  0.00000000000E+00 0.  1.
         11    1    1    2    0    0  0.12155893714E+02  0.15548618009E+02  0.30224242072E+02  0.36097507986E+02  0.00000000000E+00 0. -1.
</event>
<event>
 6    1  0.4988969E-006  0.1605370E+03  0.7561462E-02  0.1188092E+00
          1   -1    0    0  501    0  0.00000000000E+00  0.00000000000E+00  0.13957596759E+03  0.13957596759E+03  0.00000000000E+00 0. -1.
         -1   -1    0    0    0  501 -0.00000000000E+00 -0.00000000000E+00 -0.23972752522E+03  0.23972752522E+03  0.00000000000E+00 0.  1.
          5    1    1    2  502    0 -0.13484547551E+03  0.14124980854E+02 -0.11318227815E+03  0.17666498758E+03  0.41800000000E+01 0. -1.
         -5    1    1    2    0  502 -0.88041647930E+01 -0.12618805538E+02  0.27824560751E+02  0.32069084052E+02  0.41800000000E+01 0. -1.
        -11    1    1    2    0    0  0.24286839603E+02 -0.37617544231E+02  0.15135239525E+01  0.44802019671E+02  0.00000000000E+00 0. -1.
         11    1    1    2    0    0  0.11936280070E+03  0.36111368915E+02 -0.16307364181E+02  0.12576740151E+03  0.00000000000E+00 0.  1.
</event>
<event>
 6    1  0.4988969E-006  0.9723931E+02  0.7561462E-02  0.1286211E+00
          2   -1    0    0  501    0  0.00000000000E+00  0.00000000000E+00  0.21366219628E+03  0.21366219628E+03  0.00000000000E+00 0.  1.
         -2   -1    0    0    0  501 -0.00000000000E+00 -0.00000000000E+00 -0.60575438601E+02  0.60575438601E+02  0.00000000000E+00 0. -1.
          5    1    1    2  502    0  0.48336109380E+02 -0.25102387805E+02  0.13655759302E+02  0.56306851320E+02  0.41800000000E+01 0.  1.
         -5    1    1    2    0  502 -0.45348395163E+02  0.56211910312E+02  0.46252412114E+02  0.85866255486E+02  0.41800000000E+01 0.  1.
        -11    1    1    2    0    0  0.27718177026E+02 -0.73293889098E+01  0.88401239713E+02  0.92934366422E+02  0.00000000000E+00 0.  1.
         11    1    1    2    0    0 -0.30705891243E+02 -0.23780133597E+02  0.47773465493E+01  0.39130161652E+02  0.00000000000E+00 0. -1.
</event>
<event>
 6    1  0.4988969E-006  0.8649266E+02  0.7561462E-02  0.1311575E+00
          1   -1    0    0  501    0  0.00000000000E+00  0.00000000000E+00  0.45400987334E+02  0.45400987334E+02  0.00000000000E+00 0. -1.
         -1   -1    0    0    0  501 -0.00000000000E+00 -0.00000000000E+00 -0.27853289123E+03  0.27853289123E+03  0.00000000000E+00 0.  1.
          5    1    1    2  502    0 -0.52028385946E+02 -0.26328860969E+02 -0.15355323991E+03  0.16430530043E+03  0.41800000000E+01 0. -1.
         -5    1    1    2    0  502  0.32995473179E+02  0.13713660300E+02 -0.12118385383E+01  0.35995925905E+02  0.41800000000E+01 0. -1.
        -11    1    1    2    0    0 -0.14744983913E+02  0.35032704490E+02 -0.30913623056E+01  0.38134780128E+02  0.00000000000E+00 0. -1.
         11    1    1    2    0    0  0.33777896680E+02 -0.22417503821E+02 -0.75275463142E+02  0.85497872096E+02  0.00000000000E+00 0.  1.
</event>
<event>
 6    1  0.4988969E-006  0.1397146E+03  0.7561462E-02  0.1213713E+00
          2   -1    0    0  501    0  0.00000000000E+00  0.00000000000E+00  0.29756459060E+03  0.29756459060E+03  0.00000000000E+00 0. -1.
         -2   -1    0    0    0  501 -0.00000000000E+00 -0.00000000000E+00 -0.10429349511E+03  0.10429349511E+03  0.00000000000E+00 0.  1.
          5    1    1    2  502    0 -0.50608056021E+02  0.19327562722E+02  0.58355913865E+02  0.79734654311E+02  0.41800000000E+01 0. -1.
         -5    1    1    2    0  502 -0.62614280710E+01 -0.52815168189E+02 -0.34727078064E+02  0.63656027391E+02  0.41800000000E+01 0. -1.
        -11    1    1    2    0    0 -0.49537783639E+02 -0.19051297206E+02  0.20505606195E+01  0.53114487025E+02  0.00000000000E+00 0.  1.
         11    1    1    2    0    0  0.10640726773E+03  0.52538902673E+02  0.16759169907E+03  0.20535291699E+03  0.00000000000E+00 0. -1.
</event>
<event>
 6    1  0.4988969E-006  0.9255454E+02  0.7561462E-02  0.1296781E+00
          2   -1    0    0  501    0  0.00000000000E+00  0.00000000000E+00  0.59735859928E+02  0.59735859928E+02  0.00000000000E+00 0. -1.
         -2   -1    0    0    0  501 -0.00000000000E+00 -0.00000000000E+00 -0.21916831434E+03  0.21916831434E+03  0.00000000000E+00 0.  1.
          5    1    1    2  502    0 -0.50834303028E+01  0.37860796483E+02 -0.98463501877E+02  0.10569680589E+03  0.41800000000E+01 0.  1.
         -5    1    1    2    0  502  0.42113946994E+02 -0.41455464034E+02 -0.24704366378E+01  0.59293469175E+02  0.41800000000E+01 0.  1.
        -11    1    1    2    0    0 -0.42766183202E+02 -0.30714729912E+02 -0.90028171312E+01  0.53417148702E+02  0.00000000000E+00 0. -1.
         11    1    1    2    0    0  0.57356665104E+01  0.34309397463E+02 -0.49495698769E+02  0.60496750501E+02  0.00000000000E+00 0.  1.
</event>
<event>
 6    1  0.4988969E-006  0.9235793E+02  0.7561462E-02  0.1297240E+00
          2   -1    0    0  501    0  0.00000000000E+00  0.00000000000E+00  0.21906771654E+03  0.21906771654E+03  0.00000000000E+00 0. -1.
         -2   -1    0    0    0  501 -0.00000000000E+00 -0.00000000000E+00 -0.57681863082E+02  0.57681863082E+02  0.00000000000E+00 0.  1.
          5    1    1    2  502    0 -0.31663334446E+02 -0.38538880239E+02  0.45729405964E+02  0.67797219767E+02  0.41800000000E+01 0.  1.
         -5    1    1    2    0  502  0.41345881615E+02  0.61931190463E+02  0.28507150471E+02  0.79844125060E+02  0.41800000000E+01 0.  1.
        -11    1    1    2    0    0  0.18361358057E+02 -0.26095036442E+02  0.94707665620E+02  0.99938142487E+02  0.00000000000E+00 0. -1.
         11    1    1    2    0    0 -0.28043905225E+02  0.27027262185E+01 -0.75583685988E+01  0.29170092307E+02  0.00000000000E+00 0.  1.
</event>
<event>
 6    1  0.4988969E-006  0.1915399E+03  0.7561462E-02  0.1157080E+00
          2   -1    0    0  501    0  0.00000000000E+00  0.00000000000E+00  0.14383870197E+03  0.14383870197E+03  0.00000000000E+00 0.  1.
         -2   -1    0    0    0  501 -0.00000000000E+00 -0.00000000000E+00 -0.32894737072E+03  0.32894737072E+03  0.00000000000E+00 0. -1.
          5    1    1    2  502    0 -0.42468704310E+01  0.51974894203E+02 -0.29610356671E+02  0.60113818361E+02  0.41800000000E+01 0. -1.
         -5    1    1    2    0  502  0.15142825248E+03  0.27939654817E+02 -0.16013077871E+03  0.22219468636E+03  0.41800000000E+01 0. -1.
        -11    1    1    2    0    0 -0.13879561773E+03 -0.53063165395E+02  0.31145246877E+02  0.15182209795E+03  0.00000000000E+00 0.  1.
         11    1    1    2    0    0 -0.83857643219E+01 -0.26851383624E+02 -0.26512780247E+02  0.38655470017E+02  0.00000000000E+00 0. -1.
</event>
<event>
 6    1  0.4988969E-006  0.1093289E+03  0.7561462E-02  0.1261818E+00
         -2   -1    0    0    0  501 -0.00000000000E+00  0.00000000000E+00  0.18250358796E+03  0.18250358796E+03  0.00000000000E+00 0.  1.
          2   -1    0    0  501    0  0.00000000000E+00 -0.00000000000E+00 -0.90535191009E+02  0.90535191009E+02  0.00000000000E+00 0. -1.
          5    1    1    2  502    0  0.85650169543E+01  0.82699273470E+02  0.41123809426E+02  0.92850252825E+02  0.41800000000E+01 0. -1.
         -5    1    1    2    0  502  0.60267539316E+01 -0.35164072253E+02  0.67672561944E+02  0.76615153726E+02  0.41800000000E+01 0.  1.
        -11    1    1    2    0    0  0.34075308422E+02 -0.35808144024E+02 -0.20203313828E+02  0.53399660225E+02  0.00000000000E+00 0. -1.
         11    1    1    2    0    0 -0.48667079308E+02 -0.11727057193E+02  0.33753394061E+01  0.50173712189E+02  0.00000000000E+00 0.  1.
</event>
<event>
 6    1  0.4988969E-006  0.1024581E+03  0.7561462E-02  0.1275210E+00
         -1   -1    0    0    0  501 -0.00000000000E+00  0.00000000000E+00  0.89193987524E+02  0.89193987524E+02  0.00000000000E+00 0.  1.
          1   -1    0    0  501    0  0.00000000000E+00 -0.00000000000E+00 -0.19632779693E+03  0.19632779693E+03  0.00000000000E+00 0. -1.
          5    1    1    2  502    0  0.23167741212E+02  0.33569012276E+02  0.32385309435E+02  0.52248478306E+02  0.41800000000E+01 0. -1.
         -5    1    1    2    0  502  0.17968457529E+02 -0.75977310368E+02 -0.36173753203E+02  0.86147721836E+02  0.41800000000E+01 0. -1.
        -11    1    1    2    0    0  0.15006841651E+02  0.20630201088E+02  0.22040437343E+01  0.25606020817E+02  0.00000000000E+00 0.  1.
         11    1    1    2    0    0 -0.56143040391E+02  0.21778097004E+02 -0.10554940938E+03  0.12151956350E+03  0.00000000000E+00 0. -1.
</event>
<event>
 6    1  0.5023484E-006  0.1472307E+03  0.7561462E-02  0.1203918E+00
         -1   -1    0    0    0  501 -0.00000000000E+00  0.00000000000E+00  0.47952996330E+02  0.47952996330E+02  0.00000000000E+00 0.  1.
          1   -1    0    0  501    0  0.00000000000E+00 -0.00000000000E+00 -0.60719281997E+03  0.60719281997E+03  0.00000000000E+00 0. -1.
          5    1    1    2  502    0 -0.56649266377E+02  0.20988857118E+02 -0.17402015091E+03  0.18425568330E+03  0.41800000000E+01 0.  1.
         -5    1    1    2    0  502  0.43263770759E+01  0.96500789301E+02 -0.73523083187E+02  0.12146701625E+03  0.41800000000E+01 0.  1.
        -11    1    1    2    0    0  0.60204839667E+02 -0.87523298139E+02 -0.29641149939E+03  0.31487255740E+03  0.00000000000E+00 0. -1.
         11    1    1    2    0    0 -0.78819503664E+01 -0.29966348280E+02 -0.15285090159E+02  0.34550559358E+02  0.00000000000E+00 0.  1.
</event>
<event>
 6    1  0.4988969E-006  0.8056974E+02  0.7561462E-02  0.1327442E+00
          2   -1    0    0  501    0  0.00000000000E+00  0.00000000000E+00  0.33893060785E+03  0.33893060785E+03  0.00000000000E+00 0. -1.
         -2   -1    0    0    0  501 -0.00000000000E+00 -0.00000000000E+00 -0.40456201799E+02  0.40456201799E+02  0.00000000000E+00 0.  1.
          5    1    1    2  502    0  0.56610416479E+02  0.19942160049E+02  0.16919476373E+03  0.17957385521E+03  0.41800000000E+01 0. -1.
         -5    1    1    2    0  502 -0.13446653645E+02 -0.18031196109E+02 -0.12064552260E+02  0.25864306459E+02  0.41800000000E+01 0. -1.
        -11    1    1    2    0    0  0.17427778548E+02 -0.16266321893E+01 -0.26707826136E+01  0.17706114118E+02  0.00000000000E+00 0.  1.
         11    1    1    2    0    0 -0.60591541382E+02 -0.28433175059E+00  0.14401497720E+03  0.15624253387E+03  0.00000000000E+00 0. -1.
</event>
<event>
 6    1  0.4988969E-006  0.9678024E+02  0.7561462E-02  0.1287216E+00
          2   -1    0    0  501    0  0.00000000000E+00  0.00000000000E+00  0.21377389281E+03  0.21377389281E+03  0.00000000000E+00 0. -1.
         -2   -1    0    0    0  501 -0.00000000000E+00 -0.00000000000E+00 -0.73362568399E+02  0.73362568399E+02  0.00000000000E+00 0.  1.
          5    1    1    2  502    0  0.47097307525E+02  0.21261396686E+02  0.29772093764E+02  0.59783386758E+02  0.41800000000E+01 0.  1.
         -5    1    1    2    0  502 -0.65881940389E+02 -0.54774640718E+01 -0.16821862124E+02  0.68343837524E+02  0.41800000000E+01 0.  1.
        -11    1    1    2    0    0  0.45935891539E+02 -0.14967618857E+02  0.12211472755E+03  0.13132456902E+03  0.00000000000E+00 0. -1.
         11    1    1    2    0    0 -0.27151258675E+02 -0.81631375738E+00  0.53463652235E+01  0.27684667902E+02  0.00000000000E+00 0.  1.
</event>
<event>
 6    1  0.4988969E-006  0.1943152E+03  0.7561462E-02  0.1154626E+00
         -2   -1    0    0    0  501 -0.00000000000E+00  0.00000000000E+00  0.58532698386E+03  0.58532698386E+03  0.00000000000E+00 0.  1.
          2   -1    0    0  501    0  0.00000000000E+00 -0.00000000000E+00 -0.76493278784E+02  0.76493278784E+02  0.00000000000E+00 0. -1.
          5    1    1    2  502    0  0.68775603305E+02 -0.10034759913E+03  0.23634550632E+03  0.26585032446E+03  0.41800000000E+01 0.  1.
         -5    1    1    2    0  502  0.79913783431E+02  0.29055420120E+02  0.15312128941E+03  0.17519712296E+03  0.41800000000E+01 0.  1.
        -11    1    1    2    0    0 -0.11548000641E+03  0.15052308124E+02  0.53997518847E+02  0.12836641267E+03  0.00000000000E+00 0. -1.
         11    1    1    2    0    0 -0.33209380325E+02  0.56239870883E+02  0.65369390501E+02  0.92406402554E+02  0.00000000000E+00 0.  1.
</event>
<event>
 6    1  0.4988969E-006  0.1098808E+03  0.7561462E-02  0.1260791E+00
          1   -1    0    0  501    0  0.00000000000E+00  0.00000000000E+00  0.98536635301E+03  0.98536635301E+03  0.00000000000E+00 0. -1.
         -1   -1    0    0    0  501 -0.00000000000E+00 -0.00000000000E+00 -0.17016664425E+02  0.17016664425E+02  0.00000000000E+00 0.  1.
          5    1    1    2  502    0 -0.27113665077E+02  0.47365183690E+02  0.49299534798E+03  0.49602469393E+03  0.41800000000E+01 0.  1.
         -5    1    1    2    0  502 -0.39938497501E+02 -0.30483808674E+02  0.80269480768E+02  0.94789282710E+02  0.41800000000E+01 0.  1.
        -11    1    1    2    0    0 -0.12179884777E+02 -0.31738845424E+02  0.97402383559E+02  0.10316456865E+03  0.00000000000E+00 0. -1.
         11    1    1    2    0    0  0.79232047354E+02  0.14857470407E+02  0.29768247628E+03  0.30840447215E+03  0.00000000000E+00 0.  1.
</event>
<event>
 6    1  0.4988969E-006  0.1171407E+03  0.7561462E-02  0.1247890E+00
         -3   -1    0    0    0  501 -0.00000000000E+00  0.00000000000E+00  0.26914657677E+03  0.26914657677E+03  0.00000000000E+00 0.  1.
          3   -1    0    0  501    0  0.00000000000E+00 -0.00000000000E+00 -0.67470106995E+02  0.67470106995E+02  0.00000000000E+00 0. -1.
          5    1    1    2  502    0 -0.29638869618E+01  0.58957471103E+02  0.10032687627E+03  0.11648056717E+03  0.41800000000E+01 0. -1.
         -5    1    1    2    0  502 -0.44592560658E+02 -0.58111850662E+02  0.88396392797E+02  0.11487766673E+03  0.41800000000E+01 0. -1.
        -11    1    1    2    0    0 -0.92597530394E+00  0.38979702916E+02  0.16672992919E+02  0.42405935464E+02  0.00000000000E+00 0.  1.
         11    1    1    2    0    0  0.48482422923E+02 -0.39825323357E+02 -0.37197922144E+01  0.62852514406E+02  0.00000000000E+00 0. -1.
</event>
<event>
 6    1  0.4988969E-006  0.1099433E+03  0.7561462E-02  0.1260675E+00
          1   -1    0    0  501    0  0.00000000000E+00  0.00000000000E+00  0.33135869058E+03  0.33135869058E+03  0.00000000000E+00 0. -1.
         -1   -1    0    0    0  501 -0.00000000000E+00 -0.00000000000E+00 -0.43948132551E+02  0.43948132551E+02  0.00000000000E+00 0.  1.
          5    1    1    2  502    0 -0.15888702483E+02 -0.65721910777E+02  0.43154047998E+02  0.80321632711E+02  0.41800000000E+01 0.  1.
         -5    1    1    2    0  502 -0.28035935557E+02  0.55408580073E+02  0.75988019734E+02  0.98223092862E+02  0.41800000000E+01 0.  1.
        -11    1    1    2    0    0  0.47092438875E+01  0.40277099860E+02  0.31459983841E+02  0.51323993749E+02  0.00000000000E+00 0.  1.
         11    1    1    2    0    0  0.39215394153E+02 -0.29963769157E+02  0.13680850646E+03  0.14543810381E+03  0.00000000000E+00 0. -1.
</event>
<event>
 6    1  0.4988969E-006  0.9578169E+02  0.7561462E-02  0.1289425E+00
         -1   -1    0    0    0  501 -0.00000000000E+00  0.00000000000E+00  0.12384068812E+03  0.12384068812E+03  0.00000000000E+00 0.  1.
          1   -1    0    0  501    0  0.00000000000E+00 -0.00000000000E+00 -0.13705847205E+03  0.13705847205E+03  0.00000000000E+00 0. -1.
          5    1    1    2  502    0 -0.56068062912E+02 -0.27641285228E+02  0.66903985690E+02  0.91658518584E+02  0.41800000000E+01 0. -1.
         -5    1    1    2    0  502  0.29130198718E+02 -0.25703928495E+02 -0.32901924427E+02  0.51081008687E+02  0.41800000000E+01 0. -1.
        -11    1    1    2    0    0  0.20996099161E+02  0.69512619990E+02 -0.52630785497E+01  0.72804811061E+02  0.00000000000E+00 0. -1.
         11    1    1    2    0    0  0.59417650322E+01 -0.16167406267E+02 -0.41956766645E+02  0.45354821843E+02  0.00000000000E+00 0.  1.
</event>
<event>
 6    1  0.4988969E-006  0.1157252E+03  0.7561462E-02  0.1250320E+00
         -3   -1    0    0    0  501 -0.00000000000E+00  0.00000000000E+00  0.10546005595E+03  0.10546005595E+03  0.00000000000E+00 0.  1.
          3   -1    0    0  501    0  0.00000000000E+00 -0.00000000000E+00 -0.20613745323E+03  0.20613745323E+03  0.00000000000E+00 0. -1.
          5    1    1    2  502    0 -0.59461654138E+01  0.92281397235E+02 -0.63798645006E+02  0.11242309666E+03  0.41800000000E+01 0.  1.
         -5    1    1    2    0  502 -0.78146738404E+01  0.71744186482E+00  0.44374741192E+02  0.45256755362E+02  0.41800000000E+01 0.  1.
        -11    1    1    2    0    0  0.42859355426E+02 -0.12880521346E+02 -0.20386239700E+02  0.49177545147E+02  0.00000000000E+00 0.  1.
         11    1    1    2    0    0 -0.29098516171E+02 -0.80118317754E+02 -0.60867253760E+02  0.10474011201E+03  0.00000000000E+00 0. -1.
</event>
<event>
 6    1  0.4988969E-006  0.1289431E+03  0.7561462E-02  0.1229032E+00
         -2   -1    0    0    0  501 -0.00000000000E+00  0.00000000000E+00  0.69081399834E+02  0.69081399834E+02  0.00000000000E+00 0.  1.
          2   -1    0    0  501    0  0.00000000000E+00 -0.00000000000E+00 -0.49050876520E+03  0.49050876520E+03  0.00000000000E+00 0. -1.
          5    1    1    2  502    0  0.19433924389E+02 -0.92812854636E+02 -0.13665855087E+03  0.16638790619E+03  0.41800000000E+01 0. -1.
         -5    1    1    2    0  502  0.23578124702E+02 -0.26159584834E+02  0.25243174802E+02  0.43530932878E+02  0.41800000000E+01 0. -1.
        -11    1    1    2    0    0 -0.12126403478E+02  0.56832623468E+02 -0.39168558280E+02  0.70079759626E+02  0.00000000000E+00 0. -1.
         11    1    1    2    0    0 -0.30885645613E+02  0.62139816002E+02 -0.27084343102E+03  0.27959156633E+03  0.00000000000E+00 0.  1.
</event>
<event>
 6    1  0.4988969E-006  0.1154195E+03  0.7561462E-02  0.1250851E+00
          1   -1    0    0  501    0  0.00000000000E+00  0.00000000000E+00  0.17939205906E+03  0.17939205906E+03  0.00000000000E+00 0. -1.
         -1   -1    0    0    0  501 -0.00000000000E+00 -0.00000000000E+00 -0.95252943609E+02  0.95252943609E+02  0.00000000000E+00 0.  1.
          5    1    1    2  502    0 -0.33605476251E+02  0.94630913478E+02  0.16076702895E+02  0.10178541445E+03  0.41800000000E+01 0. -1.
         -5    1    1    2    0  502  0.29111869609E+02 -0.22106884614E+02  0.37350288938E+02  0.52428349041E+02  0.41800000000E+01 0. -1.
        -11    1    1    2    0    0  0.25949184122E+02 -0.66302113783E+02  0.53088104681E+02  0.88812596558E+02  0.00000000000E+00 0. -1.
         11    1    1    2    0    0 -0.21455577480E+02 -0.62219150803E+01 -0.22375981063E+02  0.31618642615E+02  0.00000000000E+00 0.  1.
</event>
<event>
 6    1  0.4988969E-006  0.1981283E+03  0.7561462E-02  0.1151328E+00
          2   -1    0    0  501    0  0.00000000000E+00  0.00000000000E+00  0.56523290406E+03  0.56523290406E+03  0.00000000000E+00 0.  1.
         -2   -1    0    0    0  501 -0.00000000000E+00 -0.00000000000E+00 -0.71722338876E+02  0.71722338876E+02  0.00000000000E+00 0. -1.
          5    1    1    2  502    0 -0.31158362704E+02  0.10195956321E+03  0.13115891516E+03  0.16907610571E+03  0.41800000000E+01 0.  1.
         -5    1    1    2    0  502  0.81542690963E+02  0.56887603954E+02  0.81306689779E+02  0.12850548679E+03  0.41800000000E+01 0.  1.
        -11    1    1    2    0    0  0.22613318281E+02 -0.77582116234E+02  0.12693598926E+03  0.15047621837E+03  0.00000000000E+00 0.  1.
         11    1    1    2    0    0 -0.72997646540E+02 -0.81265050933E+02  0.15410897098E+03  0.18889743206E+03  0.00000000000E+00 0. -1.
</event>
<event>
 6    1  0.4988969E-006  0.1379426E+03  0.7561462E-02  0.1216124E+00
          1   -1    0    0  501    0  0.00000000000E+00  0.00000000000E+00  0.50818959885E+02  0.50818959885E+02  0.00000000000E+00 0. -1.
         -1   -1    0    0    0  501 -0.00000000000E+00 -0.00000000000E+00 -0.48725213954E+03  0.48725213954E+03  0.00000000000E+00 0.  1.
          5    1    1    2  502    0  0.88622117928E+02  0.69866957424E+02 -0.11975332748E+03  0.16460134680E+03  0.41800000000E+01 0. -1.
         -5    1    1    2    0  502  0.20708159989E+02 -0.42671282946E+02 -0.11344291294E+03  0.12303021245E+03  0.41800000000E+01 0. -1.
        -11    1    1    2    0    0 -0.28050707328E+02  0.38948657950E+01 -0.14007937419E+03  0.14291341167E+03  0.00000000000E+00 0.  1.
         11    1    1    2    0    0 -0.81279570589E+02 -0.31090540273E+02 -0.63157565042E+02  0.10752612851E+03  0.00000000000E+00 0. -1.
</event>
<event>
 6    1  0.4988969E-006  0.1418334E+03  0.7561462E-02  0.1210883E+00
          1   -1    0    0  501    0  0.00000000000E+00  0.00000000000E+00  0.48537388294E+02  0.48537388294E+02  0.00000000000E+00 0. -1.
         -1   -1    0    0    0  501 -0.00000000000E+00 -0.00000000000E+00 -0.58203808123E+03  0.58203808123E+03  0.00000000000E+00 0.  1.
          5    1    1    2  502    0  0.30717146840E+02  0.10969670760E+03 -0.13074754305E+03  0.17346268527E+03  0.41800000000E+01 0. -1.
         -5    1    1    2    0  502  0.33354867686E+02 -0.43411656546E+01 -0.18293935427E+03  0.18605287597E+03  0.41800000000E+01 0. -1.
        -11    1    1    2    0    0 -0.67858786075E+02 -0.60950463810E+02 -0.70630830843E+02  0.11536242088E+03  0.00000000000E+00 0. -1.
         11    1    1    2    0    0  0.37867715493E+01 -0.44405078133E+02 -0.14918296478E+03  0.15569748741E+03  0.00000000000E+00 0.  1.
</event>
<event>
 6    1  0.4988969E-006  0.1167145E+03  0.7561462E-02  0.1248618E+00
          2   -1    0    0  501    0  0.00000000000E+00  0.00000000000E+00  0.61680333337E+02  0.61680333337E+02  0.00000000000E+00 0.  1.
         -2   -1    0    0    0  501 -0.00000000000E+00 -0.00000000000E+00 -0.25288488269E+03  0.25288488269E+03  0.00000000000E+00 0. -1.
          5    1    1    2  502    0  0.65032552143E+02 -0.38758773572E+02 -0.45933897888E+02  0.88650272093E+02  0.41800000000E+01 0. -1.
         -5    1    1    2    0  502 -0.48736783882E+02 -0.13459070689E+02 -0.94216540412E+02  0.10700770801E+03  0.41800000000E+01 0. -1.
        -11    1    1    2    0    0  0.28169188281E+02  0.55549968144E+02 -0.35451151511E+02  0.71666493375E+02  0.00000000000E+00 0. -1.
         11    1    1    2    0    0 -0.44464956542E+02 -0.33321238840E+01 -0.15602959544E+02  0.47240742547E+02  0.00000000000E+00 0.  1.
</event>
<event>
 6    1  0.4988969E-006  0.1021290E+03  0.7561462E-02  0.1275882E+00
         -1   -1    0    0    0  501 -0.00000000000E+00  0.00000000000E+00  0.46326118336E+02  0.46326118336E+02  0.00000000000E+00 0.  1.
          1   -1    0    0  501    0  0.00000000000E+00 -0.00000000000E+00 -0.44549324747E+03  0.44549324747E+03  0.00000000000E+00 0. -1.
          5    1    1    2  502    0 -0.27947991116E+01  0.16242441405E+02  0.23134562699E+02  0.28710767947E+02  0.41800000000E+01 0.  1.
         -5    1    1    2    0  502 -0.62974428486E+02 -0.37771252880E+02 -0.13152184966E+03  0.15069145803E+03  0.41800000000E+01 0.  1.
        -11    1    1    2    0    0  0.62602745053E+02  0.53029141170E+02 -0.22282870809E+03  0.23745278825E+03  0.00000000000E+00 0. -1.
         11    1    1    2    0    0  0.31664825448E+01 -0.31500329695E+02 -0.67951134088E+02  0.74964351571E+02  0.00000000000E+00 0.  1.
</event>
<event>
 6    1  0.4988969E-006  0.9324311E+02  0.7561462E-02  0.1295183E+00
          4   -1    0    0  501    0  0.00000000000E+00  0.00000000000E+00  0.23258697136E+02  0.23258697136E+02  0.00000000000E+00 0. -1.
         -4   -1    0    0    0  501 -0.00000000000E+00 -0.00000000000E+00 -0.63298907477E+03  0.63298907477E+03  0.00000000000E+00 0.  1.
          5    1    1    2  502    0  0.13301993718E+02  0.40368421893E+02 -0.20429671880E+03  0.20871313862E+03  0.41800000000E+01 0.  1.
         -5    1    1    2    0  502  0.97158471329E+01 -0.84451934869E+02 -0.19838104578E+03  0.21586810490E+03  0.41800000000E+01 0.  1.
        -11    1    1    2    0    0 -0.11441211429E+02  0.45579049436E+02 -0.21330808730E+03  0.21842319285E+03  0.00000000000E+00 0.  1.
         11    1    1    2    0    0 -0.11576629421E+02 -0.14955364609E+01  0.62554742428E+01  0.13243335534E+02  0.00000000000E+00 0. -1.
</event>
<event>
 6    1  0.4988969E-006  0.1013764E+03  0.7561462E-02  0.1277428E+00
         -2   -1    0    0    0  501 -0.00000000000E+00  0.00000000000E+00  0.26957992763E+02  0.26957992763E+02  0.00000000000E+00 0.  1.
          2   -1    0    0  501    0  0.00000000000E+00 -0.00000000000E+00 -0.52507166851E+03  0.52507166851E+03  0.00000000000E+00 0. -1.
          5    1    1    2  502    0  0.60636032215E+02 -0.59352425686E+02 -0.18587763619E+03  0.20437075836E+03  0.41800000000E+01 0. -1.
         -5    1    1    2    0  502 -0.48202870273E+02  0.10800874427E+02 -0.94963642283E+02  0.10712488668E+03  0.41800000000E+01 0. -1.
        -11    1    1    2    0    0 -0.94756845830E+00  0.55030550366E+02 -0.22024354505E+03  0.22701647186E+03  0.00000000000E+00 0. -1.
         11    1    1    2    0    0 -0.11485593484E+02 -0.64789991066E+01  0.29711477629E+01  0.13517544382E+02  0.00000000000E+00 0.  1.
</event>
<event>
 6    1  0.4988969E-006  0.1277389E+03  0.7561462E-02  0.1230850E+00
          1   -1    0    0  501    0  0.00000000000E+00  0.00000000000E+00  0.29921823294E+03  0.29921823294E+03  0.00000000000E+00 0. -1.
         -1   -1    0    0    0  501 -0.00000000000E+00 -0.00000000000E+00 -0.75383764074E+02  0.75383764074E+02  0.00000000000E+00 0.  1.
          5    1    1    2  502    0 -0.87711765259E+00 -0.41646278875E+02 -0.75871546032E+01  0.42546670780E+02  0.41800000000E+01 0. -1.
         -5    1    1    2    0  502  0.83826913423E+02 -0.10342853831E+02  0.14322246412E+03  0.16632520154E+03  0.41800000000E+01 0. -1.
        -11    1    1    2    0    0 -0.49265829141E+02 -0.17128624639E+02  0.49290985479E+01  0.52390912528E+02  0.00000000000E+00 0.  1.
         11    1    1    2    0    0 -0.33683966629E+02  0.69117757345E+02  0.83270060805E+02  0.11333921217E+03  0.00000000000E+00 0. -1.
</event>
<event>
 6    1  0.4988969E-006  0.1357778E+03  0.7561462E-02  0.1219126E+00
          1   -1    0    0  501    0  0.00000000000E+00  0.00000000000E+00  0.22331985736E+03  0.22331985736E+03  0.00000000000E+00 0. -1.
         -1   -1    0    0    0  501 -0.00000000000E+00 -0.00000000000E+00 -0.12186651899E+03  0.12186651899E+03  0.00000000000E+00 0.  1.
          5    1    1    2  502    0  0.23813833106E+02 -0.18864001086E+02  0.28849307899E+01  0.30801694918E+02  0.41800000000E+01 0. -1.
         -5    1    1    2    0  502 -0.13062309795E+03  0.27255135274E+02 -0.15059254039E+02  0.13434838909E+03  0.41800000000E+01 0. -1.
        -11    1    1    2    0    0  0.91478641496E+02 -0.97505540476E+01  0.12889454044E+03  0.15835787858E+03  0.00000000000E+00 0. -1.
         11    1    1    2    0    0  0.15330623351E+02  0.13594198598E+01 -0.15266878816E+02  0.21678413768E+02  0.00000000000E+00 0.  1.
</event>
<event>
 6    1  0.4988969E-006  0.1057874E+03  0.7561462E-02  0.1268576E+00
         -2   -1    0    0    0  501 -0.00000000000E+00  0.00000000000E+00  0.38195906194E+03  0.38195906194E+03  0.00000000000E+00 0. -1.
          2   -1    0    0  501    0  0.00000000000E+00 -0.00000000000E+00 -0.31005934939E+02  0.31005934939E+02  0.00000000000E+00 0.  1.
          5    1    1    2  502    0 -0.40424958528E+02 -0.47537850300E+02  0.13195471765E+03  0.14602583468E+03  0.41800000000E+01 0. -1.
         -5    1    1    2    0  502  0.31376529585E+02  0.47889064480E+02  0.58058513781E+02  0.81646264630E+02  0.41800000000E+01 0. -1.
        -11    1    1    2    0    0 -0.22947825933E+02  0.36318833969E+02  0.69427276196E+02  0.81644394148E+02  0.00000000000E+00 0.  1.
         11    1    1    2    0    0  0.31996254875E+02 -0.36670048148E+02  0.91512619369E+02  0.10364850342E+03  0.00000000000E+00 0. -1.
</event>
<event>
 6    1  0.4988969E-006  0.9515176E+02  0.7561462E-02  0.1290835E+00
         -2   -1    0    0    0  501 -0.00000000000E+00  0.00000000000E+00  0.12009493321E+03  0.12009493321E+03  0.00000000000E+00 0.  1.
          2   -1    0    0  501    0  0.00000000000E+00 -0.00000000000E+00 -0.12325378720E+03  0.12325378720E+03  0.00000000000E+00 0. -1.
          5    1    1    2  502    0  0.12461085343E+02 -0.49174429744E+02  0.43521423882E+02  0.66970067383E+02  0.41800000000E+01 0. -1.
         -5    1    1    2    0  502 -0.48639542507E+02  0.16155953344E+02 -0.43529294991E+02  0.67372782681E+02  0.41800000000E+01 0. -1.
        -11    1    1    2    0    0  0.18909633384E+02 -0.22759593812E+02 -0.32248862797E+02  0.43767139465E+02  0.00000000000E+00 0. -1.
         11    1    1    2    0    0  0.17268823780E+02  0.55778070211E+02  0.29097879919E+02  0.65238730881E+02  0.00000000000E+00 0.  1.
</event>
<event>
 6    1  0.4988969E-006  0.1029078E+03  0.7561462E-02  0.1274297E+00
          2   -1    0    0  501    0  0.00000000000E+00  0.00000000000E+00  0.27177034896E+03  0.27177034896E+03  0.00000000000E+00 0. -1.
         -2   -1    0    0    0  501 -0.00000000000E+00 -0.00000000000E+00 -0.87698576112E+02  0.87698576112E+02  0.00000000000E+00 0.  1.
          5    1    1    2  502    0 -0.29307148628E+02 -0.56913144735E+02  0.51318447671E+02  0.82152726526E+02  0.41800000000E+01 0. -1.
         -5    1    1    2    0  502 -0.14290031505E+02 -0.13609403676E+02 -0.52168133896E+02  0.55932168409E+02  0.41800000000E+01 0.  1.
        -11    1    1    2    0    0 -0.27266706285E+02  0.12934975094E+02  0.40294269202E+02  0.50342973520E+02  0.00000000000E+00 0.  1.
         11    1    1    2    0    0  0.70863886418E+02  0.57587573317E+02  0.14462718987E+03  0.17104105662E+03  0.00000000000E+00 0. -1.
</event>
<event>
 6    1  0.4988969E-006  0.1187487E+03  0.7561462E-02  0.1245176E+00
          1   -1    0    0  501    0  0.00000000000E+00  0.00000000000E+00  0.15104011566E+03  0.15104011566E+03  0.00000000000E+00 0. -1.
         -1   -1    0    0    0  501 -0.00000000000E+00 -0.00000000000E+00 -0.11184807549E+03  0.11184807549E+03  0.00000000000E+00 0.  1.
          5    1    1    2  502    0  0.36074279743E+02 -0.28846393158E+02  0.34050418927E+02  0.57535827849E+02  0.41800000000E+01 0. -1.
         -5    1    1    2    0  502  0.11775674745E+02  0.76647233462E+02 -0.33736797083E+02  0.84670589880E+02  0.41800000000E+01 0. -1.
        -11    1    1    2    0    0  0.10938044986E+02  0.20565710494E+02  0.24042556173E+01  0.23417295346E+02  0.00000000000E+00 0.  1.
         11    1    1    2    0    0 -0.58787999474E+02 -0.68366550798E+02  0.36474162710E+02  0.97264478077E+02  0.00000000000E+00 0. -1.
</event>
<event>
 6    1  0.4988969E-006  0.2310702E+03  0.7561462E-02  0.1125889E+00
          1   -1    0    0  501    0  0.00000000000E+00  0.00000000000E+00  0.37143991626E+03  0.37143991626E+03  0.00000000000E+00 0. -1.
         -1   -1    0    0    0  501 -0.00000000000E+00 -0.00000000000E+00 -0.17109844038E+03  0.17109844038E+03  0.00000000000E+00 0.  1.
          5    1    1    2  502    0 -0.16078901768E+02  0.10926541040E+01  0.82215263201E+01  0.18568545179E+02  0.41800000000E+01 0.  1.
         -5    1    1    2    0  502  0.22819312091E+03  0.30661006473E+02  0.13717367091E+02  0.23068991376E+03  0.41800000000E+01 0.  1.
        -11    1    1    2    0    0 -0.18679782106E+03 -0.33719192668E+02  0.10789355526E+03  0.21833787847E+03  0.00000000000E+00 0.  1.
         11    1    1    2    0    0 -0.25316398082E+02  0.19655320917E+01  0.70509027213E+02  0.74942019234E+02  0.00000000000E+00 0. -1.
</event>
<event>
 6    1  0.4988969E-006  0.4803144E+02  0.7561462E-02  0.1456258E+00
          2   -1    0    0  501    0  0.00000000000E+00  0.00000000000E+00  0.81899754484E+02  0.81899754484E+02  0.00000000000E+00 0. -1.
         -2   -1    0    0    0  501 -0.00000000000E+00 -0.00000000000E+00 -0.14976650017E+03  0.14976650017E+03  0.00000000000E+00 0.  1.
          5    1    1    2  502    0  0.15063492516E+02 -0.66671690265E+01  0.37504207052E+02  0.41175209729E+02  0.41800000000E+01 0. -1.
         -5    1    1    2    0  502  0.13739473921E+02 -0.12332609790E+02 -0.10199649315E+03  0.10373824475E+03  0.41800000000E+01 0. -1.
        -11    1    1    2    0    0  0.72248764934E+01  0.22793310449E+02  0.29403127500E+02  0.37898255215E+02  0.00000000000E+00 0. -1.
         11    1    1    2    0    0 -0.36027842930E+02 -0.37935316326E+01 -0.32777587085E+02  0.48854544963E+02  0.00000000000E+00 0.  1.
</event>
<event>
 6    1  0.4988969E-006  0.1288489E+03  0.7561462E-02  0.1229174E+00
         -2   -1    0    0    0  501 -0.00000000000E+00  0.00000000000E+00  0.26066120849E+02  0.26066120849E+02  0.00000000000E+00 0.  1.
          2   -1    0    0  501    0  0.00000000000E+00 -0.00000000000E+00 -0.98082722870E+03  0.98082722870E+03  0.00000000000E+00 0. -1.
          5    1    1    2  502    0 -0.26023245558E+02 -0.63012499655E+02 -0.45983987688E+03  0.46488489886E+03  0.41800000000E+01 0. -1.
         -5    1    1    2    0  502  0.28384781140E+02  0.90639248626E+02 -0.10858718866E+03  0.14432539323E+03  0.41800000000E+01 0.  1.
        -11    1    1    2    0    0 -0.46129287968E+02 -0.17950332555E+02 -0.20475700685E+03  0.21065506759E+03  0.00000000000E+00 0. -1.
         11    1    1    2    0    0  0.43767752386E+02 -0.96764164153E+01 -0.18157703546E+03  0.18702798986E+03  0.00000000000E+00 0.  1.
</event>
<event>
 6    1  0.4988969E-006  0.1055659E+03  0.7561462E-02  0.1269009E+00
         -1   -1    0    0    0  501 -0.00000000000E+00  0.00000000000E+00  0.10707195884E+03  0.10707195884E+03  0.00000000000E+00 0.  1.
          1   -1    0    0  501    0  0.00000000000E+00 -0.00000000000E+00 -0.14663851125E+03  0.14663851125E+03  0.00000000000E+00 0. -1.
          5    1    1    2  502    0 -0.77747375808E+02 -0.30752548096E+02 -0.15380126924E+02  0.85114008034E+02  0.41800000000E+01 0.  1.
         -5    1    1    2    0  502  0.47202762871E+02 -0.19872373716E+02  0.13992865485E+02  0.53256781204E+02  0.41800000000E+01 0.  1.
        -11    1    1    2    0    0  0.56760951247E+01  0.50847940398E+02  0.17729946145E+02  0.54148703484E+02  0.00000000000E+00 0.  1.
         11    1    1    2    0    0  0.24868517812E+02 -0.22301858630E+00 -0.55909237116E+02  0.61190977361E+02  0.00000000000E+00 0. -1.
</event>
<event>
 6    1  0.4988969E-006  0.1694633E+03  0.7561462E-02  0.1178409E+00
          3   -1    0    0  501    0  0.00000000000E+00  0.00000000000E+00  0.21905327990E+03  0.21905327990E+03  0.00000000000E+00 0. -1.
         -3   -1    0    0    0  501 -0.00000000000E+00 -0.00000000000E+00 -0.14240728504E+03  0.14240728504E+03  0.00000000000E+00 0.  1.
          5    1    1    2  502    0  0.38760835087E+02  0.11532784169E+03 -0.54517826869E+01  0.12186101813E+03  0.41800000000E+01 0. -1.
         -5    1    1    2    0  502  0.56682697373E+02 -0.58190210634E+02  0.33686565403E+02  0.88041387334E+02  0.41800000000E+01 0.  1.
        -11    1    1    2    0    0 -0.70633973852E+02 -0.76686987984E+02  0.14580457336E+02  0.10527412847E+03  0.00000000000E+00 0.  1.
         11    1    1    2    0    0 -0.24809558608E+02  0.19549356927E+02  0.33830754810E+02  0.46284031000E+02  0.00000000000E+00 0. -1.
</event>
<event>
 6    1  0.4988969E-006  0.8327330E+02  0.7561462E-02  0.1320011E+00
          2   -1    0    0  501    0  0.00000000000E+00  0.00000000000E+00  0.27715772258E+02  0.27715772258E+02  0.00000000000E+00 0. -1.
         -2   -1    0    0    0  501 -0.00000000000E+00 -0.00000000000E+00 -0.42169029722E+03  0.42169029722E+03  0.00000000000E+00 0.  1.
          5    1    1    2  502    0  0.34671174453E+02 -0.37331017194E+02 -0.36037644943E+02  0.62545019271E+02  0.41800000000E+01 0. -1.
         -5    1    1    2    0  502 -0.19247729908E+02  0.14145947904E+02 -0.20710354644E+03  0.20851842676E+03  0.41800000000E+01 0.  1.
        -11    1    1    2    0    0 -0.23462701321E+02  0.54240950036E+02 -0.71457765013E+02  0.92729667284E+02  0.00000000000E+00 0.  1.
         11    1    1    2    0    0  0.80392567762E+01 -0.31055880746E+02 -0.79375568568E+02  0.85612956168E+02  0.00000000000E+00 0. -1.
</event>
<event>
 6    1  0.4988969E-006  0.1321108E+03  0.7561462E-02  0.1224357E+00
         -1   -1    0    0    0  501 -0.00000000000E+00  0.00000000000E+00  0.71194118543E+02  0.71194118543E+02  0.00000000000E+00 0.  1.
          1   -1    0    0  501    0  0.00000000000E+00 -0.00000000000E+00 -0.29342424706E+03  0.29342424706E+03  0.00000000000E+00 0. -1.
          5    1    1    2  502    0  0.64102345847E+02 -0.74525174979E+02 -0.53576988061E+02  0.11203159598E+03  0.41800000000E+01 0. -1.
         -5    1    1    2    0  502 -0.51843315967E+02 -0.11192127389E+02 -0.18612894879E+02  0.56364043341E+02  0.41800000000E+01 0. -1.
        -11    1    1    2    0    0  0.30213487244E+02  0.41323656386E+02 -0.11406751638E+03  0.12502758768E+03  0.00000000000E+00 0. -1.
         11    1    1    2    0    0 -0.42472517124E+02  0.44393645982E+02 -0.35972729204E+02  0.71195138604E+02  0.00000000000E+00 0.  1.
</event>
<event>
 6    1  0.4988969E-006  0.1187892E+03  0.7561462E-02  0.1245108E+00
          1   -1    0    0  501    0  0.00000000000E+00  0.00000000000E+00  0.33899139455E+03  0.33899139455E+03  0.00000000000E+00 0. -1.
         -1   -1    0    0    0  501 -0.00000000000E+00 -0.00000000000E+00 -0.70622479525E+02  0.70622479525E+02  0.00000000000E+00 0.  1.
          5    1    1    2  502    0 -0.33422997745E+02  0.67820857355E+02  0.96637556222E+02  0.12277237125E+03  0.41800000000E+01 0.  1.
         -5    1    1    2    0  502  0.21975842180E+02  0.23770417793E+02 -0.31888508252E+02  0.45632441969E+02  0.41800000000E+01 0.  1.
        -11    1    1    2    0    0  0.51201215950E+02 -0.55639288531E+02  0.11454403247E+03  0.13725024706E+03  0.00000000000E+00 0.  1.
         11    1    1    2    0    0 -0.39754060385E+02 -0.35951986616E+02  0.89075834585E+02  0.10395881380E+03  0.00000000000E+00 0. -1.
</event>
<event>
 6    1  0.4988969E-006  0.1084949E+03  0.7561462E-02  0.1263383E+00
         -1   -1    0    0    0  501 -0.00000000000E+00  0.00000000000E+00  0.43789339362E+02  0.43789339362E+02  0.00000000000E+00 0.  1.
          1   -1    0    0  501    0  0.00000000000E+00 -0.00000000000E+00 -0.46407944434E+03  0.46407944434E+03  0.00000000000E+00 0. -1.
          5    1    1    2  502    0 -0.39634845246E+02 -0.35094498370E+02 -0.27868353254E+02  0.59972179272E+02  0.41800000000E+01 0.  1.
         -5    1    1    2    0  502  0.28296854299E+02  0.72134432127E+02 -0.51943006148E+02  0.93378994154E+02  0.41800000000E+01 0.  1.
        -11    1    1    2    0    0 -0.22868802296E+02  0.12517619893E+02 -0.37873087076E+02  0.45978730418E+02  0.00000000000E+00 0.  1.
         11    1    1    2    0    0  0.34206793242E+02 -0.49557553650E+02 -0.30260565850E+03  0.30853887986E+03  0.00000000000E+00 0. -1.
</event>
<event>
 6    1  0.4988969E-006  0.1574981E+03  0.7561462E-02  0.1191551E+00
         -1   -1    0    0    0  501 -0.00000000000E+00  0.00000000000E+00  0.38991072779E+03  0.38991072779E+03  0.00000000000E+00 0.  1.
          1   -1    0    0  501    0  0.00000000000E+00 -0.00000000000E+00 -0.19286385903E+03  0.19286385903E+03  0.00000000000E+00 0. -1.
          5    1    1    2  502    0  0.57624661420E+02 -0.13578408447E+03  0.32532636771E+03  0.35722911014E+03  0.41800000000E+01 0. -1.
         -5    1    1    2    0  502 -0.38870877330E+01  0.17797357416E+02  0.55192385067E+01  0.19488195805E+02  0.41800000000E+01 0. -1.
        -11    1    1    2    0    0 -0.29571773350E+02  0.12084147764E+03 -0.82490259875E+02  0.14927087952E+03  0.00000000000E+00 0. -1.
         11    1    1    2    0    0 -0.24165800337E+02 -0.28547505838E+01 -0.51308477587E+02  0.56786401357E+02  0.00000000000E+00 0.  1.
</event>
<event>
 6    1  0.4988969E-006  0.3151309E+03  0.7561462E-02  0.1077912E+00
         -2   -1    0    0    0  501 -0.00000000000E+00  0.00000000000E+00  0.32080745901E+03  0.32080745901E+03  0.00000000000E+00 0.  1.
          2   -1    0    0  501    0  0.00000000000E+00 -0.00000000000E+00 -0.37484812567E+03  0.37484812567E+03  0.00000000000E+00 0. -1.
          5    1    1    2  502    0  0.10992050766E+03 -0.25200862123E+03 -0.14138309259E+02  0.27533293913E+03  0.41800000000E+01 0. -1.
         -5    1    1    2    0  502  0.44815360079E+01  0.19872140000E+03  0.88729067005E+02  0.21771678556E+03  0.41800000000E+01 0.  1.
        -11    1    1    2    0    0 -0.76076931449E+02 -0.15586762843E+02 -0.66604478022E+02  0.10230739547E+03  0.00000000000E+00 0.  1.
         11    1    1    2    0    0 -0.38325112223E+02  0.68873984078E+02 -0.62026946383E+02  0.10029846453E+03  0.00000000000E+00 0. -1.
</event>
<event>
 6    1  0.4988969E-006  0.1508083E+03  0.7561462E-02  0.1199483E+00
          2   -1    0    0  501    0  0.00000000000E+00  0.00000000000E+00  0.12861711997E+04  0.12861711997E+04  0.00000000000E+00 0. -1.
         -2   -1    0    0    0  501 -0.00000000000E+00 -0.00000000000E+00 -0.20764310262E+02  0.20764310262E+02  0.00000000000E+00 0.  1.
          5    1    1    2  502    0 -0.88185966020E+02  0.50661894162E+02  0.22055009236E+03  0.24290575902E+03  0.41800000000E+01 0.  1.
         -5    1    1    2    0  502  0.28133654927E+02  0.48350439933E+02  0.28920806810E+03  0.29459811037E+03  0.41800000000E+01 0.  1.
        -11    1    1    2    0    0  0.64779311288E+02 -0.24791413296E+02  0.31449216443E+03  0.32205014335E+03  0.00000000000E+00 0. -1.
         11    1    1    2    0    0 -0.47270001958E+01 -0.74220920798E+02  0.44115656459E+03  0.44738149726E+03  0.00000000000E+00 0.  1.
</event>
<event>
 6    1  0.4988969E-006  0.1360086E+03  0.7561462E-02  0.1218803E+00
         -1   -1    0    0    0  501 -0.00000000000E+00  0.00000000000E+00  0.23659998166E+02  0.23659998166E+02  0.00000000000E+00 0.  1.
          1   -1    0    0  501    0  0.00000000000E+00 -0.00000000000E+00 -0.85639755789E+03  0.85639755789E+03  0.00000000000E+00 0. -1.
          5    1    1    2  502    0  0.34916072331E+02  0.10975049195E+03 -0.23920806807E+03  0.26552264465E+03  0.41800000000E+01 0.  1.
         -5    1    1    2    0  502  0.62304621502E+01 -0.30049673923E+02 -0.14703731880E+03  0.15026392475E+03  0.41800000000E+01 0.  1.
        -11    1    1    2    0    0 -0.51175621163E+02 -0.61234578425E+01 -0.14945669540E+03  0.15809410090E+03  0.00000000000E+00 0.  1.
         11    1    1    2    0    0  0.10029086682E+02 -0.73577360182E+02 -0.29703547744E+03  0.30617688576E+03  0.00000000000E+00 0. -1.
</event>
<event>
 6    1  0.4988969E-006  0.8103976E+02  0.7561462E-02  0.1326126E+00
          1   -1    0    0  501    0  0.00000000000E+00  0.00000000000E+00  0.54514387256E+03  0.54514387256E+03  0.00000000000E+00 0. -1.
         -1   -1    0    0    0  501 -0.00000000000E+00 -0.00000000000E+00 -0.55158767559E+02  0.55158767559E+02  0.00000000000E+00 0.  1.
          5    1    1    2  502    0 -0.71002469904E+01 -0.16014255750E+02 -0.39796714392E+02  0.43682041744E+02  0.41800000000E+01 0.  1.
         -5    1    1    2    0  502 -0.11565266846E+01  0.51521683255E+02  0.75341599917E+02  0.91376421890E+02  0.41800000000E+01 0.  1.
        -11    1    1    2    0    0 -0.14646346959E+01 -0.63096966322E+02  0.38100764149E+03  0.38619968305E+03  0.00000000000E+00 0. -1.
         11    1    1    2    0    0  0.97214083709E+01  0.27589538816E+02  0.73432577982E+02  0.79044493432E+02  0.00000000000E+00 0.  1.
</event>
<event>
 6    1  0.4988969E-006  0.1162420E+03  0.7561462E-02  0.1249428E+00
         -2   -1    0    0    0  501 -0.00000000000E+00  0.00000000000E+00  0.14424496485E+03  0.14424496485E+03  0.00000000000E+00 0.  1.
          2   -1    0    0  501    0  0.00000000000E+00 -0.00000000000E+00 -0.11618342498E+03  0.11618342498E+03  0.00000000000E+00 0. -1.
          5    1    1    2  502    0 -0.52823624928E+02 -0.44028466380E+02  0.29572468125E+02  0.74972291370E+02  0.41800000000E+01 0.  1.
         -5    1    1    2    0  502  0.68702531978E+02 -0.20555252123E+02  0.13398417094E+02  0.73072199027E+02  0.41800000000E+01 0.  1.
        -11    1    1    2    0    0  0.22495964172E+02  0.40854027623E+02  0.24317353184E+02  0.52597087780E+02  0.00000000000E+00 0.  1.
         11    1    1    2    0    0 -0.38374871222E+02  0.23729690880E+02 -0.39226698525E+02  0.59786811654E+02  0.00000000000E+00 0. -1.
</event>
<event>
 6    1  0.4988969E-006  0.1082417E+03  0.7561462E-02  0.1263861E+00
         -1   -1    0    0    0  501 -0.00000000000E+00  0.00000000000E+00  0.20904257992E+03  0.20904257992E+03  0.00000000000E+00 0.  1.
          1   -1    0    0  501    0  0.00000000000E+00 -0.00000000000E+00 -0.71850715543E+02  0.71850715543E+02  0.00000000000E+00 0. -1.
          5    1    1    2  502    0 -0.40388031176E+02 -0.60948336444E+02  0.33828943036E+02  0.80670704500E+02  0.41800000000E+01 0. -1.
         -5    1    1    2    0  502  0.38580598426E+02  0.20404579096E+02  0.89310142128E+02  0.99491624321E+02  0.41800000000E+01 0. -1.
        -11    1    1    2    0    0 -0.29612960625E+02  0.56779184414E+02  0.13026458163E+02  0.65349000237E+02  0.00000000000E+00 0.  1.
         11    1    1    2    0    0  0.31420393375E+02 -0.16235427066E+02  0.10263210502E+01  0.35381966406E+02  0.00000000000E+00 0. -1.
</event>
<event>
 6    1  0.4988969E-006  0.9859286E+02  0.7561462E-02  0.1283283E+00
          1   -1    0    0  501    0  0.00000000000E+00  0.00000000000E+00  0.44334217391E+03  0.44334217391E+03  0.00000000000E+00 0. -1.
         -1   -1    0    0    0  501 -0.00000000000E+00 -0.00000000000E+00 -0.96130645013E+02  0.96130645013E+02  0.00000000000E+00 0.  1.
          5    1    1    2  502    0  0.14294126143E+02 -0.19596374173E+01 -0.61506020354E+02  0.63313704368E+02  0.41800000000E+01 0.  1.
         -5    1    1    2    0  502  0.78957244054E+02 -0.61204467556E+01  0.49303894114E+02  0.93381222052E+02  0.41800000000E+01 0.  1.
        -11    1    1    2    0    0 -0.24763404074E+02  0.21822908960E+02  0.25701968503E+02  0.41833679275E+02  0.00000000000E+00 0.  1.
         11    1    1    2    0    0 -0.68487966123E+02 -0.13742824787E+02  0.33371168663E+03  0.34094421323E+03  0.00000000000E+00 0. -1.
</event>
<event>
 6    1  0.4988969E-006  0.7790262E+02  0.7561462E-02  0.1335111E+00
          3   -1    0    0  501    0  0.00000000000E+00  0.00000000000E+00  0.16488474796E+03  0.16488474796E+03  0.00000000000E+00 0. -1.
         -3   -1    0    0    0  501 -0.00000000000E+00 -0.00000000000E+00 -0.84017140346E+02  0.84017140346E+02  0.00000000000E+00 0.  1.
          5    1    1    2  502    0 -0.34979245976E+02  0.30608708634E+02 -0.33105984258E+02  0.57218172699E+02  0.41800000000E+01 0.  1.
         -5    1    1    2    0  502  0.54588664309E+02 -0.56089574936E+01  0.47386312863E+02  0.72624498084E+02  0.41800000000E+01 0.  1.
        -11    1    1    2    0    0 -0.32438835909E+02 -0.25501842356E+02 -0.91302046317E+01  0.42260888246E+02  0.00000000000E+00 0.  1.
         11    1    1    2    0    0  0.12829417576E+02  0.50209121548E+00  0.75717483644E+02  0.76798329281E+02  0.00000000000E+00 0. -1.
</event>
<event>
 6    1  0.4988969E-006  0.1479672E+03  0.7561462E-02  0.1202993E+00
          2   -1    0    0  501    0  0.00000000000E+00  0.00000000000E+00  0.92893590460E+03  0.92893590460E+03  0.00000000000E+00 0. -1.
         -2   -1    0    0    0  501 -0.00000000000E+00 -0.00000000000E+00 -0.26044847520E+02  0.26044847520E+02  0.00000000000E+00 0.  1.
          5    1    1    2  502    0  0.34877177678E+02 -0.50465118716E+01  0.15962989558E+03  0.16352694203E+03  0.41800000000E+01 0.  1.
         -5    1    1    2    0  502 -0.84033973357E+02 -0.95473308944E+02  0.30485971343E+03  0.33035402022E+03  0.41800000000E+01 0.  1.
        -11    1    1    2    0    0  0.42303720968E+02  0.11407886833E+02  0.23318601489E+03  0.23726664795E+03  0.00000000000E+00 0. -1.
         11    1    1    2    0    0  0.68530747111E+01  0.89111933983E+02  0.20521543317E+03  0.22383314192E+03  0.00000000000E+00 0.  1.
</event>
<event>
 6    1  0.4988969E-006  0.2769258E+03  0.7561462E-02  0.1097380E+00
         -2   -1    0    0    0  501 -0.00000000000E+00  0.00000000000E+00  0.13517622794E+03  0.13517622794E+03  0.00000000000E+00 0.  1.
          2   -1    0    0  501    0  0.00000000000E+00 -0.00000000000E+00 -0.72248233014E+03  0.72248233014E+03  0.00000000000E+00 0. -1.
          5    1    1    2  502    0  0.17289675673E+03  0.92092527218E+02 -0.68050747129E+02  0.20741913760E+03  0.41800000000E+01 0.  1.
         -5    1    1    2    0  502  0.10554326354E+02  0.90215282269E+02 -0.43138835452E+02  0.10064105764E+03  0.41800000000E+01 0.  1.
        -11    1    1    2    0    0 -0.17476416312E+03 -0.14036492698E+03 -0.43902346418E+03  0.49293653500E+03  0.00000000000E+00 0. -1.
         11    1    1    2    0    0 -0.86869199724E+01 -0.41942882504E+02 -0.37093055441E+02  0.56661827832E+02  0.00000000000E+00 0.  1.
</event>
<event>
 6    1  0.4988969E-006  0.2116004E+03  0.7561462E-02  0.1140305E+00
         -1   -1    0    0    0  501 -0.00000000000E+00  0.00000000000E+00  0.14145491305E+03  0.14145491305E+03  0.00000000000E+00 0.  1.
          1   -1    0    0  501    0  0.00000000000E+00 -0.00000000000E+00 -0.34458783766E+03  0.34458783766E+03  0.00000000000E+00 0. -1.
          5    1    1    2  502    0  0.85848882922E+02  0.30962850451E+02 -0.88769755357E+01  0.91787809112E+02  0.41800000000E+01 0.  1.
         -5    1    1    2    0  502  0.10050002775E+03 -0.84159088633E+02 -0.90663028011E+02  0.15943733824E+03  0.41800000000E+01 0.  1.
        -11    1    1    2    0    0 -0.61944560403E+01  0.15423381873E+02  0.91396512306E+01  0.18968005131E+02  0.00000000000E+00 0.  1.
         11    1    1    2    0    0 -0.18015445464E+03  0.37772856309E+02 -0.11273257229E+03  0.21584959823E+03  0.00000000000E+00 0. -1.
</event>
<event>
 6    1  0.4988969E-006  0.2417460E+03  0.7561462E-02  0.1118635E+00
         -2   -1    0    0    0  501 -0.00000000000E+00  0.00000000000E+00  0.11242468334E+03  0.11242468334E+03  0.00000000000E+00 0.  1.
          2   -1    0    0  501    0  0.00000000000E+00 -0.00000000000E+00 -0.63007656410E+03  0.63007656410E+03  0.00000000000E+00 0. -1.
          5    1    1    2  502    0  0.13209492688E+01 -0.82327210860E+02 -0.14163760567E+03  0.16388471038E+03  0.41800000000E+01 0. -1.
         -5    1    1    2    0  502  0.14012154620E+02 -0.15279386998E+03 -0.39264255166E+02  0.15843440698E+03  0.41800000000E+01 0. -1.
        -11    1    1    2    0    0 -0.46286910213E+02  0.13135421831E+03 -0.15296607776E+03  0.20686959581E+03  0.00000000000E+00 0.  1.
         11    1    1    2    0    0  0.30953806324E+02  0.10376686253E+03 -0.18378394216E+03  0.21331253428E+03  0.00000000000E+00 0. -1.
</event>
<event>
 6    1  0.4988969E-006  0.1710947E+03  0.7561462E-02  0.1176711E+00
         -1   -1    0    0    0  501 -0.00000000000E+00  0.00000000000E+00  0.91663378622E+02  0.91663378622E+02  0.00000000000E+00 0.  1.
          1   -1    0    0  501    0  0.00000000000E+00 -0.00000000000E+00 -0.35982365576E+03  0.35982365576E+03  0.00000000000E+00 0. -1.
          5    1    1    2  502    0  0.63647511674E+02  0.14751400349E+03 -0.98421037784E+02  0.18845572437E+03  0.41800000000E+01 0.  1.
         -5    1    1    2    0  502  0.11187375708E+02 -0.25942270468E+02 -0.10803008835E+02  0.30534180390E+02  0.41800000000E+01 0.  1.
        -11    1    1    2    0    0 -0.36210868210E+02 -0.14350436656E+02 -0.26090226458E+01  0.39038045646E+02  0.00000000000E+00 0.  1.
         11    1    1    2    0    0 -0.38624019171E+02 -0.10722129637E+03 -0.15632720788E+03  0.19345908398E+03  0.00000000000E+00 0. -1.
</event>
<event>
 6    1  0.4988969E-006  0.1125741E+03  0.7561462E-02  0.1255876E+00
         -1   -1    0    0    0  501 -0.00000000000E+00  0.00000000000E+00  0.10182260904E+03  0.10182260904E+03  0.00000000000E+00 0.  1.
          1   -1    0    0  501    0  0.00000000000E+00 -0.00000000000E+00 -0.15994571213E+03  0.15994571213E+03  0.00000000000E+00 0. -1.
          5    1    1    2  502    0 -0.72045713112E+01  0.69881866558E+02  0.31796014925E+02  0.77225902951E+02  0.41800000000E+01 0. -1.
         -5    1    1    2    0  502  0.44480772114E+02 -0.19506020671E+02 -0.39766465508E+02  0.62911589626E+02  0.41800000000E+01 0. -1.
        -11    1    1    2    0    0  0.95950213105E+01 -0.57778820817E+02 -0.45076804384E+02  0.73907880922E+02  0.00000000000E+00 0. -1.
         11    1    1    2    0    0 -0.46871222114E+02  0.74029749300E+01 -0.50758481249E+01  0.47722947671E+02  0.00000000000E+00 0.  1.
</event>
<event>
 6    1  0.4988969E-006  0.1114985E+03  0.7561462E-02  0.1257820E+00
          1   -1    0    0  501    0  0.00000000000E+00  0.00000000000E+00  0.82583888845E+02  0.82583888845E+02  0.00000000000E+00 0.  1.
         -1   -1    0    0    0  501 -0.00000000000E+00 -0.00000000000E+00 -0.20101996302E+03  0.20101996302E+03  0.00000000000E+00 0. -1.
          5    1    1    2  502    0 -0.17655344840E+02  0.33778567141E+02 -0.31653406183E+01  0.38473296983E+02  0.41800000000E+01 0. -1.
         -5    1    1    2    0  502  0.68904155056E+02 -0.50682015572E+02 -0.10489847930E+03  0.13541644156E+03  0.41800000000E+01 0. -1.
        -11    1    1    2    0    0  0.10013941624E+02  0.33974071111E+02  0.18398123226E+02  0.39912497704E+02  0.00000000000E+00 0.  1.
         11    1    1    2    0    0 -0.61262751840E+02 -0.17070622680E+02 -0.28770377483E+02  0.69801615613E+02  0.00000000000E+00 0. -1.
</event>
<event>
 6    1  0.4988969E-006  0.2814906E+03  0.7561462E-02  0.1094878E+00
          2   -1    0    0  501    0  0.00000000000E+00  0.00000000000E+00  0.12546373342E+04  0.12546373342E+04  0.00000000000E+00 0. -1.
         -2   -1    0    0    0  501 -0.00000000000E+00 -0.00000000000E+00 -0.68180070968E+02  0.68180070968E+02  0.00000000000E+00 0.  1.
          5    1    1    2  502    0 -0.58577244987E+02 -0.76796259284E+02  0.26307907607E+03  0.28028027354E+03  0.41800000000E+01 0.  1.
         -5    1    1    2    0  502 -0.19290406967E+03 -0.24081555242E+02  0.31214750956E+03  0.36775731335E+03  0.41800000000E+01 0.  1.
        -11    1    1    2    0    0  0.19353147946E+03  0.67394622602E+02  0.35452443374E+03  0.40949242095E+03  0.00000000000E+00 0. -1.
         11    1    1    2    0    0  0.57949835200E+02  0.33483191925E+02  0.25670624383E+03  0.26528739729E+03  0.00000000000E+00 0.  1.
</event>
<event>
 6    1  0.4988969E-006  0.1432287E+03  0.7561462E-02  0.1209049E+00
          3   -1    0    0  501    0  0.00000000000E+00  0.00000000000E+00  0.37203519493E+03  0.37203519493E+03  0.00000000000E+00 0. -1.
         -3   -1    0    0    0  501 -0.00000000000E+00 -0.00000000000E+00 -0.91716454796E+02  0.91716454796E+02  0.00000000000E+00 0.  1.
          5    1    1    2  502    0 -0.82016556828E+02 -0.14794823819E+02 -0.32117025281E+02  0.89412404724E+02  0.41800000000E+01 0.  1.
         -5    1    1    2    0  502 -0.37109656319E+02 -0.30391485237E+02  0.83491466750E+02  0.96379802797E+02  0.41800000000E+01 0.  1.
        -11    1    1    2    0    0 -0.10565072170E+02  0.20188447076E+02  0.17827119678E+02  0.28930958182E+02  0.00000000000E+00 0.  1.
         11    1    1    2    0    0  0.12969128532E+03  0.24997861981E+02  0.21111717898E+03  0.24902848402E+03  0.00000000000E+00 0. -1.
</event>
<event>
 6    1  0.4988969E-006  0.9706392E+02  0.7561462E-02  0.1286594E+00
         -2   -1    0    0    0  501 -0.00000000000E+00  0.00000000000E+00  0.25723470838E+02  0.25723470838E+02  0.00000000000E+00 0. -1.
          2   -1    0    0  501    0  0.00000000000E+00 -0.00000000000E+00 -0.54587211990E+03  0.54587211990E+03  0.00000000000E+00 0.  1.
          5    1    1    2  502    0  0.59990218087E+02  0.10756144611E+02 -0.16989770106E+03  0.18054700812E+03  0.41800000000E+01 0.  1.
         -5    1    1    2    0  502 -0.40221188977E+02 -0.20782518354E+02 -0.24403672116E+02  0.51601053522E+02  0.41800000000E+01 0.  1.
        -11    1    1    2    0    0 -0.10770508418E+02  0.47668096380E+02 -0.24484261331E+03  0.24967209807E+03  0.00000000000E+00 0.  1.
         11    1    1    2    0    0 -0.89985206921E+01 -0.37641722636E+02 -0.81004662575E+02  0.89775431030E+02  0.00000000000E+00 0. -1.
</event>
<event>
 6    1  0.4988969E-006  0.7426325E+02  0.7561462E-02  0.1346168E+00
         -3   -1    0    0    0  501 -0.00000000000E+00  0.00000000000E+00  0.61923036385E+02  0.61923036385E+02  0.00000000000E+00 0.  1.
          3   -1    0    0  501    0  0.00000000000E+00 -0.00000000000E+00 -0.27296100265E+03  0.27296100265E+03  0.00000000000E+00 0. -1.
          5    1    1    2  502    0 -0.41001183524E+02  0.10196713376E+02  0.27666886969E+02  0.50675428450E+02  0.41800000000E+01 0. -1.
         -5    1    1    2    0  502  0.48499030466E+02  0.45977881089E+01 -0.64181616699E+02  0.80684868059E+02  0.41800000000E+01 0. -1.
        -11    1    1    2    0    0  0.21241050518E+02  0.55613000966E+01  0.33380697476E+01  0.22209299753E+02  0.00000000000E+00 0.  1.
         11    1    1    2    0    0 -0.28738897460E+02 -0.20355801581E+02 -0.17786130629E+03  0.18131444277E+03  0.00000000000E+00 0. -1.
</event>
<event>
 6    1  0.4988969E-006  0.2050720E+03  0.7561462E-02  0.1145529E+00
          1   -1    0    0  501    0  0.00000000000E+00  0.00000000000E+00  0.94050965565E+03  0.94050965565E+03  0.00000000000E+00 0. -1.
         -1   -1    0    0    0  501 -0.00000000000E+00 -0.00000000000E+00 -0.54083381239E+02  0.54083381239E+02  0.00000000000E+00 0.  1.
          5    1    1    2  502    0 -0.19882023647E+03  0.42392812657E+01  0.39545819399E+03  0.44266478687E+03  0.41800000000E+01 0. -1.
         -5    1    1    2    0  502  0.43416111386E+01  0.68979732456E+01 -0.56102368894E+01  0.10741451491E+02  0.41800000000E+01 0. -1.
        -11    1    1    2    0    0  0.11631564762E+03 -0.33010242644E+02  0.38268482141E+03  0.40133113328E+03  0.00000000000E+00 0. -1.
         11    1    1    2    0    0  0.78162977717E+02  0.21872988133E+02  0.11389349589E+03  0.13985566525E+03  0.00000000000E+00 0.  1.
</event>
<event>
 6    1  0.4988969E-006  0.1112434E+03  0.7561462E-02  0.1258284E+00
         -1   -1    0    0    0  501 -0.00000000000E+00  0.00000000000E+00  0.57683013385E+03  0.57683013385E+03  0.00000000000E+00 0.  1.
          1   -1    0    0  501    0  0.00000000000E+00 -0.00000000000E+00 -0.21487468073E+02  0.21487468073E+02  0.00000000000E+00 0. -1.
          5    1    1    2  502    0  0.40211990647E+01 -0.64096033750E+02  0.16776950680E+03  0.17969015387E+03  0.41800000000E+01 0.  1.
         -5    1    1    2    0  502 -0.31571611646E+02  0.55522412085E+02  0.16340712163E+03  0.17549605324E+03  0.41800000000E+01 0.  1.
        -11    1    1    2    0    0 -0.22110842577E+02 -0.25608495692E+02  0.78227178126E+02  0.85230134393E+02  0.00000000000E+00 0. -1.
         11    1    1    2    0    0  0.49661255159E+02  0.34182117357E+02  0.14593885922E+03  0.15790126042E+03  0.00000000000E+00 0.  1.
</event>
<event>
 6    1  0.4988969E-006  0.1275030E+03  0.7561462E-02  0.1231209E+00
          2   -1    0    0  501    0  0.00000000000E+00  0.00000000000E+00  0.66081907373E+03  0.66081907373E+03  0.00000000000E+00 0. -1.
         -2   -1    0    0    0  501 -0.00000000000E+00 -0.00000000000E+00 -0.26257721567E+02  0.26257721567E+02  0.00000000000E+00 0.  1.
          5    1    1    2  502    0 -0.45575014692E+02  0.92089338943E+02  0.23802632669E+03  0.25929044122E+03  0.41800000000E+01 0.  1.
         -5    1    1    2    0  502  0.24732888603E+02 -0.26405076778E+02  0.46439334594E+02  0.59017184411E+02  0.41800000000E+01 0.  1.
        -11    1    1    2    0    0  0.56764829539E+02 -0.52982117081E+02  0.22720586383E+03  0.24010800728E+03  0.00000000000E+00 0.  1.
         11    1    1    2    0    0 -0.35922703450E+02 -0.12702145084E+02  0.12288982705E+03  0.12866116238E+03  0.00000000000E+00 0. -1.
</event>
<event>
 6    1  0.4988969E-006  0.9085926E+02  0.7561462E-02  0.1300784E+00
         -2   -1    0    0    0  501 -0.00000000000E+00  0.00000000000E+00  0.39264232982E+02  0.39264232982E+02  0.00000000000E+00 0.  1.
          2   -1    0    0  501    0  0.00000000000E+00 -0.00000000000E+00 -0.51591710873E+03  0.51591710873E+03  0.00000000000E+00 0. -1.
          5    1    1    2  502    0 -0.11015922926E+02  0.15748655110E+02 -0.11226346418E+03  0.11397336743E+03  0.41800000000E+01 0. -1.
         -5    1    1    2    0  502  0.53236835846E+02 -0.35321978614E+02 -0.12604709973E+01  0.64037989125E+02  0.41800000000E+01 0.  1.
        -11    1    1    2    0    0 -0.11823332030E+02  0.52147043571E+02 -0.24848246035E+03  0.25417049088E+03  0.00000000000E+00 0.  1.
         11    1    1    2    0    0 -0.30397580889E+02 -0.32573720067E+02 -0.11464648023E+03  0.12299949427E+03  0.00000000000E+00 0. -1.
</event>
<event>
 6    1  0.4988969E-006  0.1571989E+03  0.7561462E-02  0.1191896E+00
          1   -1    0    0  501    0  0.00000000000E+00  0.00000000000E+00  0.13715151513E+04  0.13715151513E+04  0.00000000000E+00 0. -1.
         -1   -1    0    0    0  501 -0.00000000000E+00 -0.00000000000E+00 -0.24064423173E+02  0.24064423173E+02  0.00000000000E+00 0.  1.
          5    1    1    2  502    0  0.54802817591E+02 -0.19695682993E+02  0.42142730703E+03  0.42545236661E+03  0.41800000000E+01 0.  1.
         -5    1    1    2    0  502  0.44212373473E+02 -0.79715444118E+02  0.14474410625E+03  0.17110702701E+03  0.41800000000E+01 0.  1.
        -11    1    1    2    0    0 -0.48943719581E+02  0.10353562247E+03  0.60390923770E+03  0.61467184756E+03  0.00000000000E+00 0. -1.
         11    1    1    2    0    0 -0.50071471483E+02 -0.41244953601E+01  0.17737007720E+03  0.18434833333E+03  0.00000000000E+00 0.  1.
</event>
<event>
 6    1  0.4988969E-006  0.1186018E+03  0.7561462E-02  0.1245422E+00
         -2   -1    0    0    0  501 -0.00000000000E+00  0.00000000000E+00  0.95576580669E+02  0.95576580669E+02  0.00000000000E+00 0.  1.
          2   -1    0    0  501    0  0.00000000000E+00 -0.00000000000E+00 -0.16047386841E+03  0.16047386841E+03  0.00000000000E+00 0. -1.
          5    1    1    2  502    0  0.37708820011E+02  0.14841866125E+02 -0.15562412859E+02  0.43610746275E+02  0.41800000000E+01 0.  1.
         -5    1    1    2    0  502 -0.81485093948E+02 -0.49411859715E+02 -0.12571819724E+02  0.96212657522E+02  0.41800000000E+01 0.  1.
        -11    1    1    2    0    0  0.60997266643E+02 -0.15974598420E+01  0.12112038124E+01  0.61030200971E+02  0.00000000000E+00 0.  1.
         11    1    1    2    0    0 -0.17220992706E+02  0.36167453432E+02 -0.37974258973E+02  0.55196844313E+02  0.00000000000E+00 0. -1.
</event>
<event>
 6    1  0.4988969E-006  0.2110095E+03  0.7561462E-02  0.1140769E+00
          1   -1    0    0  501    0  0.00000000000E+00  0.00000000000E+00  0.19687677061E+03  0.19687677061E+03  0.00000000000E+00 0. -1.
         -1   -1    0    0    0  501 -0.00000000000E+00 -0.00000000000E+00 -0.23742502700E+03  0.23742502700E+03  0.00000000000E+00 0.  1.
          5    1    1    2  502    0  0.95719870142E+02 -0.22566669476E+02 -0.36986034876E+02  0.10515221009E+03  0.41800000000E+01 0.  1.
         -5    1    1    2    0  502  0.72084012439E+02  0.99079251381E+02 -0.13496646394E+02  0.12333869939E+03  0.41800000000E+01 0.  1.
        -11    1    1    2    0    0 -0.10735987920E+03 -0.88779081374E+02 -0.13205843033E+02  0.13993664010E+03  0.00000000000E+00 0.  1.
         11    1    1    2    0    0 -0.60444003377E+02  0.12266499469E+02  0.23140267921E+02  0.65874248025E+02  0.00000000000E+00 0. -1.
</event>
<event>
 6    1  0.4988969E-006  0.1263685E+03  0.7561462E-02  0.1232946E+00
          3   -1    0    0  501    0  0.00000000000E+00  0.00000000000E+00  0.84444149672E+02  0.84444149672E+02  0.00000000000E+00 0. -1.
         -3   -1    0    0    0  501 -0.00000000000E+00 -0.00000000000E+00 -0.48573196306E+03  0.48573196306E+03  0.00000000000E+00 0.  1.
          5    1    1    2  502    0 -0.70316426823E+02  0.55320593098E+02 -0.17460499846E+03  0.19623747294E+03  0.41800000000E+01 0. -1.
         -5    1    1    2    0  502  0.38620532543E+02  0.17947425558E+02 -0.24801323377E+03  0.25167775457E+03  0.41800000000E+01 0. -1.
        -11    1    1    2    0    0  0.23156254863E+01 -0.87640476474E+02  0.14930480723E+02  0.88933314863E+02  0.00000000000E+00 0.  1.
         11    1    1    2    0    0  0.29380268794E+02  0.14372457818E+02  0.63999381147E+01  0.33327570359E+02  0.00000000000E+00 0. -1.
</event>
<event>
 6    1  0.4988969E-006  0.1395344E+03  0.7561462E-02  0.1213957E+00
         -2   -1    0    0    0  501 -0.00000000000E+00  0.00000000000E+00  0.10487855850E+03  0.10487855850E+03  0.00000000000E+00 0.  1.
          2   -1    0    0  501    0  0.00000000000E+00 -0.00000000000E+00 -0.33220555720E+03  0.33220555720E+03  0.00000000000E+00 0. -1.
          5    1    1    2  502    0  0.31434449678E+02  0.91722851116E+02 -0.20898005512E+02  0.99274392860E+02  0.41800000000E+01 0. -1.
         -5    1    1    2    0  502 -0.52884340377E+02  0.77287793968E+01  0.31802826513E+02  0.62332813688E+02  0.41800000000E+01 0. -1.
        -11    1    1    2    0    0 -0.23718155023E+01 -0.10410966600E+03 -0.22476848622E+03  0.24772024637E+03  0.00000000000E+00 0. -1.
         11    1    1    2    0    0  0.23821706201E+02  0.46580354862E+01 -0.13463333480E+02  0.27756662791E+02  0.00000000000E+00 0.  1.
</event>
<event>
 6    1  0.4988969E-006  0.1269576E+03  0.7561462E-02  0.1232041E+00
         -1   -1    0    0    0  501 -0.00000000000E+00  0.00000000000E+00  0.23917939831E+03  0.23917939831E+03  0.00000000000E+00 0.  1.
          1   -1    0    0  501    0  0.00000000000E+00 -0.00000000000E+00 -0.15201469766E+03  0.15201469766E+03  0.00000000000E+00 0. -1.
          5    1    1    2  502    0 -0.17240620752E+01 -0.69701046331E+02  0.16881137642E+03  0.18269089047E+03  0.41800000000E+01 0.  1.
         -5    1    1    2    0  502 -0.28945335009E+01 -0.44531785051E+02 -0.13878917356E+02  0.46920730504E+02  0.41800000000E+01 0.  1.
        -11    1    1    2    0    0  0.38873925429E+02  0.87659757342E+02 -0.21689422700E+02  0.98315035435E+02  0.00000000000E+00 0.  1.
         11    1    1    2    0    0 -0.34255329852E+02  0.26573074040E+02 -0.46078335720E+02  0.63267439571E+02  0.00000000000E+00 0. -1.
</event>
<event>
 6    1  0.4988969E-006  0.2992598E+03  0.7561462E-02  0.1085611E+00
         -2   -1    0    0    0  501 -0.00000000000E+00  0.00000000000E+00  0.12090266867E+03  0.12090266867E+03  0.00000000000E+00 0. -1.
          2   -1    0    0  501    0  0.00000000000E+00 -0.00000000000E+00 -0.74621212014E+03  0.74621212014E+03  0.00000000000E+00 0.  1.
          5    1    1    2  502    0 -0.15309242769E+02 -0.19194046877E+03 -0.20484198349E+03  0.28116405721E+03  0.41800000000E+01 0. -1.
         -5    1    1    2    0  502 -0.92029926942E+02 -0.65636603851E+02 -0.11201657520E+03  0.15919439920E+03  0.41800000000E+01 0. -1.
        -11    1    1    2    0    0  0.39410581925E+02  0.19974622825E+03 -0.23711651379E+03  0.31253158365E+03  0.00000000000E+00 0.  1.
         11    1    1    2    0    0  0.67928587786E+02  0.57830844371E+02 -0.71334378992E+02  0.11422474874E+03  0.00000000000E+00 0. -1.
</event>
<event>
 6    1  0.4988969E-006  0.1129278E+03  0.7561462E-02  0.1255242E+00
          2   -1    0    0  501    0  0.00000000000E+00  0.00000000000E+00  0.51450833099E+02  0.51450833099E+02  0.00000000000E+00 0.  1.
         -2   -1    0    0    0  501 -0.00000000000E+00 -0.00000000000E+00 -0.35644979899E+03  0.35644979899E+03  0.00000000000E+00 0. -1.
          5    1    1    2  502    0  0.54798900629E+02 -0.99437227071E+01 -0.17016372041E+03  0.17909483878E+03  0.41800000000E+01 0.  1.
         -5    1    1    2    0  502 -0.47621630141E+02  0.46546123707E+02 -0.90638226171E+02  0.11254830844E+03  0.41800000000E+01 0.  1.
        -11    1    1    2    0    0  0.39224373365E+02 -0.40917312164E+02 -0.40189564417E+02  0.69483659868E+02  0.00000000000E+00 0.  1.
         11    1    1    2    0    0 -0.46401643853E+02  0.43149111643E+01 -0.40074548876E+01  0.46773825002E+02  0.00000000000E+00 0. -1.
</event>
<event>
 6    1  0.4988969E-006  0.9338138E+02  0.7561462E-02  0.1294864E+00
         -1   -1    0    0    0  501 -0.00000000000E+00  0.00000000000E+00  0.72088326816E+02  0.72088326816E+02  0.00000000000E+00 0.  1.
          1   -1    0    0  501    0  0.00000000000E+00 -0.00000000000E+00 -0.24316979343E+03  0.24316979343E+03  0.00000000000E+00 0. -1.
          5    1    1    2  502    0  0.17529083478E+02 -0.32621940454E+02 -0.10684717708E+03  0.11316029081E+03  0.41800000000E+01 0. -1.
         -5    1    1    2    0  502 -0.82184757791E+00 -0.38759123148E+02  0.31601056700E+02  0.50190081144E+02  0.41800000000E+01 0. -1.
        -11    1    1    2    0    0 -0.44395425384E+02  0.69858585352E+02 -0.92260461714E+02  0.12394824944E+03  0.00000000000E+00 0.  1.
         11    1    1    2    0    0  0.27688189484E+02  0.15224782497E+01 -0.35748845202E+01  0.27959498856E+02  0.00000000000E+00 0. -1.
</event>
<event>
 6    1  0.4988969E-006  0.3256844E+03  0.7561462E-02  0.1073063E+00
         -2   -1    0    0    0  501 -0.00000000000E+00  0.00000000000E+00  0.35283059903E+03  0.35283059903E+03  0.00000000000E+00 0.  1.
          2   -1    0    0  501    0  0.00000000000E+00 -0.00000000000E+00 -0.40506071400E+03  0.40506071400E+03  0.00000000000E+00 0. -1.
          5    1    1    2  502    0  0.15728912040E+03  0.22253251844E+03  0.13138432591E+03  0.30255561910E+03  0.41800000000E+01 0. -1.
         -5    1    1    2    0  502  0.58554969541E+02 -0.40692383591E+01  0.34340172855E+02  0.68131953080E+02  0.41800000000E+01 0. -1.
        -11    1    1    2    0    0 -0.12856666639E+02 -0.63012298082E+02 -0.41048790781E+02  0.76294474317E+02  0.00000000000E+00 0.  1.
         11    1    1    2    0    0 -0.20298742330E+03 -0.15545098199E+03 -0.17690582295E+03  0.31090926653E+03  0.00000000000E+00 0. -1.
</event>
<event>
 6    1  0.4988969E-006  0.1123285E+03  0.7561462E-02  0.1256318E+00
         -2   -1    0    0    0  501 -0.00000000000E+00  0.00000000000E+00  0.16110198525E+03  0.16110198525E+03  0.00000000000E+00 0.  1.
          2   -1    0    0  501    0  0.00000000000E+00 -0.00000000000E+00 -0.15152614850E+03  0.15152614850E+03  0.00000000000E+00 0. -1.
          5    1    1    2  502    0  0.21784696947E+02  0.44092904363E+02 -0.55954681233E+02  0.74613376737E+02  0.41800000000E+01 0. -1.
         -5    1    1    2    0  502 -0.42227057216E+02 -0.67500983557E+02  0.10717668739E+03  0.13358076906E+03  0.41800000000E+01 0.  1.
        -11    1    1    2    0    0 -0.23192977290E+02  0.42125221705E+02 -0.24350127830E+02  0.53901551226E+02  0.00000000000E+00 0. -1.
         11    1    1    2    0    0  0.43635337560E+02 -0.18717142510E+02 -0.17296041582E+02  0.50532436732E+02  0.00000000000E+00 0.  1.
</event>
